dump/S5_s00_n130_r1024_720_20/steps_11 (written by ASE) 

1510 	 atoms 
1  atom types
0.0           114.158223526  xlo xhi
0.0      7.2199999999999998  ylo yhi
0.0      22.831644699999995  zlo zhi


Atoms 

     1   1        3.54581055367079      3.9468416843339216      4.1909228418738094
     2   1      4.4669128979417589     0.33160494164480919     0.80045993256918224
     3   1      7.8567997672863417      1.7518865972283344      3.5852636161476261
     4   1      7.7550635716342802       5.334172667062469      3.4781024710473103
     5   1      13.540543472360413      1.6489787511699896      3.4015864700514675
     6   1      13.650676097812958      5.2438750259215352      3.6970383562348732
     7   1      18.225480974689351      5.3189417638702539      1.6007388984941013
     8   1      17.124994100585376      5.5224275422169242      21.969225849340589
     9   1      23.607138263646203      6.9299530244411738      3.9182544017064522
    10   1      26.778859176520431      7.0039776313737239       4.333321864569049
    11   1      32.380603682402757       1.635305540951469       6.733200435526256
    12   1      32.392714308609499      6.9693147975153815      5.5142966365116886
    13   1      36.790792154575179      1.8518003149973747      4.1684800147412915
    14   1      36.746025743006093      5.4666789050066189      4.3524414263072098
    15   1      42.107880245435858    0.031685964756286822       6.064050360886867
    16   1       42.55295223543483      5.2993610511967679      4.3537051729434619
    17   1      48.725357529374946       5.422799958766138      9.9147069644497225
    18   1      51.291541030733711      7.0419508841207117      7.8213127777005553
    19   1      55.718515233001661      3.5413329072546569      9.5185760733244908
    20   1      54.118389743852653      1.4528282228907909      10.212370639001795
    21   1      2.9291095353789758      5.4256215031025752      11.617214695310915
    22   1      1.2587190982630738    0.020016479067973349      11.006698198986733
    23   1      7.7064166987537988        1.92493045152481      9.3246578238997291
    24   1       7.482883215482409      5.6564728587967386      9.4580516021456287
    25   1      12.468499074684901      1.5431880186815616      7.1208983209241659
    26   1       10.94129835180078      5.5525121837095268      10.408738363523645
    27   1      19.695272101081006      1.5822424583758421      9.4616074203563922
    28   1      19.751848528469456       5.624663921813017      9.5273585348019587
    29   1      27.032426295492048      3.3477094446826205      9.7022308659532168
    30   1      25.285021017519227      1.6915839213454478      8.5850378704443706
    31   1       31.80219439068453      7.0109004113829343      8.1845587340492791
    32   1      31.131096970227034      5.1719503889961587      9.8633893173864351
    33   1      37.158928110591063      1.5289472656055492      10.026327265982035
    34   1         36.819146960881      5.3570408703514119      10.200280371245615
    35   1      42.071924431720419      6.9478943404746314      11.850239266024657
    36   1      41.661230030676769      5.0713946937254608      13.430472824578153
    37   1      45.571159286708451      3.4681969641951489      12.940009907899329
    38   1      48.051070519729883      3.9349866151574027      11.701087660654457
    39   1      54.984989757513446    0.021604983776645253       11.98674931537408
    40   1      49.183986266792807      6.5273348182248867      14.079054807162546
    41   1      3.5136552451656673      7.0481067328950013      9.9706938093663826
    42   1      114.08289026465597      4.1829770837691225      14.302306057188474
    43   1      7.8621333566185543      2.1452014544643925      14.986393477333907
    44   1        7.48779381382304      5.5107156453977417      14.839887404159452
    45   1      13.452496221222527      2.0645679747128094      15.127340018241677
    46   1       13.57872056048811      5.4831722457587651      15.071043339808787
    47   1      20.500051446508834      7.0487115865629884      13.291253496893374
    48   1      19.011007710370873      3.5284443299437647      16.837467376950254
    49   1      25.364425796120035      1.8548220908277562      14.937091279127905
    50   1      25.343137613033061      5.4154280577593195      15.181770480191908
    51   1       30.51889810094929      3.4067464896143398      17.085316552752037
    52   1      31.146299981674868      5.1130538654268589      15.207431736970756
    53   1      36.244618374271234      7.1253643959128183      17.206433414469629
    54   1      33.018997669947687    0.080453948623789087      16.111341639019575
    55   1      44.091132526399534      1.4871416883458148      17.942787855105028
    56   1      40.937737874268791      7.1050497122133498      15.145641749122291
    57   1      49.072782614671986       3.269486219231275      19.996704666751445
    58   1      50.765815149092596      1.7736234565498881      20.948498424925738
    59   1      56.418361499000518      5.1666291274487728      19.696076769392857
    60   1       53.63432522143242      1.6450394299969544      18.429565574619442
    61   1       2.503897972517803      1.8001576238669852      0.4060022473745164
    62   1      3.4293812620306547     0.34247716638052644      15.725244145132766
    63   1      7.7250946495947028      5.5413703657755722      20.710479021481571
    64   1      13.598848948198135      1.9915375860542133      20.719582805374408
    65   1      13.608001100599903      5.2903793960795875      20.701718678450305
    66   1      20.100615917776995      3.6114017825196831      19.354320245199176
    67   1      20.651806202271025       5.358669378227396     0.33543947637291105
    68   1      25.170119392422581      1.7711958649524275      20.640957595646192
    69   1      25.150659245739799      5.3815091709953089      21.239583563790273
    70   1      30.969877339364558      1.7904552098742401      21.285318229256195
    71   1      31.032088703911775      5.3449403183724158      21.086301815077029
    72   1      36.640840745401157      1.5888543635472201      21.447932493868294
    73   1      36.735532196825979      5.0339663305001965       21.44161160380985
    74   1      42.776444827509884      1.4721093565161367      21.549659150941313
    75   1      42.917291611549416      5.1607567614129879      21.476890300880523
    76   1      51.010185418193849      1.8166632643976646      3.1979783414474574
    77   1      47.520871754048692      1.6936539040334189      1.8960253430734624
    78   1      54.916457606008365      3.6199978449000803      3.5748678056368202
    79   1      53.849707605183859      6.9721061545101222     0.28331129533827909
    80   1     0.37300720792672137      1.7333613375663002      18.458155500386251
    81   1      113.82150138208964      3.3557947537486497      20.489303026837565
    82   1      7.8963794572098411      1.6936110240318727      20.477388606063787
    83   1      5.3971777856414356      5.2799613022395855      21.851815723323515
    84   1      11.284544829949992       1.843796842560911      21.715917474705591
    85   1      11.328643931268637      5.4821220727679414      21.951614966343936
    86   1      17.574430486653984      7.0766216516840021      20.154225282470428
    87   1      15.992055611228146      5.5122183957235258      19.789661368369014
    88   1      22.953571848117669      1.8140496049188424      21.959618990474912
    89   1      22.993292338715815      5.2637728989608172      22.203450450709891
    90   1      28.812449697199941      1.7580471951606289      22.256652255503951
    91   1      29.054993385139358      5.3806822442071356      22.312960925173599
    92   1      32.283949226302582      1.6465364884250302     0.88076595025462523
    93   1      34.355638533039389      5.2260309126382101      22.450725311554368
    94   1      40.578889890794734      1.7669926274431604    0.024158802934020132
    95   1       40.43778540174258      5.1905556070528585      22.630320081579633
    96   1       46.75988177137755      3.1186369922337529      20.744565648253833
    97   1      45.852785740585055      3.4542033150251177      1.5790633153777214
    98   1      53.183375923004817      1.8416081486956883      4.3719529945696056
    99   1      52.957860964761643      4.8404934125855608      4.2004508439512493
   100   1      113.45955483884401      5.3094220582354845      4.8640387147356803
   101   1      2.2100419447690256    0.020188856228201092      2.1376837246312985
   102   1      5.4054506249367957      1.8273748839946282      4.8213487659716314
   103   1      5.3741146830491013      5.2613112239761186      4.7591696126342962
   104   1      11.235432887718689       1.964893321864515      4.7555076543264452
   105   1      11.417834394672843      5.3228890139607934      4.9162157395938326
   106   1      17.170070483404203      1.8754538897492039      5.1361906962322346
   107   1      17.099038224821655      5.3877193773718162      5.0146755094021609
   108   1      25.220129272446329      1.6940112817386832      3.9799608986615054
   109   1       19.46820166902863      5.4371989969410448       3.831335119492707
   110   1      28.730223807222089      1.6465290236116823      5.1046955929200699
   111   1      28.877874953258246      3.6525397734458016      3.4828611937114027
   112   1      34.932139847943127      3.3992383661268453      3.8089041613752292
   113   1      33.804079323412125      3.3856019583815242      1.4420311144369005
   114   1      40.346819912242339      1.7274509673685017      5.5589131053579655
   115   1      40.333829217683693      5.3675147608087226      5.4128623451767313
   116   1      46.991641559554864      7.1936080520796706      3.8990388666904225
   117   1      44.728308328849927      6.4929257582006814      4.9739941668802317
   118   1      48.060075397160453      3.4200388775941448      17.526513198968647
   119   1      55.312830675067907      4.8859158669324714      13.833660440624817
   120   1     0.86401742560821115      1.8834811033630798      7.0185307116875313
   121   1     0.75720706013323791      5.7256553741405565      7.0737189178616022
   122   1       1.407440957009839      1.7849459614060164      14.936850262479817
   123   1      5.1206035862309518      5.3958092321743365      10.412760951557472
   124   1      10.883884426530356      1.9403036441793315      10.602520853881639
   125   1      17.330302201797092       1.699575300887491      10.601732074512972
   126   1      17.002395330104239      5.1370319816638412      10.559978265358678
   127   1      23.374458140902906      1.6576597510583539      10.355516465868281
   128   1      23.309263136768973      5.3573099875197707      10.428431158019432
   129   1        28.8753503022795      1.8247631050670541      10.513963099753823
   130   1      28.904201378362131      5.2658203829573695      10.803703936214028
   131   1      34.617857906789325       1.654184498415797      11.049656489754801
   132   1      34.652591030477979      5.4796395840443743      11.240499271559926
   133   1      39.801294630589481      3.5092983226544576      12.686195889715796
   134   1      45.495392497268803      7.1470042005952719      13.196927523341012
   135   1      44.469897660848865      7.0659527936632642      10.806616278929114
   136   1        53.0428119208065      1.4950519562015752      12.665996802187406
   137   1      51.603363970848925      5.5282811688120121      9.7895224894268384
   138   1     0.98548523803879551      7.1804067604448454      16.782365535623097
   139   1      5.2004164105986499      2.0575270593021466      16.168257354243703
   140   1      5.1068986997465595      5.5133715719553331      16.079579542583566
   141   1      11.133074848351999      2.0142796064642656      16.166697522868429
   142   1      11.288260717310202       5.593706355221391      16.146172912815988
   143   1      19.689586404529347      5.3015660716716635      14.905032825055853
   144   1      17.217020867996521      5.2025401609297202      16.393074237082153
   145   1      22.995023446741435       2.012146750125146      16.231762223489202
   146   1      22.919573896379433      5.4000871607212444      16.135037022340473
   147   1         28.858478976407       1.706230452261386      16.348070589766937
   148   1      29.012707476373599      5.4891476281891425      16.354266174943017
   149   1      35.368032326674545      7.0995950010619699      14.976987673095257
   150   1      34.530913867330447      1.7027307709390405      16.862740384400887
   151   1      42.847669300382464      5.3582654559866185      15.843739633020261
   152   1      46.215543135997223      1.3693052544246715      16.990405008926427
   153   1      47.349048256280639      5.2672162544387193      19.153431902089636
   154   1      50.574231330052456      5.3203224334510546      19.589715524088604
   155   1      49.756455573532783      1.7487101503674511     0.50129543849433755
   156   1     0.88666865607120349      3.5889429875989567      16.581054658134565
   157   1      3.2405589927107266      3.6903914071473967      21.143595408821323
   158   1      6.3359375390650889      1.8684989064229995      1.4269411733108996
   159   1      6.3359707399123497      5.4972345935537552      1.3597479761928324
   160   1      12.313980470631073      1.7754429923463482      1.3953635020095216
   161   1      12.349116750633545      5.3788528215788816      1.3745039767245588
   162   1      17.704802510532449      3.3676939943909447      20.066034269169069
   163   1      16.569672570919408    0.098079063308780232     0.78221382896718894
   164   1      24.244266309191488      1.7796874676848526      1.8673483057902565
   165   1      24.059336267999193      5.3789855317973485      1.6027410539796954
   166   1       29.74243423041333      1.8410359519629145      1.8303027287367719
   167   1      30.022716434172235       3.637420346418871      6.1427120633919641
   168   1       35.46287182500604      1.6082992265453302      1.9864534210626497
   169   1       35.62632002331268       5.286089205079251      1.9680728786828501
   170   1      41.629076941238132      1.5222870226973431      2.2580112674468555
   171   1      41.325765288832173      5.1940233859909579      2.0725756530476018
   172   1      49.827488394555438      5.3414538274746404      7.2011969862254732
   173   1      46.658621954252105      4.9575980316937631      5.5539015448323781
   174   1      54.994618054676941      1.5211199756780853      7.2364475175390384
   175   1      54.340975358407583      3.5352190618866324      6.0562333245714868
   176   1      1.2462600135526281      3.6832588799412487      5.2243698682181323
   177   1      2.4359619093938814     0.27891910227618588      7.5297677196175945
   178   1      6.4949345033603594      1.6196291958832008      7.1102262828435441
   179   1       6.678823534366118      5.6276519820191613      6.9458639696087179
   180   1      13.115064542735565      3.4498054596869667      5.4930335539695694
   181   1      15.651353128467635      1.7070552358107978      8.2819543932644528
   182   1      18.386419754568202      2.0961845633532934      7.4341036762654369
   183   1      18.115872101770076      5.3811141741553108      7.2799598609650378
   184   1      20.430768305389318      2.0275711209498639      5.9390924502597722
   185   1       23.64426875888612      3.3605128175909207      3.5819476555408163
   186   1      29.258147452095507      1.7884063006773883      7.7799184514848152
   187   1      29.337400498591951      3.9185099718921288      9.0045720120867436
   188   1      37.458301320719379       3.573528008181845      8.3777274830428379
   189   1      35.708420747805398      5.3963409549090295      7.8981501669272953
   190   1       41.41566070904652      1.8742033691485038      8.0008453357339828
   191   1      41.536249504106792      5.2188591353809342      7.8795933907653843
   192   1      44.836257837404972      1.7216594788082338       8.918955423568546
   193   1      46.882611960477412     0.02446456981157236      9.6138824970516108
   194   1      50.274647720289046      3.2515515637296444      10.838572236641381
   195   1      52.200451933365578      7.0729960169320467      11.347027622770121
   196   1       111.3303367276047      5.7473436145077619      11.331511660370467
   197   1      2.9907303972183534      2.0017653437123424      11.744583232431694
   198   1      6.3933102470466983      1.8763369670097385      13.012712585220758
   199   1      6.3767006758667497      5.7909301245225819       12.62109215764054
   200   1      12.252025797570056      1.8609846407882091      13.049364209946516
   201   1       12.20695477086455      5.6786394644130302        12.7866171961108
   202   1       18.69053032701364      1.7890656687424822      12.747717053108024
   203   1      18.578525547441412        5.36699811013907      12.807204808195369
   204   1      24.292680909246553      1.7335609730254249      12.731551648003803
   205   1      24.363941161894932       5.335665921018415      12.765556731435623
   206   1      30.250043420128122      1.6280777460426592      13.239782365324629
   207   1       29.86074014400053      5.4140584670865124      12.910808721580691
   208   1      35.104890100713611      3.5366906329524586      15.077016171912382
   209   1      35.769679587922148       5.281879632754312      13.279115701272923
   210   1      42.248078952203329      3.4397099498865393      11.786338027920252
   211   1      44.957260056862751      5.2496543711538344      14.716296036319076
   212   1      46.651568956106651      3.0849220485818862      15.306076324680811
   213   1      47.812753428440203      1.6783317792835162      13.350722579882381
   214   1        51.6682389453008      6.9564609332423704      13.876075946559315
   215   1      53.576644236737252      5.0406448347204025       18.56606567145754
   216   1      1.3540299520958108      5.3574462912771201       20.70133945776886
   217   1      112.84763188104606    0.093027440600420452      17.841889521936167
   218   1      6.4155727362965234      1.7403961399744889      18.356695284971469
   219   1      5.7560479637519766      3.6478188698916569      20.081271222624608
   220   1      12.301082567777753      1.8267117670342501      18.420525010962663
   221   1      12.333337498136338      5.3803272442009931       18.54758297901758
   222   1      17.152236092642291      1.5506160819969483      16.220024429249062
   223   1      24.129007373114231      1.7552209141516677      18.527964670056711
   224   1      24.373977333498864      5.3818898781133502      18.680251190561918
   225   1      30.026168131931463      5.2665862587377079      18.658340622404616
   226   1       35.81017659915166      1.6936155116568423      19.171562481680162
   227   1      35.735368215435216      5.2428965228530195      18.874931528694802
   228   1      41.669185871018726      1.4659956221117576      19.272255897499491
   229   1      41.458828622576604      5.2710098757869899      19.424311374635785
   230   1      48.506563835321451      1.3945879807001431      21.473582986629435
   231   1      46.195220783758302      5.2613436179627904      22.741629423330846
   232   1      53.338741949281321      3.4657148908429196      22.496094270498475
   233   1      54.203285515570485        1.73113017123615      1.7661357690327839
   234   1      1.8586507235145977      3.6321848370849579      18.861070084130343
   235   1      8.7911075899463142      5.4376051566005392     0.11296280609339157
   236   1      14.630664658400566      1.6029074619888017      0.2619456935894342
   237   1      14.862705949240359      5.3958721571734456     0.32992124040415799
   238   1      21.123563601087088   0.0001286221673571625      21.555801025341207
   239   1      19.109223088046278      7.1414278463464456     0.10742495986234503
   240   1      26.424444974051621      1.7137593354918159      0.6845528095978185
   241   1      26.542654232608815      5.1276900626383259     0.47555564041120546
   242   1      33.241649655750045      1.7683458360936257      3.4028276368244357
   243   1      32.284639994483143      5.2654096158193893     0.63896152263699979
   244   1      38.088466651082619      1.5657059632946237     0.82492930338803061
   245   1      38.115996901844021      5.3464642221970253     0.85194595059179867
   246   1      43.876315472799462      1.7916203325129689      1.1821248089527896
   247   1      43.972711808789583      5.3440292669250899     0.89616722264832194
   248   1      47.924662540318756      3.6751698006017031     0.26912284737274594
   249   1      49.145603012028239      7.1531730461485665      2.4955204351844622
   250   1      56.098165147128888      1.6678206484453044      4.8373564711551538
   251   1      55.683331250187621      5.5339137881646652      5.3645405006545346
   252   1      2.4518270570382419       3.995365211558886      7.6639666318184636
   253   1      3.9698218127532567      1.8665207341465329      2.6826866671153287
   254   1      8.9251576855962576      1.9888437374173236      5.9513646188451519
   255   1      8.8620823589724136      5.4652956439205704       5.781560712235426
   256   1      12.818952056372453    0.051669965140547731      5.2767285203465102
   257   1      14.496150004471756        5.38183976183418      6.1104506643404033
   258   1      21.088905634466283      3.6586479996788319      4.3487612851669111
   259   1      18.637516912272496    0.090971004451816467      5.4964408652945504
   260   1      26.616257997668313      3.6263648537244326      4.9630588561354418
   261   1      24.333431633030028      2.9356478825465171      6.5113440593563787
   262   1      31.146196734310777      2.3387537526068645      9.2672236756101718
   263   1      34.521754421377693      5.2184446243587681       5.440162315566897
   264   1      37.969003857314334      1.7341829562897642      6.6232760369868933
   265   1      43.946829723350234      1.8885710258801451       6.702328062075642
   266   1      43.804872122536885      5.3058967973885274      6.7362933788018697
   267   1      45.730602893626298        3.48532128818136      7.3985029959016195
   268   1      52.519477982275397       3.557510329602914      10.938924712063447
   269   1      57.228619562629177      5.3073138184279509      8.6330978189898424
   270   1      114.02757648318438     0.38636235573973043      8.7408232303955806
   271   1      3.3798058201723791      3.9570442826093535      9.9065048700398197
   272   1      8.7873169000331544      1.8548702610264045      11.904760315795595
   273   1      8.8475504357416561      5.7236406404481786      11.699783920963455
   274   1       15.36930005087306    0.060914903394526092      10.412465085396159
   275   1      15.250802183470068      3.4301532497085785      9.9401914368477922
   276   1      20.781297661456115      2.0078554644116804      11.511494655423398
   277   1      20.598759102475757      5.4078737060405624      11.559587892793306
   278   1      26.474806099653421      1.9052392218753864      11.451744578829819
   279   1      26.828069965074651      4.7780181008037284      11.492434364945085
   280   1      32.378236705209105      1.8278937995344569      12.086454790602662
   281   1      32.216920191158273       5.308913185734208      12.038438257125524
   282   1      38.031336357796214      5.3619988142024466      12.477743091293892
   283   1      37.062439863900742      1.9351333490798786      15.457960313652247
   284   1      42.618908909665031      1.6985335270966682      15.874889527041585
   285   1       41.53248266164109      1.7269322454730092       13.60692963768749
   286   1      52.493060774051024      1.6041983098883628      15.188353551471671
   287   1      46.207099952396469      5.2990873142015218      11.185473664155836
   288   1      52.986845805119721      3.3185946725008857      16.814606652427706
   289   1      111.27365377350509    0.009325077592435619      20.719298211455335
   290   1      3.4155550162813029      3.8672984552716616      15.742398593958807
   291   1      8.6301225464960076      1.6944785420392992      17.181953792233912
   292   1      8.7027404877465901      5.3449736410566535       17.44932907711943
   293   1      14.354833890037183       3.511925797424341      19.102341042869334
   294   1      14.657089001230799      5.3695859633428613      17.576897321850794
   295   1      22.611169202331912      7.0257249868706282      18.051658771920835
   296   1      19.582118455199616       5.482777033283055      20.941930226924317
   297   1      26.587931503094193      1.6564534350754898      17.573877402168286
   298   1      26.561363108982533      5.5983015515218426      17.306784383257874
   299   1      31.153618961086888      1.6600084548397325      15.361015772723221
   300   1      37.930772285310724      1.8660447828710387      17.664617506474826
   301   1      38.186929530734169       5.287018516328275      17.781060274814809
   302   1      43.976921052846066      5.2013848295728771      17.953670798447057
   303   1      50.124140700545837      1.5814730472715748      6.7994928811202806
   304   1       49.49193636816009      5.1828790016425623     0.93842560998036328
   305   1      55.195108649713561      1.8002299604912992      21.966683258448374
   306   1      55.229732513119806      5.1356321653051884      22.041661296828494
   307   1      3.9624194461313218      5.5717133475525769        2.31403183750502
   308   1      3.5954147946992858    0.029616782899532585      4.0313060793432687
   309   1      10.127607548666877      1.8547649959317656      2.4220517838527673
   310   1       10.03261954717685      5.2628711281482943      2.3625789973537024
   311   1       16.19399232046861      1.7660425216016822      2.6931855040321016
   312   1      16.120850881721097       5.549485869731134      2.8854148082146618
   313   1      19.417381661085109      1.8161983768827668        3.70251316709779
   314   1      20.072128606336168       3.600155454789816      1.9602184315947841
   315   1      27.442069272233873      1.7628854757238204      2.8854689651441388
   316   1      27.312569066137375      5.3606002724082042      2.8803731141821749
   317   1      33.172395009771307      5.2535274739636018      3.4519296343227919
   318   1      32.268302742373628      3.3451572012741551      5.0194343132973662
   319   1       39.12226290785506      1.7467451262006888       3.155741689831808
   320   1      39.214634230069812      5.4211389593548995      3.0279219599476943
   321   1      45.203947609074604      1.5684514094113402      3.2173419787147215
   322   1      45.101202750708929      5.1344662056543697      3.2514666755904149
   323   1      52.522531523281579      2.0321924086712899       6.841630819313262
   324   1      52.582799210211327      5.0942138429800483      7.0180468025538127
   325   1      60.052457294634564      6.8428803735492236      5.1752617593791923
   326   1      58.261844597938435      5.2358854500889178      6.0785681165044325
   327   1      3.9166759928878307      2.0307874254665412      7.9044652173144403
   328   1      4.0138050082573704      5.4586012651009232      7.9776123790392646
   329   1      10.197557347540567      1.9078009248588357      8.2237186868314023
   330   1       10.16759230774802      5.4072464227317267       8.023475690478918
   331   1          13.06133535251     0.11377691085611602        11.1605349544931
   332   1      15.565325374375014      5.3637492053507829      8.2992349262878413
   333   1      22.034756853082399      3.4509303856905498      6.8900433442069327
   334   1      21.980399234685873      5.5047879995290012      8.2972828817610313
   335   1      27.762605828820877      7.0003369554461923       7.065484187279341
   336   1      27.367742506871931      4.3939108931773756      7.2651670114959028
   337   1      35.481549745477729      1.7402869157145415      7.5928383868713407
   338   1      33.534463536440271      5.2888115394069448       8.829849830091133
   339   1      39.114414653116185      1.8374297883272133      8.6244166573337999
   340   1      39.023868886181532      5.2874239411980151      8.9664916351573147
   341   1       42.61846347515224      1.7258065420381132      10.152439502361826
   342   1      43.177455725506043      7.1549819930553058      8.6305407990232759
   343   1      50.327662507886373      1.4657415708522967      12.765382031941488
   344   1       49.15599044181215      5.0858208471058619      16.040703944102386
   345   1      54.742657308359284      3.1829940645376733      11.886984949424592
   346   1      53.083855375911021      5.3467811200526381      12.715142599466864
   347   1      4.1385476626624458      5.6234631238587216      13.905617978577846
   348   1      10.152591620040347      1.9647477978649301      14.000552823804993
   349   1      9.7405313043665238      5.6562926911894733      14.076864530816616
   350   1      15.999738454423133        1.99476768527417      14.021483374769154
   351   1       16.09457507602642      5.2858313101182812      13.976457304342437
   352   1      21.818798660121033      1.7514858143188692      13.915315717501505
   353   1      22.544525698065783      3.7009855603374526      12.136349606060955
   354   1      27.707664634020844      1.5322207388508817      13.946521167856922
   355   1      27.638926565412444      5.4226453822595007      13.786385908431111
   356   1      33.477492911442049      1.5245711627301337      14.498681776670223
   357   1      33.504555811178896      5.2304616640941095      14.245838870848548
   358   1      40.622719807883378       5.309606103340661      16.961007115899136