dump/S5_s00_n130_r1024_400_0/steps_1 (written by ASE) 

1584 	 atoms 
1  atom types
0.0           114.158223526  xlo xhi
0.0      7.2199999999999998  ylo yhi
0.0      22.831644699999995  zlo zhi


Atoms 

     1   1       2.198636902729926      1.8915589871989411      4.6422228434816226
     2   1       2.109085482886814      5.6179019799402594      4.6721646274559143
     3   1      7.9317626899214835      1.6512627950733823      4.4752595742686099
     4   1      7.9536872177659417      5.4150797533475146      4.5531061566391324
     5   1      13.678775505451604      1.8816971174774539      4.4574136843353722
     6   1      13.634389249205768       5.432158295168322      4.5201906522852831
     7   1      19.478105778057234      1.7742756093855885      4.5595434402049584
     8   1      19.640259367209268      5.4009121236655693      4.5386485675522668
     9   1      25.251391698526369      1.8011784337320527      4.5397928371412561
    10   1      25.227020188121465      5.3504879779228336      4.4654090088126894
    11   1      30.716683898577568      1.9364494200191058      4.3917698845582276
    12   1      30.936829166136786      5.4825207413905623      4.5156774125158599
    13   1      36.466568886700706      2.0748332292331906      4.4608639943566981
    14   1       36.62186350795816       5.553232058353764      4.4268555353657311
    15   1      42.454264032597031      1.7646761232259895      4.5693952672827907
    16   1      42.365644969107507       5.482002815148534      4.4855836558664324
    17   1      48.062486974161168      1.7375929607922709      4.4639406186999269
    18   1      47.985667093540322      5.3449986638369946      4.5763855596187977
    19   1      53.796092441516741       1.814454806451947       4.769812912825568
    20   1       53.77178247124376      5.2994407568489539      4.8047676356507445
    21   1      2.1999981674213691       2.002754854083888      10.369264418190355
    22   1      1.8586499843492099      5.4758287775048604      10.252818652416254
    23   1      8.0500677854093254      1.8350573916506425      10.365594741378295
    24   1      7.8711870813770064       5.397547850940037      10.356741129027876
    25   1      13.745930821733603      1.7766322614714067      10.142978946113251
    26   1      13.651854738727403       5.373069520259353       10.21534073643531
    27   1      19.385640321429587      1.9198663425388256      10.133737695262917
    28   1      19.452400457489684      5.3170207259210942       10.21322606774781
    29   1      25.176688096207478      1.8556295859720373      10.116257743554186
    30   1      25.204837192180058      5.4749613808415614       10.16649406043515
    31   1      30.631749739966626      2.0814489391836632      10.099124839741696
    32   1       30.87102103455803      5.4662655976588335      10.218806848362577
    33   1      36.534670203020347      1.9983780787484304      10.266609108832112
    34   1      36.380355723158445      5.6707560555523635      10.101335932287272
    35   1      42.281727414260821      1.7939889286237054      10.312900290175259
    36   1       42.20923480222956      5.5468244606142143      10.308846215694819
    37   1      48.083260383898647      1.7392726760349846      10.487904933977939
    38   1      48.234530141643461      5.4895007746276381      10.281751115319778
    39   1      53.807897939568235      1.5249417672477079      10.377164280890062
    40   1      53.888280237171912      5.3699051751256883      10.344723794642332
    41   1      2.3197608929292564      1.7116852918733965      15.852056373359236
    42   1      2.2632000250019582      5.4022070620942868       15.78508258033928
    43   1      7.9736836424050974      1.8787683619194866      16.144774071601276
    44   1      7.9280693663262776      5.3137009358173879      16.124417415811692
    45   1      13.671244771289514      1.7225489292010909      16.035810611648188
    46   1      13.716372619831594      5.3870517549566435      16.058165282216343
    47   1      19.275523745121962      1.6215681973643719      15.878326368567391
    48   1      19.270735601141165      5.3426582968069001       15.96481256367356
    49   1      25.089222216955296      1.7763977457764533      16.000955706113892
    50   1      25.202090115988817      5.2716120859344393      15.745412960790178
    51   1        30.9043097555674      1.6911736147829068      15.995946346020595
    52   1      30.866574949266877      5.4966764239424357       15.59646386670922
    53   1      36.579252654931459      1.9604300208570435      15.925044498661924
    54   1      36.605771140675387      5.6102666172537372      16.091679985431316
    55   1      42.288054179731652      1.8575987573873831      15.915190807889037
    56   1      42.303881033485403      5.4503521870091793       15.97965270695914
    57   1      48.081312006505854      1.9398263223462897      16.003403227877488
    58   1      48.026259931668214      5.4753632121871982        15.9315192620501
    59   1      53.736418283416185      1.8006637491027737      15.981177029485627
    60   1      53.759879237797712       5.557170540561148      16.012790605047883
    61   1      2.1427897515673924      1.9883014514516983      21.450419316572734
    62   1      2.1417816507487153      5.6448699851951298      21.535558505918107
    63   1      7.8231502388158534      1.7413389666119461      21.801635823073575
    64   1      7.8222806859396217      5.3367421553611596      21.823272981992144
    65   1      13.715027114207363      1.6415458821598194      21.815414644626081
    66   1      13.757438307339427      5.4520214516356793      21.546056395051327
    67   1      19.352396082254426      1.6291687180455214      21.765787924989233
    68   1      19.266861389770728       5.280984621179968      21.516623996088001
    69   1      25.601171579947049      1.9217801571825632      21.491401302485684
    70   1      25.192040721015353      5.3426744748458832      21.712056573953248
    71   1      30.943192831695001      1.6784494651831938      21.510022857067202
    72   1      31.126274217579358      5.4413549293144161      21.502457587998048
    73   1      36.566948689918085      1.8878191213349842      21.684633863667962
    74   1      36.735485812231921      5.4830815695713193      21.675650677710337
    75   1      42.493326243872978      1.9377783360208354      21.639144455321222
    76   1      42.430749486376115      5.4582881436594013      21.616271179250322
    77   1      48.079581332565034      1.7264304940983117      21.669064636237874
    78   1      47.957115951585322      5.5992858140193205       21.59844567485823
    79   1      53.958460337949482       1.691664975751737      21.743440919387247
    80   1      54.038608412973552      5.3073261396905966      21.859264514269441
    81   1    0.009464122203919326      1.5644164626585957      22.749002966651652
    82   1    0.048347312099184733      5.5416858798658071     0.13048498416317092
    83   1      5.5769209374697413      1.8209525527836004    0.059857553783897621
    84   1      5.3935460302760863      5.4242096455549742    0.022829973539896596
    85   1      11.368366712391728      1.8498910969152378     0.17566977807958042
    86   1      11.406597198813495       5.293071527630504      22.712259439865402
    87   1      17.178344049976793      1.7881390366925365     0.14208824133575162
    88   1      17.136077442014024      5.3180722676538243      22.830012913271858
    89   1      23.043922820315316      1.8473209594373952      22.636042127304812
    90   1      22.625460082477804      5.3178545549768002      22.694712606105902
    91   1      28.744175908823561      1.9010768020887088      22.738157651700938
    92   1      28.694995224029981      5.4519558770083147      22.785545109939772
    93   1      34.354893369780413      1.8770234345181351      22.792457523763598
    94   1      34.307374374190495      5.3177271399575323      22.729369116604285
    95   1      40.207721631779769      1.9135414545331515      22.831214215228556
    96   1      40.032932813420601       5.424441959829049      22.672271512032879
    97   1      45.720633887917316      1.7309433194365731      22.690760947839156
    98   1      45.817529302821555      5.5361051738654634      22.789994590693798
    99   1      51.755513555705264      1.8687285986696862     0.04481267325108626
   100   1      51.447486302040076      5.3964133668278906      22.762218576696057
   101   1      114.07829266391346      1.9798524972047018      5.8382033605542984
   102   1    0.050576009975092769      5.4325936574243698      5.6003889296848453
   103   1      5.7102199242995155      1.6664804005665683      5.8925569819866945
   104   1      5.7292462759687126      5.4762289623024127      5.9246159075599554
   105   1      11.508992939702839      1.8584451873735259      5.7164817479239094
   106   1       11.51037842546063      5.4580539643130717      5.7502993086153831
   107   1      17.181647839229726      1.8167907846713718       5.808661153611836
   108   1      17.306607909981135      5.4391642156640705      5.5191673764358207
   109   1      23.036300746432854      1.7946287366203912      5.5684225884185867
   110   1      22.775112580278098      5.5584133431693514      5.5679249416144634
   111   1      28.566435443381586       1.833099400748363      5.6232807727195659
   112   1      28.607650111363235      5.4371160998921813      5.5806999778652937
   113   1       34.42559787650908       2.109987580863868      5.6724642022046652
   114   1      34.411222414865357      5.5977080067348011      5.5662274638387279
   115   1      40.040225943912652      1.9109295183818096      5.7626244778271198
   116   1      39.996400034986372      5.3391558012623967      5.6654507948249355
   117   1      45.909263434263231      1.8551095490244083      5.6998509510052333
   118   1      45.746078568653139      5.4830446694067136      5.5357712118552573
   119   1      51.502939803250712      1.6676704807395686      5.8127826744065176
   120   1      51.441828448106889      5.3039127819480703      5.6749735563348063
   121   1      114.06845420587626      1.9231322730685334      11.191534624842612
   122   1       114.0100932550952      5.6002095039536615      11.322623824906847
   123   1      5.7070225362252884      1.7346148343375611      11.564746998708262
   124   1      5.6568938103895379      5.3213857925136523      11.505735935438151
   125   1      11.402359761140637      1.7250317942406017      11.349598512793401
   126   1      11.476527126008309      5.3257823477229875      11.439318033756877
   127   1      17.196031179070257      1.6940053469458518      11.394614209363525
   128   1      17.134721181399712      5.4077716317951126      11.241450306563019
   129   1      22.999218821265565       1.856301215174788      11.257129529568173
   130   1       22.91657734352659      5.3452532516617088      11.334475167214183
   131   1      28.540940796278083      1.7637026099488209      11.240364505114089
   132   1      28.593917310568248      5.5337105336638199      11.421746970109657
   133   1      34.389613149116045      1.9888825312195035       11.33090185416555
   134   1      34.166856542691121      5.5481250147128405      11.406233133210868
   135   1      39.923979860487677      1.9219755209274023      11.463823772859662
   136   1      39.967240254516675      5.5019485979291218      11.496105261399476
   137   1      45.732849259974081      1.7917409999677472      11.202762642400032
   138   1      45.856746181877625      5.4643773194196248      11.308757076134482
   139   1      51.469395579358562      1.7708353415823939      11.508887996570261
   140   1      51.478808033468745      5.4281809453457912       11.47475611825265
   141   1     0.10415743636341158      1.9593588785230502      17.209490112653764
   142   1    0.058334330710743267      5.3456454796650936      17.046593321966121
   143   1      5.7694774956742707       1.872041970372081      17.093290151423055
   144   1      5.7001699121566114       5.452592701378121      17.080167047813323
   145   1      11.503812037690043      1.7862717426582453      17.278035466103578
   146   1      11.337711682025702      5.3883957925655892      17.120711392649291
   147   1      17.144475830445664      1.8704226467281866      16.961397002030797
   148   1      17.045646423905495      5.3267863801566859      16.991471897729642
   149   1      22.882614063919096       1.571543331028787      17.277554217274819
   150   1      22.900418322108543       5.398503791994222      17.130250861799023
   151   1      28.757143807526457      1.8736398478048977      16.986124108971161
   152   1       28.67415619888757      5.3001025947336986      16.915986522429105
   153   1      34.417969026169459      1.9339388623443712      17.131641915431281
   154   1      34.463848280111591      5.4973907435793885      17.089023544707548
   155   1      39.951991493632313      1.8474185846051729      17.015245974442124
   156   1      40.058169026754641       5.552124243835161      17.039475514849119
   157   1        45.7592867746758      1.8122653187464413      17.053154884825911
   158   1      45.735840806283882      5.5058810469028563      17.058795845274091
   159   1      51.577658869601493      1.8105943491262686      17.138196776469542
   160   1      51.437171713296713      5.2254969795726458      17.175377321264673
   161   1     0.94578753892271028      2.1999342173760277      2.3306255813300343
   162   1        1.17210288930646      5.4441818856070299      2.5082476710607282
   163   1      6.6329043570056267      1.8120914165193096      2.3807009254673006
   164   1      6.6099885969624275      5.5134017712698933       2.401723780456765
   165   1       12.48356131860462      1.8487130046325404      2.3411309132411224
   166   1      12.547588816260133      5.3382574171949102      2.2830734840267217
   167   1      18.329320391110439      1.7204815062222834       2.207347251653927
   168   1      18.208778718693317      5.3116415705467039      2.2091318569508358
   169   1      24.082898678507561      1.8618091564978219      2.2275837943667129
   170   1      24.119469827131699      5.2489682364842443       2.039755914251542
   171   1      29.851760737432354      1.7597420244475313      1.9624954457368591
   172   1      29.838116264136161      5.5577561601974121      2.1681611750587413
   173   1      35.472745476498908      1.9025893641438059      2.0744770961038799
   174   1       35.51982167371272      5.4911511843472027      2.1338729621726067
   175   1      41.140717741161147      1.8925322205169282      2.3469971489829691
   176   1      41.204124193747035      5.2892493061602321      2.3228836206125645
   177   1      47.015558553410251      1.8167191973907513      2.2591427078403865
   178   1      46.919003192971807      5.4927457380049409      2.3705329735497687
   179   1      52.790719538548707      1.8051920737858593      2.2010742298023729
   180   1      52.673408900973975      5.3447039987742873      2.3155409000028286
   181   1      1.1062258207896107      1.7600971095192444      8.1007355686788003
   182   1      1.2168659840276426      5.8329662705454588      7.7421098242734985
   183   1       6.879681721795702      1.7774206886134856      8.1196147906825935
   184   1      6.8568464695995406      5.2093723908998637       8.014719513553203
   185   1      12.661446265830783      1.8190139447956577      7.9436509452816741
   186   1      12.644839903467521      5.3757578183886814      7.9049461059334618
   187   1      18.496179185562976      1.8425205515672796      8.0317744980562757
   188   1      18.355223637777232      5.5304484668948009      7.7901372789120034
   189   1      24.080926037064255      1.8342576904582535      7.6683701907751827
   190   1      23.961732491638816      5.4810776075182748      7.9146295371673805
   191   1      29.598645032862215      1.7542016991969538      7.8826798805408442
   192   1      29.745972726011544      5.5453316347851285      7.8842660051269782
   193   1      35.473487859640052      1.7765707115090581      8.0748762079385035
   194   1      35.312124168437357      5.5888198450306055      8.0024921900669455
   195   1      41.252910151611474      1.9278288422796195      8.0697045372347365
   196   1      41.223426530852848      5.4622564237319269       7.824848943625252
   197   1      46.884942397095209      1.7801712896210664      8.1394899648881989
   198   1      46.694585389856179      5.4935637666065968       7.787344580692646
   199   1      52.679791573195239      1.8400567843207818      8.1168290674283821
   200   1      52.635509711542092      5.1315997740450818      8.1363670525769347
   201   1      1.1357417357193316      1.8577985492363214      13.765051497008432
   202   1      1.0258793014821264      5.2978867067773647      13.700043471878425
   203   1      6.9518118410704091      1.6670261906830668      13.769913752356397
   204   1      6.8010770740305571      5.4196557443457252      13.853687625300907
   205   1      12.603893538996235      1.9223573256560507      13.684985726202909
   206   1      12.591090830025394      5.3176360935478924      13.797849717762405
   207   1       18.36613564308675      1.6212270516899014      13.515079748067221
   208   1      18.233155631933297      5.4753641478838926      13.655821261374916
   209   1      23.896780045026173      1.8429622893146851      13.693126769201724
   210   1      24.012474720783676      5.3075542316448159      13.618474979182309
   211   1      29.619464946697768        1.80210479508165      13.683274005210933
   212   1      29.619226209919471      5.3497084657185638      13.542568773406579
   213   1      35.510527535692667      1.8706818690995342      13.763375822088486
   214   1      35.476788560995011      5.4932101278236463      13.674774334449285
   215   1      41.186863857452678      1.8948034806458969      13.744824770797122
   216   1      41.189149652992732      5.5033139666489745      13.711552955592854
   217   1      46.814767324313976      1.7559844019923307       13.70528933008111
   218   1      46.853492655509534      5.4909264397789261      13.673075787306777
   219   1      52.732258601684997      1.6226676905163064      13.776434258863311
   220   1      52.737410559676924      5.2878414490523982      13.604603346270288
   221   1      1.0046685132052835      1.6609377066819841      19.470877098354578
   222   1      1.2348956040007171        5.43371783041274      19.333603785868416
   223   1      6.6983439753689593      1.9925730166479807      19.518068944742161
   224   1      6.7223618923197774      5.3972486215763711      19.432499737661981
   225   1      12.686818006553644      1.7587025737935396      19.508283248367007
   226   1      12.618858127065373      5.2940491341759159      19.488075738166255
   227   1      18.358069557072806      1.5832675484465712      19.200499139550359
   228   1      18.322175414790649      5.3242369002298169       19.31156212934312
   229   1      24.033019506424431       1.757574021364146      19.412171123427314
   230   1      23.931083325382193      5.4040092926416126      19.459935930542418
   231   1      29.938106904475902      1.7189460983850777      19.212541152460915
   232   1      29.737044215588547      5.4073371229158163      19.215743880590932
   233   1       35.57743171837506      1.8204295594832647      19.468196079497741
   234   1      35.533669821295511      5.5484169866914979      19.409075132390399
   235   1      41.357111721874197      2.0081241533251326      19.222126880071208
   236   1      41.256179577811473      5.3619212301349988      19.557274528009636
   237   1      46.856542435291175      1.7577977800106508      19.509087644410297
   238   1      46.890117679055393      5.5062267507130995      19.409741258439464
   239   1      52.622418701362712      1.7412930096465731      19.446142993420356
   240   1      52.612350735394394      5.3894611225154847      19.536556652166308
   241   1      3.1308537853253022      1.8633047258995377       1.162710240057623
   242   1      3.2082924858235851      5.4495549201885511      1.1940048665075591
   243   1      8.9109892924636487      1.7954785644802276      1.2822663943811166
   244   1      9.0481045686838684      5.3730649805985635       1.316845418289551
   245   1       14.87349377128746      1.9139115882117235      1.0418979934504058
   246   1      14.891285543442891      5.3966458613176993      1.0882096338255629
   247   1      20.551240391551683      1.7952735740080032      1.0056077572469631
   248   1      20.611726273615862       5.362124487802566      1.0383037399012522
   249   1      26.428547991863713      1.8000999167336229      1.0536158958149031
   250   1      26.442232315108225      5.2510696322432979     0.99548493556931938
   251   1      32.094884623206994      1.7568974748253885      1.0914939363712497
   252   1      32.092456072929544      5.5633183393549146      1.0222297973594974
   253   1      37.685322203292571      1.8953403671264499      1.0586216695375741
   254   1      37.839400409719978      5.3730781357656721      1.0721798490709862
   255   1      43.294326384510136      1.8417848649184321      1.1140348545422514
   256   1      43.452079637353435      5.3483666233267444      1.2141508995263379
   257   1      49.222416584578333       1.842291903020645      1.2202845162429576
   258   1      49.238330901061651      5.3845414605809392      1.1411602509798278
   259   1      55.160107776583537      1.4974151440682459      1.3758995045098115
   260   1      54.943200157472212      5.5416165239692399      1.4238593281815854
   261   1      3.4903061943413589      1.6810079243056724      6.9427061778177599
   262   1      3.4347694345745969      5.5218346544700188      6.9255295527116614
   263   1      9.1449557806701627      1.7841663431921522       6.827921718231786
   264   1      8.9110188566779573      5.4073617162559868      6.8932270968815539
   265   1      14.868506870064875      1.8031128918661419       6.748532748874684
   266   1      14.909164800624721      5.5235789078074466      6.7061903499162021
   267   1      20.578253334317111      1.9100083465345599       6.772768666664164
   268   1        20.6197062059811      5.4407587183653678      6.7250332112387223
   269   1      26.408761588218212      1.9679262840661402      6.9782446835074925
   270   1      26.324656105342648      5.3704595396115229      6.7627788571208924
   271   1      32.015766189233894      1.8934572105751666      6.7296501904880159
   272   1      32.055162832807433       5.477824369725151      6.7611090261498665
   273   1      37.720350141434132      1.9568599376783764      6.7442318037442552
   274   1      37.663808279988167      5.4947105982402018       6.767793043841893
   275   1      43.563706417049268      1.7205340044663862      6.7799530533482919
   276   1      43.545639874912702      5.3289628627793713      6.6385599013448795
   277   1      49.095565717072311      1.7800925441325415       6.768016889125537
   278   1      49.085533757428735       5.489407440307426      6.8778929928720958
   279   1      54.950696762644881      1.7673357282304281      7.0489821934028232
   280   1      54.895930269895786      5.3107314109946921      6.8773541969125898
   281   1      3.2383099101761843      1.7455511637509691      12.610156466079072
   282   1      3.2196606645427113      5.3258623511666539      12.562964893208891
   283   1      9.0855966063712703      1.7081439694567468      12.668226781362405
   284   1      9.1912904614069557       5.417808146788464      12.516027747848344
   285   1      14.789741627374708      1.8496705709567181      12.575849730412417
   286   1      14.712776209367757      5.2055175083205256      12.549046130300169
   287   1      20.615408401374559      1.7764690735789597      12.294266547282257
   288   1       20.63167474522206      5.3492975660437567      12.557770545546113
   289   1      26.227074087275867       1.703360985546728      12.336242857834083
   290   1      26.218204807381724      5.3849325490635147       12.47030183633332
   291   1      32.007159774350733      1.8330828354781807      12.369338558041351
   292   1      31.998276262855899      5.4239185900018141      12.514762829231216
   293   1      37.666777358403493      1.8956160784900966      12.665847747311599
   294   1      37.675367069932221      5.5437222828670327      12.602418542424045
   295   1      43.368788382472189      1.8273026470415414      12.637935743502219
   296   1       43.49764454159984       5.461326006018119      12.494937502898914
   297   1       49.11241213844189      1.8664215341456265      12.791829023743544
   298   1       49.31778028813892      5.5705902026338139      12.781154041489097
   299   1      54.828984317036543      1.5077720317442798      12.637287795626413
   300   1      54.947451601533537      5.3822841511445141      12.612161393135061
   301   1      3.3878248097332424      1.7566365517015416      18.124575991699878
   302   1      3.3758378283458534      5.5609918351651038      18.071981930895916
   303   1      9.0370630016500986      1.7691856539307114      18.485424250600115
   304   1      9.0912662950750143      5.4309324091736455      18.221247599584288
   305   1      15.029733280551145      1.7299902707013619      18.050789195813664
   306   1      14.694588008647891      5.4292652574640385       18.13720629425022
   307   1      20.601740293033629      1.6867100175697791      18.237924914199631
   308   1      20.643310782296378      5.3755522351981604      18.250815756358097
   309   1      26.323394037725283       1.805321894151912      18.298427285719665
   310   1      26.389797027849703      5.4283909034611906      17.973686652263183
   311   1      32.225152372022933      1.8221514781354549      18.291464345155543
   312   1      32.048565716514382      5.4688015854871841      18.136808514449026
   313   1      37.799216584786485      1.8258777088124585      18.192252354929131
   314   1      37.713451225137895      5.5959775772011504      18.240500642414265
   315   1      43.466004798236526      1.7442554018446463      18.075121854435096
   316   1      43.431133064387566      5.3633324147419668      18.261955618467294
   317   1      49.209781369037294      1.9609721189117659      18.428621396593289
   318   1      49.159119949277127      5.4779647899257427      18.122737372052924
   319   1      54.921314893814142      1.6532499620449896      18.163098054867174
   320   1      54.791612283538193      5.2521849815828894      18.211744790826025
   321   1      4.4320196532951321      1.7588527626829782      3.4123327972328044
   322   1      4.3189789198901112      5.5534092004772981      3.5087142367849204
   323   1      10.154930664598169      1.7575441345140195      3.4788656671148339
   324   1      10.248642241889316      5.3020243157158697      3.5701748116704168
   325   1      16.071063083179776      1.8379971675618383      3.5903540303077359
   326   1      15.915554966939586      5.4788409964759639      3.4647193354855474
   327   1      21.771049112561673       1.812637101880431      3.2335038311036088
   328   1       21.93069681183578      5.5530025721063776      3.2137271093792124
   329   1      27.580837046538544      1.8764848747012548      3.3094623131200085
   330   1      27.478124943851871      5.4982156317306874       3.267426774320954
   331   1      33.165551354127501      1.8158972965132321      3.3205216791820416
   332   1      33.052819500251658      5.4394051005949242      3.3090195438674126
   333   1      38.925609595588092      1.7891961375366399      3.6173107882151996
   334   1      38.920359573902878      5.4777419491485659      3.2832327211817178
   335   1      44.669421975975801      1.7923611182928161      3.2875298769870676
   336   1      44.528407748667455      5.4400183779348028      3.5002648386759252
   337   1       50.37931246708429      1.7027093301322327      3.4360452231034668
   338   1      50.335572809403423      5.3473685550835022      3.5528888224010755
   339   1       56.09024831288702      1.5147967517031091      3.5502542478746362
   340   1      55.869554140821471      5.5039262328860037      3.5843172778154289
   341   1      4.4673419183601482      1.8425538594480422      9.2517070275909479
   342   1      4.5317813963320726      5.3401843377032643       9.201613646920249
   343   1      10.190784907523632      1.7243714384848647      9.0503781525479869
   344   1      10.365054953611521      5.4133450346555412      8.9828855954461684
   345   1      16.065679886796687       1.778190696809377      9.0687746817898915
   346   1      16.132023966839174      5.4025024445396461      9.0617121270658689
   347   1      21.639037226869359      1.8630204962760981      9.1495957785386164
   348   1      21.559677359593291      5.4208114061101194      9.0898530657604297
   349   1      27.384507243445377      1.8989405399541701      9.1557549359720216
   350   1      27.467927154257406       5.273880785829725      9.0250243768617473
   351   1      33.174134350949885      1.8237651201303742      9.1553128987415455
   352   1      33.030651008208217       5.575811782163389      9.1361072657564879
   353   1      38.792293128705374       1.948389788752886      9.0213239753247247
   354   1      38.964340075452071      5.4529717188452347      9.1470328013667803
   355   1      44.413593918012474      1.8487713363557929      9.0959204453160893
   356   1      44.563712161163636      5.3826951619918546      9.0143722804285229
   357   1      50.267787659038625      1.8021944336127447      9.2200297304959307
   358   1      50.360379481227852      5.2899564869450044      9.0505758137785417