dump/S5_s00_n130_r1024_400_0/steps_11 (written by ASE) 

1584 	 atoms 
1  atom types
0.0           114.158223526  xlo xhi
0.0      7.2199999999999998  ylo yhi
0.0      22.831644699999995  zlo zhi


Atoms 

     1   1        2.06632697557251      1.6378400369618595      4.2947043704942836
     2   1      2.2415347952938736      5.2029937264248245      4.5357323731643797
     3   1      7.8107333580036391      1.6314441449971333       4.490917838678933
     4   1      7.8719595262291611       5.383526341454596      4.7165931245053105
     5   1      13.479959222950059       1.632532081937309      4.7174084414452357
     6   1      13.678773072996149      5.2313796767019083      4.5083345431360211
     7   1      19.211436641242084      1.6008747986913319      4.6313866272824784
     8   1      19.243771459994118      5.2461664611396799      4.6383687757586793
     9   1      25.095645394852781      1.8029984422857754      4.5592379175125632
    10   1      24.812018722891587      5.2924212903063594      4.6908017681715721
    11   1      30.946965225921694      1.7809835777062486      4.4316570756686717
    12   1      30.893187114911051      5.4160641907771083      4.6760449265767363
    13   1      36.645498601431484      1.8652615137840898      4.7294161442750857
    14   1      36.413434606453627      5.2816927168077017      4.5833326794402813
    15   1       42.37313285799739      1.7357373538747618      4.5283307316436607
    16   1      42.162499376025643       5.436630850097866      4.6073994813997707
    17   1      47.768818035226268      1.9270702887380131      4.5545009476911336
    18   1      48.065963422111494      5.5395565678944036       4.703950487162186
    19   1      53.910124869718516       1.867029874714154      4.4559912080343755
    20   1       53.89033089095809       5.521027641051254      4.5655453154835444
    21   1      2.0992882463304499      1.7116842391640401      10.120430594757925
    22   1      1.9190660330390132      5.3554661813154718      10.211279367248864
    23   1       7.793293362290056      1.8186668063686933      10.506693067313353
    24   1      7.9181787442950426      5.5065230020839833       10.22806923499512
    25   1      13.603422777176119      1.6040653431229221      10.398182758077366
    26   1      13.715642859113165       5.240641745815485      10.471808360695425
    27   1      19.460851095208817      1.5842441382377819        10.3028963968125
    28   1       19.31883470864565      5.3261526846002214      10.428407627052733
    29   1      25.105915502164336      1.7959034793368542      10.379066173903555
    30   1      24.893551457994761      5.2147631630173139      10.054107932460914
    31   1      30.717436598081498      1.6595417677744544      10.559131242532651
    32   1      30.823267365354134      5.4666742094411234      10.246558535615661
    33   1      36.636928076938077      1.8032469100021773      10.374920107593116
    34   1      36.585080138923075      5.6266307442923607      10.431199455926718
    35   1      42.406970252888925      1.8810138760338464      10.311080149507143
    36   1      42.359505597648131      5.3756824739734004      10.271029481814292
    37   1      47.873450460427328      1.8691243546687302       10.16667231281075
    38   1      48.079258478859565      5.3921559616855079      10.265876364052634
    39   1      53.792003068115513      1.7579236606024298      10.361823332464056
    40   1      53.825064574002987      5.4620223208875771      10.184814277762278
    41   1       2.116605721650632      1.7312678820216991      15.928422229111067
    42   1      2.0576455869268302      5.3640482825157285      15.842331058204191
    43   1      7.7767751236924632      1.6919193337118374      16.051827559698083
    44   1      7.6700124862329115       5.354086388410372      16.050017354233447
    45   1      13.821096899848285      1.6774695417654311       16.02263383914968
    46   1      13.659210599499259      5.3744935508908398      16.045940544267086
    47   1       19.53270535474153      1.6196329454868545      15.924338227299414
    48   1      19.521109733365073      5.4640807768271005      15.977240039224846
    49   1      25.044072209012722      1.5929146756712633      16.136824816093743
    50   1      25.202581330346224      5.4176902099332676      16.099540194744019
    51   1      30.876783677156649      1.7380340360287796       16.01682976944355
    52   1      30.914168691174712      5.4432775865563556      16.161058222135551
    53   1      36.604578554487219      1.6693988322017292      15.982747259903197
    54   1      36.498854368687624      5.4060263301930656      16.035834901901797
    55   1      42.334380938495848      1.7445762732421648      16.073347086139602
    56   1      42.394011901208948      5.4568754197673357       15.92003897522293
    57   1      48.053179600104819      1.7234761306219613      15.988773175299658
    58   1      47.979952028123392      5.3902847892339851       15.92074876906914
    59   1      53.645124008860478      1.8878337187294458      15.851644683855277
    60   1      53.613633578189322      5.5431909371919543      16.060799642203882
    61   1      2.3153046250036011      1.5953818706897849      21.641968897585468
    62   1      2.2378062400349439      5.3408777037075224      21.471830593034419
    63   1      7.9263515787476777      1.6790262455439284      21.748951665326679
    64   1      7.8870021658875693      5.3610861337339859      21.628522798425497
    65   1      13.607738495920348      1.7947612314296961      21.765495752705501
    66   1      13.660101688364032      5.3495400662864219      21.719723954036109
    67   1      19.298507645223349      1.7981199377221486      21.813795797125906
    68   1      19.254187671492495       5.351027364622893      21.900199588400046
    69   1      25.097621577201174      1.8193099979330178      21.979079763206336
    70   1      25.173072490724572      5.3875780376627365      21.696828186133665
    71   1      30.872543826300952      1.7732942679217996      21.744430511768766
    72   1       30.90407335642519      5.5641403260293627      21.710902306758584
    73   1      36.477412942044957      1.9080349203975251      21.597536103422513
    74   1      36.572145844795962      5.4035559721724589      21.849809586652217
    75   1      42.298394272678706      2.0272537202917804      21.658803870188656
    76   1       42.16443700443731      5.2977531527175934      21.706620825196961
    77   1      48.110890384972599      1.8487044774397725       21.76104289718274
    78   1      47.987188884488681      5.5877979943531324      21.773370237703499
    79   1      53.669213308131262      1.7840046916331311      21.575490623444409
    80   1      53.779761555088506      5.4454991849354792      21.680696185981017
    81   1      114.10107317504945      1.8678169516714052       22.58095269325938
    82   1     0.30415482952167894      5.0059864997248633       0.123083820772928
    83   1      5.6654299896103826      1.7712435113052389      22.726571506165421
    84   1      5.7713345446766633      5.2097336642710719      22.774356114069366
    85   1      11.431812376459124      1.8457300125402796     0.14843161710257105
    86   1      11.259368755598917      5.2737608640282412      22.785213836784596
    87   1      17.016654249880531      1.7567736890760683     0.17636450077270882
    88   1      17.118647006275651       5.507790898397035    0.043590000677856157
    89   1      22.760874485396993      1.7055429991981161    0.092501985499493039
    90   1      22.756247796282505      5.4264383052492491      22.757634392555122
    91   1      28.483997518205726      1.8386451154815104     0.14325461804870257
    92   1       28.57412061123437       5.393938892706311     0.19588930758133336
    93   1      34.235130771187166       1.873661229799201    0.056863003463271562
    94   1      34.323162409211697      5.3435993203053611     0.11805973035713928
    95   1      39.960482381744903      1.8202597327659578     0.05158603354904754
    96   1      39.997087445229738      5.3385792759375059   0.0044190910129182828
    97   1      45.686807126162677      1.9216134289772455       22.81834185006452
    98   1      45.672436135110686       5.608312554050662     0.11869713780521113
    99   1       51.27322965382767      1.9715245579710374    0.015244487865351162
   100   1      51.304670276271665      5.3874772566766689      22.733296248586498
   101   1      114.02801264444469      1.7113785205878362       5.714822662562165
   102   1    0.030977436203731789      5.3960441490281488      5.7644976721716734
   103   1      5.6339596124827365      1.6606876499774328       5.644714684210026
   104   1      5.5687570292366084      5.2907795246132912      5.6447285934585754
   105   1       11.40210000725873      1.7398099903625077      5.8054271524163941
   106   1      11.296470578959644      5.2542386684969022      5.9136141329417109
   107   1       16.85568759772779      1.7086465024874877      5.8882424546423993
   108   1      16.965395771677123       5.312220098654282      5.6696548684190589
   109   1      22.752604891023832      1.6027745063503853      5.6879268490104691
   110   1      22.594114566650191      5.4065375971004332      5.8287869043239411
   111   1      28.565963445857527      1.8539950580308051      5.8183080856160556
   112   1      28.642553375689101      5.1997007361474452      5.7368550641149589
   113   1      34.481240868191691      1.7196853441164623      5.8790342008672223
   114   1      34.219518839677292      5.2746960960578937      5.7797296421517341
   115   1      39.883813312535857      1.7005574791803266       5.637705879881036
   116   1      39.856125239842115      5.4446112525094046       5.622376354761915
   117   1      45.595602410433941      1.9134316703523708      5.6881822757937126
   118   1      45.775322659413483      5.4343248026267901      5.5232343186857786
   119   1      51.583123748067997      1.9316468128179194      5.6647370638646795
   120   1      51.536791866475333      5.5518396052788903      5.6293148354773646
   121   1      114.13419028417707      1.7542057319535995      11.368090960804381
   122   1      113.87546361633009      5.4187903776596809      11.427157591268834
   123   1      5.4853392348329368      1.8106031419606774      11.288381592353986
   124   1      5.5813453207152017      5.4345819162001181      11.357702887463249
   125   1      11.202576382667578      1.6995989551886062      11.684982761971863
   126   1      11.409291267499896      5.4046328207233669      11.486617493855979
   127   1      17.068959930912264       1.738746126146576      11.343576669165893
   128   1       16.89785222412495       5.238411010238841      11.418937898867032
   129   1      22.747138051706727       1.612363033655799      11.445220103918208
   130   1      22.753673824281321      5.3322044358944378      11.501358606628198
   131   1      28.422336187418548      1.8624779033832757      11.338788568959401
   132   1      28.747277977904712      5.2602965595104401      11.320818285281895
   133   1      34.206122475079312      1.9044674230226888      11.466890345726952
   134   1      34.234100632314913      5.5026247216336541      11.591413708493532
   135   1      40.207925835580482      2.1315968964609007      11.465568177280526
   136   1      40.204511120204046      5.5470647964820161       11.40087047274705
   137   1       45.80697848692413      1.8681176588999169      11.416065403722676
   138   1       45.66118133439906      5.4570858957653368      11.405019926372336
   139   1      51.407747855851476      1.8047184240342191      11.356143727309416
   140   1      51.424215448979623      5.4393853490154944       11.20037839674143
   141   1   0.0039289566550498546      1.5210590044013159      17.010621571690308
   142   1    0.074236256174114487      5.1907140788855974      17.126880000679517
   143   1      5.5383435137032651      1.8066007411930465      17.078927955700056
   144   1      5.4814648322403894      5.1350799667882399       17.12751697336536
   145   1      11.468694955961988      1.6669713324284743      17.243697802048867
   146   1      11.397855719840445      5.2348055592192875      16.968923422418666
   147   1      17.282825815949476      1.8783681369190299      17.124067377328945
   148   1      17.079156530761139      5.3352741457516872      17.265661204165358
   149   1      22.745977804724298      1.7606941866317734      17.098064060064356
   150   1      22.938255558050145      5.3724426010584247      17.323016652125172
   151   1      28.706127057518728      1.6271821641509874      17.265051564490022
   152   1      28.612523992376751      5.3483538572426079      17.211643583191695
   153   1      34.375077050445789      1.7241467339233023      17.185934298562678
   154   1      34.187274303979542      5.2334702829589679      17.094212116043483
   155   1      40.009745502894049      1.7955405592025184      17.098950576047436
   156   1      40.058646986685666      5.4548589465280992      17.133822767451012
   157   1      45.769665528163266      1.8123357234362372       17.11983260256542
   158   1      45.739010480977349      5.3599874836772283      17.153512604864758
   159   1      51.295935164238742      1.8224162313967849      16.893886047915807
   160   1      51.457079464370949      5.4074851246149089      16.838560651063446
   161   1      1.1675718390220666      1.9800370673524779      2.0787464992406095
   162   1      1.4159039007540339      5.0901594730000879      2.1088856062858059
   163   1      6.9436219937052313      1.6662674114367659      2.0446031298408909
   164   1      6.9084078891945087      5.3771246083959889      2.3451136542103601
   165   1      12.620356340008517      1.6464356555632045      2.3719932740416048
   166   1      12.516922491708224       5.272883643342233      2.3535048209914877
   167   1      18.310417575463529      1.7817624649323962      2.3567239805418869
   168   1      18.121070187152323      5.3950053930595185       2.315384728589533
   169   1      24.012431175981728      1.7088696784058719       2.396561092345006
   170   1      23.642779730923561      5.3923037116632297       2.477450949726939
   171   1      29.801089006864085      1.6086256587369081      2.4165394807031562
   172   1      29.707218124235357      5.4392496878715688      2.4196271417872177
   173   1      35.447691254029586      1.6879151212038519      2.2324677335985048
   174   1      35.365380141361527      5.3699160841972056      2.4570973288657565
   175   1      41.086010125762762      1.7838576917033679      2.2198072391156307
   176   1      41.157422307837422      5.3910436053383402       2.317672174152142
   177   1      46.750371721700901      1.8069070255458066      2.3237054591367441
   178   1      46.896024931637648       5.534471192629062      2.3288015787778047
   179   1      52.630154582976814        1.96801429476875      2.2434754166729567
   180   1      52.439156415451635      5.4222354081935222      2.2953089337067212
   181   1     0.99437089519494759      1.7712687984327966      7.8939244653520024
   182   1      1.0187327785138762      5.3488928900572379      8.0317332760900726
   183   1      6.5974406116709297      1.9339617924845105      8.0313034852001923
   184   1       6.520840616333861      5.2734493812106074      7.9562007376514865
   185   1      12.458578638192021      1.6996079713473329      8.1660998408086556
   186   1      12.484541309361219      5.2392288295948646      8.2520146557117044
   187   1      18.090346831060657      1.7995460310708866      8.0060771639848589
   188   1      18.256564202559471      5.2200606858349783      8.1945343296086399
   189   1      23.849940713640812      1.7174866094469583      7.9569046396926497
   190   1      23.922713977919258      5.4536720098545315      7.8224047824074798
   191   1      29.854959108053819        1.74235402004732      8.0884549958216923
   192   1       29.79157440995888      5.4300106439637492      7.9438989003143003
   193   1      35.506841306989777      1.5790867213250173      8.1889958187750569
   194   1      35.521242436298735      5.5866252577328055      8.0748915800866055
   195   1      41.059029487434231      1.8327700274860881      7.9687341051783465
   196   1       41.18772078601134      5.3563101098755137      7.9187666580037224
   197   1      46.919902094363167      1.9639299465404763      7.9016188101319473
   198   1      46.913882533677338      5.4875072611568214      7.8949806180590292
   199   1       52.74227708066455      1.8767633439600027      7.8655710361786992
   200   1      52.619897102007599      5.4685741925932891      7.9229864937435259
   201   1      1.1390361103408688      1.6487448459993563      13.745047634743132
   202   1      1.1180353852760119      5.2543859601391611       13.70158301910412
   203   1      6.4996826241326184      1.7496851731479486      13.698086121905574
   204   1       6.627442841044604      5.5672781944192513      13.690331344950186
   205   1      12.628864885158926       1.769836262485825      13.886203165309309
   206   1      12.513543314244199      5.3247899209947844      13.758390972685005
   207   1       18.13673507886114      1.6712363352107611      13.728816365178027
   208   1      18.364748885807145      5.3434575512693847      13.724047445813529
   209   1       24.02521827941861      1.8685026126299553      13.611116989360436
   210   1      24.105805812077719      5.3235363825021143      13.527380216163939
   211   1       29.65929189407359      1.7820117030867177      13.657100710448917
   212   1      29.754806317458193       5.429114040693384      13.775595094135952
   213   1      35.334449428472091      1.7888948364341104      13.585369373432178
   214   1      35.510351335116866      5.5097223993633451       13.75486818019767
   215   1      40.995656604473744       1.926339767132738      13.709427721486609
   216   1      41.128408226774859      5.4831389561404009      13.799300602177064
   217   1      46.838777702385201      1.7242641144971727      13.691658498608602
   218   1      46.876787682641975      5.5683333029707347       13.66716667966908
   219   1       52.58954629248457      2.0629340580256144      13.491407580898681
   220   1        52.4820595236259      5.4845011883476458      13.383089863091389
   221   1      1.0151186287664786      1.5812938581683555       19.43951779430294
   222   1      1.0462927212478865      5.1250630511123996      19.404425840782228
   223   1      6.7859824200177297      1.6239790568683885      19.383715289300294
   224   1      6.8253939682069378      5.3163050994574403      19.290856638811846
   225   1      12.545636095112455      1.8269447235770127       19.49993045838179
   226   1      12.527519884252289      5.2550601123768992      19.372404070890809
   227   1      18.270317606969808      1.8528892137559885      19.547128029193466
   228   1      18.116144148426304       5.573775983646911      19.338706614225071
   229   1      24.045162538986485      2.0253161574477025      19.433005894962516
   230   1      23.956871523865647       5.312065063927097      19.552092391614895
   231   1      29.643823445227472      1.6986590834272011      19.674504008508109
   232   1      29.745865890384614       5.475286251204257      19.468291599314231
   233   1      35.421033097306086      1.7985876021923854       19.43803900460799
   234   1      35.522893962387293      5.3554711009596252      19.543895553250472
   235   1      41.092355060161019      1.9208608132769931      19.480582930756302
   236   1      40.973040228992566      5.3076789589588556      19.481855824149527
   237   1      46.891493892631452      1.7894173737498169      19.360467167193772
   238   1      47.038488001692166      5.5044808022482501      19.443908454783507
   239   1      52.562131703623749      1.8533578218011231      19.307346266942361
   240   1      52.565288704643159      5.4148054931868819      19.210335418310184
   241   1      3.4359828153795564      1.5998765681442733      1.1065056775712978
   242   1      3.3717940240998754      5.1798172864627476      1.1666070821653556
   243   1      9.1710551327642236       1.745022732144919      1.2336594343113259
   244   1      9.1312428425860404      5.4476306625031166      1.3671010459511346
   245   1      14.740853661650496      1.8069674490047156      1.1070529670905396
   246   1      14.702857853268311      5.4613180731737927      1.2149527837077583
   247   1       20.40244472865864      1.6950200495500614      1.1016171095268734
   248   1      20.470217765414318      5.4801127585057108      1.2776216369375186
   249   1      26.145062860612068      1.5354613547186584      1.2594699800319635
   250   1      26.219566747567093      5.3850847191086952      1.2339598732398174
   251   1      31.971586933895288      1.7534567047729153      1.1813870862265712
   252   1      32.125616955718236       5.431451640499775      1.1837189647134378
   253   1      37.728222441526256        1.86365565570327      1.1266070338089715
   254   1      37.671515410944885      5.1807644587628889      1.2104499975958665
   255   1      43.226007013610953       1.856763400001231      1.1781919347506615
   256   1      43.286713776977585      5.3081541799287288      1.0881090245502714
   257   1      49.093722195650436      2.0303597801638302      1.2228024814694092
   258   1      49.108236416393275      5.3778981328268527      1.2056511494050492
   259   1      54.639999285015307       1.764427104506948      1.0092397899548868
   260   1      54.726704322627327       5.621332980305767      1.1909057726009113
   261   1      3.2932346025905681       1.646730425011105      6.8252010289838019
   262   1      3.2075655638200713      5.2981688008104255      6.6290692992214089
   263   1       9.068305745482359      1.7382378871870325      6.9853319476215008
   264   1      9.0425678303352921      5.3609237294297989      6.9821374986369351
   265   1      14.574361082854258      1.8679123304669796      7.0207919575062814
   266   1      14.560936871912991      5.3727045998228471      6.7815915820086357
   267   1      20.479080848189241      1.7303961751961427      6.9597012580942916
   268   1      20.497624830359612      5.1697562810123117      7.1895537501211324
   269   1      26.201998853140967      1.7873535190147092      6.9862741298621973
   270   1       26.01469490383025       5.423658516837647      6.8099401315483128
   271   1      32.278406395855036       1.977472733062273      6.9122907869495664
   272   1      32.033684077015053      5.4971513050505774      6.8916721942757011
   273   1       37.79870497299968      1.8601479132549179      6.9519332072735809
   274   1      37.734492065622057      5.2920082301539502      6.8319707145886861
   275   1      43.293186075434861      1.8954270030155702      6.7482701229575133
   276   1      43.338877717823443      5.3192982365077048      6.7684851008959965
   277   1      49.189620901388793      1.8970710292522852      6.6853221008496346
   278   1      49.229247229943191      5.4365735018290167      6.9385034444991485
   279   1      55.024538824038572      2.0188050134560327      6.8483463995410139
   280   1      55.063084012295839      5.1828016912829469      6.8891426219775838
   281   1      3.1065959384113371      1.8394113102961249      12.489448248507719
   282   1      3.3162741235957047      5.3893106710378582      12.436050000693939
   283   1      8.8816155898958247       1.690244735274814      12.757608410154539
   284   1      8.8960650163310415      5.4651721317067121      12.433574128110635
   285   1      14.764525202372926      1.8669019137993788      12.521674170473565
   286   1      14.833573202595328      5.3477284071311502      12.720677202161733
   287   1      20.542456662166202      1.4962101801301768      12.590160674125615
   288   1      20.481558053715847      5.3910416036317521       12.74515351973351
   289   1      26.390426573529012      1.7103422222012656      12.726036528981128
   290   1      26.240975233590209      5.4010364831648898      12.370856118573775
   291   1      31.937404141896231      1.7735157268978516      12.680945681310595
   292   1      31.801291462286251      5.4048016756673505      12.538983532628844
   293   1      37.727640428759827      1.7784434166421901      12.574752968680356
   294   1      37.876042626680409      5.5090762078649274      12.631627177459414
   295   1       43.60222763533104      1.8653474858104186      12.608477927956839
   296   1      43.395984567053524      5.4885201505358188      12.617767720483345
   297   1      49.232671307298091      1.8555045812096935      12.371687934418587
   298   1      49.263456919455962      5.5539568771559074      12.452666666092728
   299   1      54.824473949457143      1.7331253469893486      12.503219843085271
   300   1      54.800361062616155      5.4664287180397464      12.601331429090887
   301   1      3.2238749901568537      1.6815703799791932      18.264331363477421
   302   1      3.2818399345119107      5.2515809173605312      18.168563783745174
   303   1      8.9383589417070919      1.5852075148546056      18.339442064525571
   304   1      9.1825985364294755      5.2795399746803247      18.179365084377203
   305   1      14.804421685634745       1.743605799776109      18.359886458418011
   306   1      14.843799307763014      5.5254793785474261       18.30254699151903
   307   1      20.452570599816308      1.7435825001344551      18.286201377040634
   308   1       20.48284289394487      5.3833760407507434      18.362483530098594
   309   1        26.2629194221904      1.7293369102070177      18.458594316701685
   310   1      26.308095560824544       5.142066843442584      18.399006547455841
   311   1      31.979136743336589        1.79870543830929      18.270548663962973
   312   1      32.132627755870544      5.3774334324430768      18.277923140453783
   313   1      37.647341308468093      1.8748080130800071      18.441726030371296
   314   1      37.651829430964391      5.3310945081601648      18.311983283532857
   315   1       43.49630430739267      1.8936494177342527      18.303804141343694
   316   1      43.358602365638042      5.4184417325177083       18.25121623818681
   317   1      49.098057543003208        1.84640194997943      18.142481566183935
   318   1      49.224963503910388      5.4452484870178273      18.155712327797485
   319   1      54.859506826161578      1.8662518703091748      18.302412644744297
   320   1      54.831854330756386      5.5766375899348173      18.161210875623652
   321   1      4.5945334815241488       1.627479465407609      3.3268325283132669
   322   1      4.4568155182813269      5.3216792221994851       3.406187928784846
   323   1       10.27226694625652       1.843082652747146       3.533026141507678
   324   1      10.148218735846394      5.3292199986806148      3.5787474293261043
   325   1      15.902406716776198      1.6032370469288053      3.2692437922054558
   326   1      15.875690106559935      5.2916103181868808      3.5066398986265521
   327   1      21.522936171315944      1.7248174144948945      3.3729725378817674
   328   1      21.550857315791514      5.4267885488844474       3.581391942661392
   329   1      27.388191070010045      1.7530864113276765      3.6406190010565918
   330   1      27.342884768276761      5.3348079049427017      3.5176367900681087
   331   1      33.106733571074599      1.6907508746845004       3.222084451867322
   332   1      33.043470197320026      5.4763409320392853      3.6510460157958953
   333   1      38.673258594165951      1.7096088721301679      3.4689043435030285
   334   1      38.853330389287784      5.4093085851753351       3.353866119263075
   335   1      44.472216796142739      1.7015155959859238      3.4576369428418041
   336   1      44.528343276597667      5.5453966603913063      3.3755834015988126
   337   1      50.223123777848073      1.9928292886060668      3.5047055373797531
   338   1      50.120067097152614      5.5959725615236469      3.4360386609179492
   339   1      55.899936175870408      1.8133380292920143      3.2233433122198867
   340   1      55.901875365323548      5.6359059103687708       3.277907289324741
   341   1      4.5131545722345559      1.8014456951822215      9.1631083681178502
   342   1      4.2376622969320072      5.3433106257764065      8.8728134728038217
   343   1      10.046093309920353      1.7441851218643361      9.2675220486341026
   344   1      10.137345004622688       5.388909478501966      9.2755597746170491
   345   1       15.93648010022882      1.7883763139286715      9.1413681908605557
   346   1       15.76717358345352      5.3818798694547949      9.0406446216542005
   347   1      21.751662420844422      1.8841132839807684        9.32263379161326
   348   1      21.678859035998503       5.205640917485491      9.3317077420156878
   349   1      27.529669435386229      1.7920833365824091      9.1056209435716227
   350   1      27.349515866177892      5.4760698759413939      9.1826412150923407
   351   1      33.099972331475456      1.9249764422044999      9.2070092944270225
   352   1      33.146612523616149      5.3418851738894855      9.2821492800099783
   353   1      38.859422497977405      1.8214069389244814      9.2346246408434425
   354   1      38.956673353262794      5.4498336487661705      9.4030594403021848
   355   1      44.705203693739179      1.8869284153607913      9.2053119172304108
   356   1      44.420766894559016      5.5131319384426165      9.0094161476170029
   357   1       50.13461023559632      1.9523736912955381      8.9914088014832814
   358   1       50.22548628953755      5.5280249190070094      9.1651893790834471