dump/Mg_500_5/steps_71 (written by ASE) 

3995 	 atoms 
1  atom types
0.0      32.100000000000001  xlo xhi
0.0      55.598830921999998  ylo yhi
0.0      52.130399999999995  zlo zhi


Atoms 

     1   1      31.996858220450985      55.356338837223774      52.111715991139995
     2   1      1.4162712398642545      2.6621059425940414      52.004461730593775
     3   1      1.5709673769895176     0.71346954500826221      2.6442578072770826
     4   1      32.009243950069866      3.5552127957312312       2.615163319782269
     5   1      32.092446889469727      5.5772009051286338    0.017044607503212763
     6   1      1.6111324092886603      8.2986599518437156      52.067636657669716
     7   1      1.6547837739195763      6.5326777184685145      2.5475525641871331
     8   1    0.010309895812930151      9.1382147243200134      2.5719104622735069
     9   1      32.085802205477947      10.987245381435992      51.936002996123499
    10   1      1.8700996129767675      13.689748534431658      51.992008248823353
    11   1      1.5269310290687714      11.857970710593051      2.2321840467310397
    12   1     0.20920932935773756      14.749335394917992      2.4203540089607847
    13   1     0.15971114924757768      16.517099924625512      51.938828316473824
    14   1      1.7401493679067366      19.189771774083823     0.16145657735656654
    15   1      1.8579735535763251      17.513888620869743      2.6521938826134184
    16   1   0.0072829472335015607      20.491167300744284      2.2320932966712093
    17   1      0.1851336496180738      22.226751990599254      52.065917539281337
    18   1      1.5664578745982716       24.93168753928482      51.985834588378729
    19   1      1.4372006423465458      23.182360762285498      2.5697852095000493
    20   1      32.035954873002879      25.762173175024031      2.4212382713811209
    21   1     0.12994983711677638      27.675857006973761      52.009963526157136
    22   1      1.4760738597063003      30.647648011235979      0.2941451987999335
    23   1      1.5706132506187267      28.580459795060307      2.5208998546470802
    24   1      31.951441571639631      31.517839337151297      2.7723993175328299
    25   1    0.042621291151902586       33.27127002063105       52.11068295080117
    26   1      1.6175996433609205      36.142620687271247      52.077739811745218
    27   1      1.2854810577971438      34.366377163977027      2.6030643410058238
    28   1      32.063668679508048      37.142208794812092      2.6520919718824985
    29   1      32.088642501538139      38.973387881052396    0.032833993382404517
    30   1      1.6757521364306069      41.723700630004217     0.44744922099122025
    31   1      1.4996140955589381      39.987798876668876      2.8498929132348096
    32   1       32.01861136950167      42.787930827899494      2.6322061292916765
    33   1    0.031838932113546901       44.65038548594616   0.0023603204434611146
    34   1      1.6336244493018792      47.237253765284876      51.829366520300994
    35   1      1.5561226607838912      45.308853222082384      2.6681113538600014
    36   1    0.040256494709265928      48.046431625082683      2.5648086567674122
    37   1      32.090008406552101       49.91626121525227     0.19452349148417927
    38   1      1.5150300327741917      52.786452259605362    0.090430425639941386
    39   1      1.5798550837196708      50.812224973180633      2.5145748005816793
    40   1      32.073497764672986      53.376932642215955      2.7565777751585192
    41   1      3.1917284719596113      55.467879754861372    0.021564172504774361
    42   1      4.6468413554852939      2.4694269510216187       52.05765487412031
    43   1      4.7371722707765116      0.7597461320655452      2.7065902705562808
    44   1       3.091441250308709      3.5427362952529546      2.7053960471847831
    45   1      3.2433614119626553      5.3596413161700394      51.732410068027662
    46   1      4.7604711514237952      8.3312479825425765      52.038821627765287
    47   1      4.5768720105712477      6.4094363141495627      2.4123769608138641
    48   1      3.2797901499393025      9.0891297409778087      2.4214064727532261
    49   1      3.2558531933932207      11.008122181194185      51.921585941727514
    50   1       4.857764509056274       13.85427798384513      51.810234921534551
    51   1      4.9591561792894066      11.749183546786632      2.5324822162810903
    52   1      3.2856763635697064      14.542474090084704      2.4576747791871121
    53   1      3.1839849183547599       16.54163028344653      0.1458794649087603
    54   1      4.8700890387747124      19.039087268134409    0.049198555766677074
    55   1      5.1694136647853135      17.475632657552083      2.6390754016897877
    56   1      3.3384457952104802        20.1568917479552      2.5995094196524722
    57   1      3.0793787553778889      21.978593455539578   0.0083188741911311703
    58   1      4.7154399818522306      24.771307605677592      52.047601757466225
    59   1      4.5919853270033757      22.731070089364369      2.4940823358376849
    60   1      3.2668432460483849       25.62570009689648      2.6044194806741867
    61   1      3.1639220029053079      27.729805311730289    0.080824585419800712
    62   1       4.541733417377257      30.624876363114289      52.126523398773926
    63   1      4.5501866897468668      28.661987467001413      2.5750258120005634
    64   1      3.2735730427535237      31.452286501789228      2.7229720566520452
    65   1      2.9510882045891327      33.307282136223733     0.18099809643537532
    66   1      4.6188235306063845      35.917524412962322    0.021531940766301279
    67   1      4.5655341560688791      34.328983731858088      2.4816581890343219
    68   1      3.2555902389554281      36.986055630264033      2.7062549787302084
    69   1      2.9150000048823954      39.084254465040566     0.12410127286565723
    70   1      4.8304638357761913      41.746795832435751     0.08976196833563338
    71   1      4.8107480216415688      39.597905398944789      2.6504675751449378
    72   1      3.1816990469232587      42.635657393146317      2.7435349758644381
    73   1      3.3138110691734548      44.477095888067367     0.10272771830281836
    74   1      4.7832184503023036      46.860998179653684      52.064065363952395
    75   1      3.1254755625714932      47.862218090985358      2.3524702112284968
    76   1      3.0470262649448401      49.918676774522496    0.094818020421006705
    77   1      4.5456808202956331       52.65637770937532     0.10149056790333666
    78   1      5.1404533139744686      50.895321215291368      2.8502182444134587
    79   1       2.949457432996093        53.6690958993537      2.6985560185531674
    80   1      6.3390519317293963       55.34487963165823      51.839073312764533
    81   1      7.9977984197842531      2.5854520134636054     0.23477822753142971
    82   1      7.6873694801726522     0.86788296966524225      2.5645027035265437
    83   1      6.3222534263167605      3.6768249897631531      2.5656687506733333
    84   1      6.4564313718946789      5.5869078938140317      52.003210787244392
    85   1      7.7624034579013816      8.5106544884528539    0.041905695609668954
    86   1      7.9109188829001589      6.3964212963212077      2.6579778483713361
    87   1       6.425401359371814      8.8798210494844483      2.6980761929819215
    88   1      6.3019037410031062      11.149033172891345      51.940025161290414
    89   1       7.890800594113049      13.628263217233219      51.931706096226165
    90   1      8.0758130833325108      12.107507867155951      2.5525054792455681
    91   1      6.3427641603312876      14.514188984884118      2.6568583489241839
    92   1      6.4557903006114294      16.540019050000559     0.35984447884148146
    93   1       8.003238563839508      19.372253079387622     0.12635928780541905
    94   1      8.2265250987829823      17.523467941780055      2.5057428518316693
    95   1      6.4277328885816951      20.141433057424361      2.6715687673862853
    96   1      6.4045706974050045      21.957230556234776      52.002910208617003
    97   1      7.7364517499882171      25.326924303807314     0.26231681634685039
    98   1      7.5970755071859468      23.291922354997613      2.8464973066434021
    99   1      6.3279138871000331       26.10988051684652      2.7496505028987226
   100   1      6.2021880500710145      27.894294416344479    0.091516161290537384
   101   1      7.8790520176262655      30.442107716141908      52.037438651940072
   102   1      7.7279762752402812      28.725433563843435      2.8234278869383753
   103   1      6.4766406871372117      31.488322907828223      2.6850460565353997
   104   1       6.386348463125846      33.079544614661543    0.042715666482342596
   105   1      8.0678955182343124      35.968855359607169     0.22838623290265658
   106   1      7.8600570702648582      34.347564179264545      2.6078761171777014
   107   1      6.4262311229661249       36.76843277420901      2.7545546087312207
   108   1      6.0313513758243964      38.589177650412289     0.12436313288356655
   109   1      8.0981441861543182      41.626324733335053     0.20392247126076071
   110   1      8.1346304605390607      39.355508774531245      2.6280851916717651
   111   1      6.3564110803828724      42.655865760266543      2.6417630203306306
   112   1      6.5032383883983016      44.355510407316196    0.035677760886620599
   113   1      7.8195519377817249      47.345740163872989     0.10459704239919314
   114   1      8.1146033626907794      45.102226583804821      2.7492179871683486
   115   1      6.4978619349304934      48.100155457539906       2.760261422662726
   116   1      6.2592857917047029      49.897619554711348      52.126330509808419
   117   1      8.0212561296430671      52.294500940600621      0.1147141606067784
   118   1      8.1565715536897283       50.99379480604744       2.842643141521036
   119   1      6.3293193952453475      53.620805818691963      2.7480206717074065
   120   1      9.4482921807969458      55.373269028922827    0.052133985828284886
   121   1       11.08212897877584      2.8371800178667876      51.783219151843774
   122   1      11.248938145685861      1.0009115596712039      2.6270526237137566
   123   1      9.4111302191849404      3.7558517154793356      2.5463487301719052
   124   1      9.5297151934712208      5.5723789708163087      52.079012011579721
   125   1      11.217612996666087      8.3115551760202564      51.895135905871044
   126   1      10.883589164654419       6.402026409202084      2.4605119722675397
   127   1      9.5289946105880219       9.370770599948278      2.5426526861351464
   128   1      9.4654845501062095      11.061498019862229      51.967283347667873
   129   1      11.208221007458551      13.782943217450667   0.0092287981399265979
   130   1      11.242978600402889      11.881058932442723      2.4950859193449761
   131   1      9.5019524553252062      14.708622641018319      2.5025841213881117
   132   1       9.500997088339334      16.655272620869937      52.031753030884126
   133   1      10.923502358767607      19.210671656998638       51.97745279944602
   134   1      11.283498173602187      17.429997989275066        2.71207169975346
   135   1      9.4273980840400711      20.660963596508392      2.5504862539379562
   136   1      9.6470320014182604      21.967947251753618      51.980514385792063
   137   1      10.885472599302705      25.105792462748678      52.081814824082606
   138   1      10.913848058071636      23.103427843655453      2.6056171416168699
   139   1      9.5722639640599159      25.880934717607001      2.6414064597218632
   140   1      9.4484924855616299      27.903033870253786     0.20011149724709437
   141   1      11.341953576479684       30.36731782910033      52.035991724089442
   142   1      11.093515846938148      28.581642647786353      2.4494818856296146
   143   1      9.6500746284301844      31.432153783322203      2.8001004326727656
   144   1      9.5741144007607755      33.420304282117876      52.093152350373281
   145   1      11.235131200447629      36.182336675959924      52.017383382795323
   146   1      11.249981816224915      34.220149300923474      2.4886795293097692
   147   1      9.8443005122286191      36.889003971745396      2.7440413493849216
   148   1       9.644862944957632       38.73526388139814     0.16013717557978624
   149   1      11.277795277250195      41.554595911416591      52.114018031455693
   150   1      11.135043459794202      39.773478029888025      2.8324757192184729
   151   1       9.658547501926888      42.245153305538395      2.5291908815779744
   152   1      9.6915260418632929      44.759435233705595     0.13791078229279405
   153   1      11.338002403263479      47.330310518329433       52.04173867715398
   154   1      11.274965683324837      45.590930041230472      2.6388980110509657
   155   1      9.6206091186927694      48.050973707585996      2.5114653070172794
   156   1      9.6801550930451921       49.81760907692081     0.25252297478196034
   157   1       11.23130752882744      52.752086807457928    0.075382897995949688
   158   1      11.312796591114955       51.13297172951269      2.6750941151908147
   159   1      9.5730588823304519      53.833101910537877      2.6934315354210101
   160   1      12.989771749879807    0.088405437420509034     0.12357549344597345
   161   1      14.345890083860002      3.0638620758925796      52.068783755447598
   162   1      14.478891350853534      1.2594437397485203      2.5240386292736852
   163   1      12.714447083159127      3.7622048728339981      2.4832724136892077
   164   1      12.761843094538328      5.6447175730505244      52.110897554968986
   165   1      14.508200184523647      8.3374840908050576       51.97343305397883
   166   1      14.327547060080061       6.406180217779271      2.6088276690212839
   167   1       12.65669160633259      9.0787470600004507      2.2140462000556429
   168   1       13.21914187143479      11.060834513193171      52.006610378145147
   169   1      14.362782525352808      13.753601098745198    0.012534374100160939
   170   1      14.466204322423975      12.060934688420994      2.5616440201234152
   171   1      12.893233392042747      14.408092435588463      2.6242006659263888
   172   1      13.011123113891568      16.489562262475609     0.14167910111702692
   173   1      14.225729815105815      19.483795408124539      52.118061347283437
   174   1      14.619166876265147      17.652093497485883      2.5543662496255566
   175   1      12.568903012342897      20.335909151325737      2.2193260840684363
   176   1      12.775039174711798      22.475122539432341     0.22143861616339772
   177   1      14.713256527526639      24.890951727145314      52.114168981860153
   178   1      14.721659097664988      23.074371250232282       2.787524950885822
   179   1      12.745253015491356      25.572526739260937      2.5267652845599384
   180   1      12.834665271553998      27.448394457077914      52.088282050024631
   181   1      14.418317586448007      30.672113476187352      52.116264262646425
   182   1      14.339983071824616      28.361235607558307       2.620017992887155
   183   1      13.045726181153883      31.242797749779495      2.5390165622421139
   184   1      12.798641411376247      33.275539251286986      51.902578028408634
   185   1        14.2422817614822      36.425133435201204    0.081062128439750969
   186   1      14.360690757754881      34.008253015789784      2.7100084906683124
   187   1      12.890329546675988      36.906503105169449      2.7027816614988982
   188   1      12.746676146445187      38.895230711735714     0.13499622000045555
   189   1      14.350850804300316      41.832988688684331    0.044569047385159495
   190   1      14.034234320516571      40.032579661088072      2.7413329748915984
   191   1      12.520190937544401      42.698678357543379      2.4810586094719911
   192   1      12.843607796417373      44.634282071875624     0.13701434984042793
   193   1      14.443972176954604       47.46632870274528      0.2822759503520248
   194   1      14.320361631691883      45.558731587754941      2.6610482874751415
   195   1      12.972433909047371      48.445401143333697      2.9686030591240984
   196   1       12.93555705572248      50.149975264332909     0.33710080557000843
   197   1       14.32565015412095      53.083139810419148     0.24850299834860359
   198   1      14.652577687159576      51.115982774946005      2.7043343016478913
   199   1      13.064935532939094      53.940344830536056       2.914079059036244
   200   1      15.956680231616724     0.20460667153586923    0.060094688979990332
   201   1      17.633607520025741      2.9248209644411296    0.097149199259679339
   202   1       17.87702660109646     0.80531546789402031      2.5294819426320196
   203   1      15.963436731579151      3.7973896032438441      2.6269543440437064
   204   1      16.169711253028023      5.5659206606046512      52.037322512276262
   205   1      17.598057022221546       8.292951471304983      51.866515785864614
   206   1      17.378847944434376      6.5069181275827406      2.2509390108402334
   207   1      16.192142026062111      9.5635231588490086      2.3407117269271165
   208   1      16.196983882218536      11.312890549682173      51.922349851342091
   209   1      17.763384960120487      13.770791805979524      52.044702275365388
   210   1       17.75677136289459      12.337894329615224      2.4655913548426791
   211   1      15.990648462860007      14.828821792343588      2.5197987574810048
   212   1      16.184799347056966       16.71473847638828    0.031740403323474921
   213   1      17.741781153561643      19.516120041237251    0.043393778506065669
   214   1      17.630584560869192      17.701397003951065      2.6586408169110749
   215   1      16.020501595420168      20.456847387160764      2.2868218108497489
   216   1      16.154285110383299      22.237285011911883     0.16813876667993888
   217   1      17.853092688295938      25.127713451647455      52.069015585730135
   218   1      17.880111903946538      23.246305248129747      2.6214309201937196
   219   1      16.027662349913058        25.8133408844438      2.5014933854087684
   220   1      16.118033825705471      27.988164590614311      52.086666775195688
   221   1      17.787580679788611      30.766525179928689     0.15885201945692648
   222   1      17.498358512245908      28.532719028812426      2.7766159840813183
   223   1      16.331315878767676      31.427864594129648      2.5332934281653801
   224   1      16.189373108509127      33.523894047233981     0.31784999517093582
   225   1      17.516536531111168      36.269335618523641     0.12535941822389021
   226   1      17.764539200064149      34.314397631945873      2.9386370186331869
   227   1      16.023643796710385      37.216237669102398      2.6348539038137684
   228   1      16.043834580274414      39.070453815576649       52.07754151214175
   229   1       17.57813214686621      41.783965723330056    0.073446769154726407
   230   1      17.510972879116053      39.920273886114785      2.6578182357533282
   231   1      15.877913486470085      42.480808736607067      2.8928046206094256
   232   1       16.36542904355824      44.687871753142794     0.16212812768671173
   233   1       17.65610136995473      47.208602002218925    0.098142843461013443
   234   1      17.713316407685646      45.338508015869145      2.7237713511645794
   235   1      16.353331778582412       48.33864575583263      2.9228214017798373
   236   1      16.051421505746109      50.313028784951719    0.074750601139622397
   237   1      17.382999135463418      52.900596687138183     0.10542197182408801
   238   1      17.899387484947599      51.001695633126523      2.5106659458074643
   239   1      16.050877884065489      53.930929887385929      2.5573566287496106
   240   1      19.140346202128118      55.543524709754969      52.054294753080242
   241   1      20.664874051909951      2.5900527982365071      0.0553244611924378
   242   1      20.898060285027526      1.0330235953806406      2.6508027158560896
   243   1      19.272365118499113      3.6219157339006482      2.7327639249042193
   244   1      19.283232976483188      5.6162531007377137     0.07297698904562748
   245   1      20.956009966683322      8.4269157699423349      52.002678765304964
   246   1      20.690828610532805      6.6366962959115554      2.3729108682075513
   247   1      19.276751730679194      9.4250973231407951       2.575390311660513
   248   1      19.521668558280709      11.187248697159486      52.116032946085305
   249   1      20.896006818513911      13.945030392688757    0.088928670623946132
   250   1      21.022647605698747       12.31565096295795      2.5110818231788841
   251   1      19.110743494912636      15.071660168133834      2.7016519476180059
   252   1      19.187394465630334      16.610004892216658      52.020654067594705
   253   1      21.050636849669083      19.489880626864228       51.98904394161994
   254   1      20.781010890316573      17.610309935807106      2.3429545454529572
   255   1      19.248292075329086       20.31729802807547      2.3982603365735922
   256   1      19.205442608557465      22.206993700654721      51.979123913124482
   257   1      20.951124651648282      25.048801047296319      52.107947198068089
   258   1      20.902135505173991      23.273796175120996      2.5644422641527007
   259   1      19.368651836510523      26.157579434165495      2.4480673653045728
   260   1      19.401489367437119      28.007437200344057    0.036375464345815109
   261   1      20.836555192563189      30.733882367514902     0.12600164754101831
   262   1      20.652919280137226      28.724885810851561      2.6559412418544213
   263   1      19.432926509198278      31.638088843064413      2.8801142631386063
   264   1      19.104422287064384      33.591903555319433     0.34853672545660686
   265   1      20.991195968072521      36.012556313567679     0.30964600990357227
   266   1      20.748302477953487      34.434936368628904      3.0698183325975323
   267   1      19.099156759042458      36.972503060438243      2.9284371542473782
   268   1      19.462300217209268      38.911266155841801     0.25877497720897524
   269   1      20.867722703668086      41.850775749865583     0.12688991084427334
   270   1      20.849523596227243      39.963205441615941      2.5891388586432842
   271   1      19.056289416281537      42.592917432148511      2.6582827315575703
   272   1      19.419066551096982      44.603664194079805    0.028567378651383042
   273   1      20.731208222048544      47.359566190913434       52.05328609866207
   274   1      20.800013887554652      45.241216882368469      2.5628942143995914
   275   1       19.42864846479587      48.110095805457455      2.6617937876641968
   276   1      18.960302092683364      49.816744593323683      52.030071611675091
   277   1      20.531480560069507      52.813265393479838      51.745069519156665
   278   1      20.881516999735101      50.943724456139051      2.3058752578075832
   279   1      19.524602084363568      53.839397674096851      2.3418166388649606
   280   1      22.440096339389736      55.448032492877331    0.060262723674073759
   281   1      23.977986366735735      2.7048476174032809     0.06538144734692608
   282   1      24.284242468859684     0.95203832999923133      2.4978308422968767
   283   1      22.585983432911529      3.6144690022977199      2.3847834559823875
   284   1      22.486931722942913      5.6081591507092696      52.111516999707767
   285   1      24.263499044062925      8.2780730192201926      52.029488945255757
   286   1      24.046139796674066       6.571051841395799      2.4437208243795219
   287   1       22.46157609872272      9.2933660150913262      2.4363965956964946
   288   1      22.669332763625224       10.96908750687586      51.953617891216062
   289   1      24.200513590792845      13.946362942792696      51.851975696064784
   290   1      24.475047931625667      11.888054398909446      2.6700966661289152
   291   1      22.848797575423006       16.53138485231953     0.16994675686232513
   292   1      24.203607553059154      19.503612726968836      52.065272005325333
   293   1       24.42526247859605      17.691648679400558      2.5725406515809754
   294   1       22.62610050262121      20.635775818880525      2.4720106789594896
   295   1      22.410985008745204      22.295724971723388    0.035872219131862206
   296   1       23.93936100112786      25.058753582992196      52.111570919964308
   297   1      24.047755214699507        23.2664178598171      2.5065292825691396
   298   1      22.419053831921584      25.949451238433412      2.6956682016112721
   299   1       22.58427310029542      27.617458864448967    0.040963308633237758
   300   1      24.050971229257634      30.348939099830705     0.11047327974949052
   301   1      24.049580141085627      28.570697373548747      2.7792200941952792
   302   1      22.361704266239567      31.816533711404865       2.765312412427742
   303   1      22.214748421622101      33.246393216838925     0.21998996545564198
   304   1      24.006454480587266      36.187415737652152       51.95286675391224
   305   1      24.236169458404046      34.281448458384816      2.7574297818082618
   306   1        22.2883003811355      37.227836276529302      2.7985708222534682
   307   1      22.524934496906404      39.050261964769071      51.987590914334007
   308   1      24.024322613384204      41.884026067972158      52.094496385340783
   309   1      24.157386384204628      39.598034865673185      2.6716875007560135
   310   1      22.539861086230275       42.68683194831786      2.4833850664463375
   311   1      22.513344609602029      44.655562203828282      52.099222784910637
   312   1      24.375560303282047      47.302204874219555      51.813404284831513
   313   1      24.254627308307949      45.509023671692866      2.3597021369973805
   314   1      22.480130537264234      47.970369169358221      2.5965012375805765
   315   1      22.465320372587993      50.026766708392614      51.836780317561363
   316   1      23.771471452662631      52.704295916783529    0.057916045409329917
   317   1      24.166367128640477      50.872437617806689      2.4741407625685725
   318   1      22.530278893436591      53.750744292999812      2.6934099879427578
   319   1      25.821230938655169      55.534843564126845      51.955331718244047
   320   1      27.299787970097302       2.734836325786159      51.993872330195487
   321   1      27.385939406810998     0.57056239316054991      2.6048730207471054
   322   1      25.751156614122348       3.609493200840411      2.4736986773187231
   323   1      25.332265607274579      5.3586114390260038      51.841584078866788
   324   1      27.256083264370066      8.4492811711968265    0.029139322424292274
   325   1      27.174962660313131      6.4448953629589925      2.4238024582333071
   326   1      25.863180361771597       9.353554587112999      2.5279710975773684
   327   1      25.636182553096202       11.08380752696922      51.924573528458389
   328   1      27.194642469003778      14.011485261156453      52.050344979370678
   329   1      27.240977801997921      12.262112228125625      2.4988967647764229
   330   1      25.954137579768823      15.061715143744168      2.5964840765185428
   331   1      25.859071261232657      16.838260597240865      51.931136377140191
   332   1      27.420104483726533      19.434002076025479      52.018578778910616
   333   1      27.642808085258455      17.569415581921479      2.4365903271700935
   334   1      25.819757112717678      20.359142258726397      2.3237603944091951
   335   1      25.592848729120238      22.334301817936186      51.983388693137883
   336   1      27.136630555656538      25.041334300269014      51.949576491284724
   337   1      27.186785960733335      23.260232980398875      2.3293768984983578
   338   1      25.649223357902194       25.83775222913253      2.5032138326312077
   339   1      25.919438145566776       27.82606237808049    0.083339979735189418
   340   1      27.177524890604357      30.707153540632781     0.10174022606369773
   341   1      27.371497601902284      28.909672192583173      2.5001511070440925
   342   1      25.725537980771588      31.479533070634403      2.4737381316015057
   343   1      25.519229570996586      33.344076482762262      52.027320752973019
   344   1      27.176194159676566      36.167391180421625        51.9840284082388
   345   1      27.385720084066694      34.127603888180786       2.845271368932254
   346   1       25.54003775045749      36.972053946314311      2.5037362964004939
   347   1      25.779093438839762      39.073651531743927    0.067150602463314987
   348   1      27.275255429570716      41.552273521786987      52.115878213433923
   349   1       27.22030869756782      39.807581768457887      2.4207240667554593
   350   1      25.692378596840037      42.564047663770445      2.5525340994748245
   351   1      25.903169791374278      44.606914424854438       51.86829592727549
   352   1      27.509005465198502      47.169646434744259      52.003436243716521
   353   1      27.188127550418677       45.28441010847169      2.5408341715372629
   354   1      25.569719135969947      48.230432660628509      2.2427410735657882
   355   1      25.676528520923423      50.096951911679682      51.983198203467005
   356   1      27.218041687799747      52.771199535919592    0.053513287711152775
   357   1      27.165234052333453      50.823232517741076      2.4262023780531141
   358   1      25.587345552509696      53.665753477653389      2.6037648811679857
   359   1      28.814091297926886      55.423319530286932       52.00430988771754