dump/Mg_500_5/steps_51 (written by ASE) 

3995 	 atoms 
1  atom types
0.0      32.100000000000001  xlo xhi
0.0      55.598830921999998  ylo yhi
0.0      52.130399999999995  zlo zhi


Atoms 

     1   1  1.7489224152095124e-05     0.31865297414314719      51.807714767979114
     2   1      1.6488638525947774      2.8246337192683573      52.068307193248742
     3   1      1.6299187429159714      0.7468034953053172      2.4653060101738364
     4   1      32.074391282681795      3.9230235496028474      2.4130964665629158
     5   1     0.24003672948386229       5.485868962766026      51.992547104155648
     6   1      1.4716978093144679       8.241769752581785    0.082594269023569492
     7   1      1.8883122959939227      6.5926602552850682      2.5186934731430708
     8   1      31.994697687108943      9.1513507060496551      2.4121766219471303
     9   1      31.953467353451412      10.974714298147562      52.043299841265167
    10   1      1.4743144318928927      13.731462086108964      51.944684352538758
    11   1      1.5687806947133383      11.877155867225872      2.5911699207098549
    12   1     0.23068233319379608      14.722080144314923      2.4242600286084892
    13   1   0.0043084986743380065      16.409665705794602      52.074567798546866
    14   1      1.5945632459440182      19.450446031849733     0.25531829626233793
    15   1       1.667624426401437      17.554889789049199      2.7568196294876413
    16   1      31.989348692065164      20.392260862389438      2.7006558833435661
    17   1       32.07168823344427      22.228714039110283     0.10470130064459085
    18   1      1.4474083063497372      25.084784540450826      0.3336123842010178
    19   1      1.6172513761744454      23.178129300351575      2.6511069934032387
    20   1     0.17120885769461627      25.717909507384661      3.0648333830062566
    21   1      31.903328568835104      27.538481896258936      51.861964421483464
    22   1      1.8902291187523157      30.596471425508671     0.28955440585127024
    23   1      1.9461568653224193      28.549925790399715       2.766626141936483
    24   1     0.30566899877451537       31.00308313739508      2.7144918735663137
    25   1     0.15913796219213275      33.176404194025309     0.40616481528939008
    26   1      1.6482781700056588      35.871533682090437      51.910843209661614
    27   1      1.7887618715836555      34.220932425341253      2.7908771305514977
    28   1     0.11229975396371646       37.22357771987636      2.3982011398293102
    29   1    0.093026150098847835      38.817916524748362       51.92776760911778
    30   1      1.5714158926675541      41.589692528945974      0.1608080583029429
    31   1      1.6385050179846317      39.612253648315793      2.5237534466957241
    32   1      31.914865320984951      42.441526039923836      2.6450877473310523
    33   1    0.021254807568704091      44.270441881598941      51.987827991373813
    34   1      1.9081202251113449       47.34693181137385      51.941780357279683
    35   1      1.6245418250431432      45.451049655705873       2.451577062799239
    36   1     0.21800750432856006      48.372928471587443      2.4098383533186527
    37   1     0.19159736025263269      50.101461841705138      51.870419472609733
    38   1       1.876626160685708      52.712198969587455      51.998546965601953
    39   1       1.755463620236315      50.987344144487842      2.3982904660081945
    40   1     0.16509031784452538      53.728676991503235      2.3921489606896493
    41   1       3.113860268104824      55.570429208798593      52.040365841292541
    42   1      4.6299872512308804      2.8806724420776479      52.042723055369535
    43   1      4.8227950427624409     0.81307642996371943      2.3734091915779265
    44   1       3.231479989494388      3.6461996065838123       2.565149697456135
    45   1      3.4288670549561235      5.6410348283866298      52.106954940611992
    46   1      4.8457973702506978      8.1857344455247372       52.10034906441475
    47   1      4.9331608180093012      6.4401051566664034      2.5187436477135137
    48   1       3.389635841545088      9.1465897784959012      2.7823384471729411
    49   1      3.0656610816165815      11.002973063509916      52.055081622592098
    50   1      4.8218030497683113      13.976164758257104      51.975821094620464
    51   1      4.9584568023302316      11.862058349537028      2.7418489505867902
    52   1      3.3498672650588102      14.715377470097748      2.4987615749095542
    53   1      3.0393619505927894      16.576281424668579      52.052403729400964
    54   1      4.7482183465538723      19.499388930923939      52.043134848139729
    55   1      4.7395015543968988      17.431576508097937      2.5938698360980834
    56   1      3.3263828562161262      20.421908379329494      2.6670166538548905
    57   1      3.0891725022287253      22.274899770554192     0.14143303818567635
    58   1      4.8778607807862358      25.069953439801697     0.36774184384771791
    59   1      4.6790460807036309      23.137112924794849      2.7314697601615157
    60   1      3.2155973627301777      25.955251476767465      2.6761355999606287
    61   1      3.3402954671285534      27.710593984557004      51.914427577889917
    62   1      5.0849252128673674      30.219751967808058     0.25440015559209234
    63   1      5.0835099558040753      28.520590486113473      2.6473230857688526
    64   1      3.4542772978544876      31.548083133723999      2.7775716017923306
    65   1       3.440935861572104      33.373224955303293    0.098920846841867305
    66   1       5.006009792263904      36.283303815827288     0.31055174989269418
    67   1      4.7910321586129951      34.440727779920202      2.7704746567130778
    68   1      3.2410658799675169       37.02187490886287      2.8345134775466447
    69   1      3.0523357521855301      38.680878140190394      51.955541182104177
    70   1      4.7004016715356309      41.483013011012012      52.084830493209203
    71   1      4.7793185619502987      39.663847018294426      2.5133202782597825
    72   1      3.2610108495242325      42.305842681249096      2.5571675952800828
    73   1      3.3423843486911125      44.392638614913253      51.840786255603092
    74   1      5.0989557807811385      47.155020781207952      51.854979627604173
    75   1      3.3374398833313363      48.253512809911626      2.2941891287049798
    76   1      3.5670580916196557      50.153109036711889      52.042157612066084
    77   1       4.888148227211091      52.970364979820033    0.093756461238245395
    78   1      5.0649639128601445      50.934626488002699      2.4704508209125948
    79   1      3.3005631892530016      53.604025898645787      2.5838064123754796
    80   1      6.3600896483998133      55.396109107976365      51.967564868962569
    81   1      7.8257247739667504      2.7183753127547172      52.064357192042984
    82   1       8.073381694950772     0.97119518761940382      2.6917238781585682
    83   1      6.5634423709512575      3.5020231594092746      2.4038009086961396
    84   1      6.4642783499816998      5.6789619775643221      51.897604406104236
    85   1      8.0561216456749918      8.4162708503834978      52.110748690508196
    86   1      8.2545476257695007       6.629943948008016      2.4592035298372745
    87   1      6.5136531770120483      9.1864860197412064      2.5800003439429622
    88   1      6.2431125171044775      10.861524718890612       51.87152166906013
    89   1       7.898152883287926      13.999232719547022      51.994010086989199
    90   1      7.8590687359058098      12.313409957557234      2.4220326765571487
    91   1      6.4812705740757597      14.773498914983517      2.6074711325740432
    92   1      6.2708399312418228      16.652046529511107    0.054649904867701007
    93   1      8.1170966173693895      19.315586159989255    0.075924074940770192
    94   1      7.9104017926545467      17.281551916075106      2.7244180263707567
    95   1      6.2731934392709823      20.080965852033323      2.5355960405225906
    96   1      6.2546694508119431      22.109810174607784     0.11156018845206646
    97   1       8.064946882447833      24.838182521771973      52.095708689940828
    98   1      7.8058265479057463      23.146035300886627      2.6846617678313418
    99   1      6.3862261981829072      25.981262846104229      2.6762499446087133
   100   1       6.515698568636382      27.607422557149839     0.11996253132595228
   101   1      8.0999345982343982      30.930315312787449     0.29618395069481307
   102   1      7.9696269390270791      28.688684415111403       2.504371046874148
   103   1      6.5233266997518555      31.557166655653148      2.6267871400016647
   104   1      6.5487929530836304      33.313025278493377     0.31030199911828715
   105   1      8.2986762661554092      36.203860944765566     0.21106385190957652
   106   1      8.0357061096995963      34.024268281671539      2.6501915932245037
   107   1      6.4285837269387827      36.985339029289342      2.8678997271320763
   108   1      6.6657321302746482      38.874095597825459     0.20199706382731267
   109   1      8.1715772516598957      41.472711621808386      52.113809385268489
   110   1      7.8280686468134979      39.811774086099881      2.7094870231919388
   111   1      6.5610821750220474      42.408303757199675      2.6842372038053122
   112   1      6.6097150142828056       44.16689169355093     0.18720271113493112
   113   1      8.2826719207738293      47.343511651573124    0.081468233236575607
   114   1      7.9767823941601854      45.463465577720363      2.7067133570824788
   115   1      6.5474646259153575      48.352851601460657      2.2888543361020814
   116   1      6.6701908583344975       50.18320661991789       52.09897715866753
   117   1      8.0931099452004069      52.921107104051515    0.043604856423883835
   118   1      8.2635298340571488      50.975026901409223      2.8050161423511892
   119   1      6.3457986580166423      53.684848397794333      2.7313641045386605
   120   1      9.5793915594611683     0.37254192078447806       51.99025948702409
   121   1      11.421080451867093      3.3189256179462254    0.032107404700556133
   122   1      11.235165709046086      1.1677287944525634      2.4376416036809343
   123   1      9.4748390634490871      3.8089974246320337       2.729247671358038
   124   1      9.5903828839285126      5.5208658936887476    0.090533447934987146
   125   1      11.311506124076665      8.2547358017393577    0.020735570402839781
   126   1      11.480006131215299      6.5913894373590045      2.5227204284628879
   127   1      9.4267218383568174      9.4418129576237728      2.6883444590171539
   128   1      9.5326057692558219      11.179321622570864      51.868278632092888
   129   1      11.163630457530237      13.990875894433286      52.008812152798228
   130   1      11.211351130893842      11.980685018386655      2.7896652011014633
   131   1       9.839234098262299      14.838970458786774      2.6128875640996378
   132   1      9.5963040730329734      16.662008809772441      51.933528432129833
   133   1      10.981056728991172      19.584198223190256      51.985483911215447
   134   1      11.186088391318423      17.417216685032308      2.3907088004680195
   135   1      9.2889680867233775      20.378646183719614      2.7158119185623679
   136   1      9.3270640875017534      22.216214086672398      52.082460693996417
   137   1      11.001405561346488      25.153280437350489      51.955591213889441
   138   1       10.83699325667731       23.17962723786491      2.7216477973761415
   139   1      9.3207672086598699       25.92694336773695      2.5293584555487412
   140   1      9.7976485692470643      28.039639501261025      51.979396654531186
   141   1       11.40401548602653      30.833880334904261      52.083113489991213
   142   1      11.191495320180579      28.359377873860016      2.5666762752825285
   143   1      9.4948789145844845      31.540108095044463      2.9319306456827219
   144   1      9.5798504631491426      33.515751523809477    0.047741999255630059
   145   1      11.506945073220182      36.113689529090749    0.092114283220276386
   146   1      11.055414932773209      34.030725354424071       2.572547496563184
   147   1      9.6364347290590011      36.993847907886064        2.80077239535381
   148   1      9.9879660128891867      38.889634121927671     0.36371774993861722
   149   1      11.178020576091807      41.559020603918754      52.049544413668585
   150   1      11.581791265639371      39.970461924084269      2.7566891090707766
   151   1      9.7303927756682214      42.892642316010871      2.4583801596140211
   152   1      9.5929049106320186      44.449505648101578      51.945470132266529
   153   1      11.514237066598552      46.981713499832729   0.0052433923897416317
   154   1      11.219383364227015      45.521873966351556      2.5647721476610621
   155   1      9.7930003855567413      48.228633649654057      2.5660842774187742
   156   1      9.7094906939675312      50.059566731873389    0.068413899531917857
   157   1      11.232037498828651      52.856014282249632      51.948239303234409
   158   1      11.318928083006551      50.928328160717392      2.6033172665804742
   159   1      9.8296254460425061      53.648366982097777      2.4533288591086477
   160   1      12.910258142052069     0.10335207040936299      52.078056348542525
   161   1      14.312958113896524       2.826021443966221    0.025017706725193264
   162   1      14.320969337136956      1.0956210162692217       2.504783185588356
   163   1      12.798104055322353      3.6968892646313525       2.541160812350939
   164   1      12.977072531056786      5.6747070869505638     0.11516497287097913
   165   1      14.137532691634128      8.3272615177553675      51.939484243960656
   166   1       14.46317329341788      6.4675532624484102      2.6017744626097077
   167   1      12.980258288455214      9.3249500894748838      2.4263414645728338
   168   1      12.700425084435089      11.085425919276853      52.042463666019607
   169   1      14.302394723860269      14.007556780469514     0.13034255057196098
   170   1      14.361817588194009      12.185080891902363      2.4637147106629897
   171   1      12.934183392294271      14.699483466404731      2.5360546988979698
   172   1      12.775038322840974      16.749478191375964       0.166301482912565
   173   1      14.109963989024155      19.577021240880843      51.909734373577692
   174   1      14.525429189749154      17.555001493384189      2.7800859725349447
   175   1      12.730164063124898      20.407447532606678      2.8449710438896738
   176   1      12.476470297342757      22.438488378934498      52.119520717526179
   177   1      14.395570723443868      25.133644801680894    0.047914487721061702
   178   1      14.225751377406823       22.92513777965317      2.4736089765469291
   179   1       12.73597543665587      25.761434647015037      2.7463825877731254
   180   1      12.852236445745776      27.877327417812179      52.125729017312956
   181   1      14.591506275640697      30.670199399788419      52.110582077440021
   182   1      14.390469243948543      28.803217523349087      2.5671040291385032
   183   1      12.700085665609816      31.352326163955691      2.8085509139771223
   184   1      13.123595071983768      33.368409086376232    0.098213281791441773
   185   1      14.640259306628174      36.217203388541336      52.105237195666746
   186   1      13.914526482230487      34.212272693389671      2.8442669644805996
   187   1      12.789309789766147       37.07282046430241      2.4588262353279298
   188   1      13.097073981547508      38.998854453300979      51.985112363918219
   189   1       14.50453779134901      41.780483734787808      52.057305491589027
   190   1      14.318082355554559      40.021507772780922      2.4746832062936113
   191   1      12.798731626121919      42.828331765532546      2.5786050742417626
   192   1      12.908254867846395      44.387679819754958      52.021050688074972
   193   1      14.458596943633207      47.469593708127228      51.962018223330382
   194   1      14.350268385979527      45.523029623509316      2.4714223237667032
   195   1      12.907446025983154      48.254631644313882      2.6277232544107845
   196   1      12.822671989450669      50.017256078150695      52.010092046179949
   197   1      14.474377864648437      52.677435352772278      52.012719574887612
   198   1      14.441429668218966      50.814029835181174      2.4347899094290342
   199   1      12.964327577636633      53.749693366781955      2.2618913830334249
   200   1      15.997155871883518     0.42607009724756034      51.960952430808014
   201   1      17.572022345765504      2.7896522852433758     0.11526224475062498
   202   1      17.842666524819343      1.2092377314104912      2.5485086537159503
   203   1      16.125907841446761       3.762374191461368      2.5913479646727011
   204   1      15.939054298308999      5.4869657714970641      52.003241329646251
   205   1      17.587723006495256      8.5828727408885452    0.033455679437978482
   206   1      17.843809036165268      6.3970171831000808      2.7031721884200368
   207   1      16.131360040249248      9.0587985736878593      2.3959829152071688
   208   1      15.918094404451843       11.03454967307089      52.088034936504357
   209   1      17.278894898850329      13.756713981481337  0.00017450433663743748
   210   1      17.414942254112241      11.792207825587443      2.5710456150807435
   211   1      16.002917036162629      14.824276140402723      2.6284698352985418
   212   1      15.934099102243623      16.733054070800094     0.12803536702678522
   213   1      17.345170642187444      19.427763901001384     0.09376203843865151
   214   1      17.615529788086949      17.444060987366559       2.752248309419937
   215   1      15.897058189068213      20.250919503479263      2.6301402702192105
   216   1      16.141191298669959      22.249143077679427      52.085414541389561
   217   1      17.546628844960384      25.028911105465781    0.073014998663088165
   218   1      17.523219710544215      23.272132332608788      2.4215588330638393
   219   1      16.029845117037876      25.937366977573244      2.6134571569443805
   220   1      15.854239170412079      27.903609021397408      52.003631964160775
   221   1      17.622001924955391      30.814110179804199    0.017129746717668603
   222   1      17.457865801970126      28.935727617630107      2.6716551256604522
   223   1      15.997773722375975      31.866854431705182      2.6532830907365956
   224   1      16.200326097781726      33.517897987552168      51.833693639778566
   225   1      17.896708954185115      36.591989205734066      52.081238971015544
   226   1      17.210144249228296      34.657870878142745      2.1789880139242377
   227   1      16.067897261198894      37.374720712014536      2.6910925705307212
   228   1      16.204566935086596      39.064031613762687      52.021570185824181
   229   1      17.512727725702852      41.896467346628512      52.009848932262464
   230   1      17.618812140706407      39.888322834188585      2.5132748838767514
   231   1      15.962799342308713       42.70357455178538      2.6881095259211056
   232   1      15.941740239889018      44.607328196554555      52.032052468024283
   233   1      17.736725493915831      47.113040961372377      51.859920598997739
   234   1      17.592114846756072      45.401044745264421      2.4533199370933421
   235   1      16.031098606759819      47.993738769187424      2.3380672040724897
   236   1      16.183806575211804       50.13944532554968      52.055210347267241
   237   1      17.740364109606308       52.78728195122396      51.860557437587133
   238   1       17.65842704145463      51.024492281596196      2.4575983286185861
   239   1       16.15356879188673       53.85644068036386      2.2853285086804243
   240   1      18.994189252920378     0.10694648473009344      52.074726241739938
   241   1      20.908676257997218      2.9271307911749718     0.10098530257477521
   242   1      20.877873179932767     0.92577213275285852      2.6832966867353241
   243   1       19.45324590818662      3.8194562593242276      2.6554569849734202
   244   1       19.04295739375376      5.6044958520238213     0.29127303597866622
   245   1      20.853936139809313      8.4715446146475983     0.20040305109296622
   246   1      20.882332289962505      6.3864102005181165      2.5105336324639915
   247   1       19.21711550530296      9.1361853001123574       2.821977156174984
   248   1      19.291648975939285      11.254511348820129     0.14024278684669772
   249   1      20.747210131439566      14.034262181117986     0.34168953133547997
   250   1      20.890389973162627       11.80321700353907      2.6853084940116916
   251   1      19.081994683116346       14.34185244503178       2.530868767416262
   252   1      18.797942969101427        16.6179216317834     0.11709297407258014
   253   1      20.716479099125408      19.317397032838727     0.23767175481345723
   254   1      20.641673276357448      17.272490237479452      2.5822904223607908
   255   1       19.04701590909967      20.035843337470087      2.8558022238686003
   256   1      19.463660410895891      22.280347326598331      52.070845145455294
   257   1      20.833344572707727       25.08693325414621      52.051283746007343
   258   1      20.737677357668062      23.260953501953601      2.4851208447751763
   259   1      19.162168387658884      26.178681135074061      2.5402995601323441
   260   1      19.165807073300048      28.021418977891518      52.095295381647603
   261   1      20.945192919965738      30.673778671286716     0.22647319406996938
   262   1      20.909239153852589      28.801340974847626      2.7970678418067285
   263   1      18.945405944511997      32.035860558331841      2.5182936759927479
   264   1      19.513026954962069      33.546817845718515      51.940359239725524
   265   1      20.934898966444077      36.181678008253222    0.065413078264594512
   266   1      20.926541272547173      34.490706985484863      2.7721747651277484
   267   1      19.309659418355245      37.180603367937408      2.4724710029949515
   268   1      19.319938610061914      39.269608745435981      52.128345589563288
   269   1      20.836623691968789      41.790811321338616      52.111512294968172
   270   1      20.920261129678519      39.873308374541722      2.6912926931913392
   271   1      19.311873011164312      42.465168594339602      2.5572362605555878
   272   1      19.268929742108526      44.478374751304472     0.20224631166365425
   273   1      20.712653387176921      47.306083647877614    0.023348466067589585
   274   1      20.977167943735651      45.381371579118529      2.4618372461138165
   275   1      19.099245357714718      48.128771420703778      2.7106689146005492
   276   1       19.36481127493651      50.129698096687832      52.036431672516279
   277   1      21.023003037776885      52.639552729734405        52.1059763660055
   278   1      20.819337172537789      51.275784272682337      2.3083437228193362
   279   1      19.368610530757877      53.690541699039308      2.5982715910019318
   280   1      22.594484909121636     0.13148212432861794     0.14881708729245918
   281   1      24.104034499351638      2.9494362169310397      51.992984940609468
   282   1      24.255946231746389      1.0832851640427976      2.5602810176310329
   283   1      22.589859576871671      3.6502765306794123      2.7869792475695339
   284   1      22.311609462913285      5.6091124409639095      52.084621513565203
   285   1      24.013926207168744      8.3391074579544107     0.12189560514824196
   286   1      24.210136726495517      6.4607882801349303      2.8896053945958826
   287   1      22.494511063782312      9.0335231754919985      2.9554518206652607
   288   1      22.616634224124855      10.991854630946591     0.13781084270547797
   289   1      24.200666296818945      13.843179103836212      52.115768451151276
   290   1      23.772397693366791       12.26994687531908      2.5233346280356779
   291   1      22.393209811643789      17.008241216356655     0.14983937564849251
   292   1      24.167186141793522      19.431920138733751     0.13119256211709762
   293   1      24.279517841116043      17.560686713491602      2.7095284437763429
   294   1      22.247767446390455      20.398259873449245      2.5841995365732826
   295   1      22.305219007601551      22.154204065632456    0.012726591307150186
   296   1      23.910617507620525      25.095248166332333    0.065233549519673362
   297   1      23.915895318152753      23.138765839919934      2.5526643644933604
   298   1      22.524414959094525      26.071114610470975      2.6494994875663704
   299   1       22.43297540470455      28.104495668218981     0.11472090638462558
   300   1      24.119694620301214      30.472301465946085      51.759044117698458
   301   1       24.22191285101972      28.884908356367895      2.6918825111609497
   302   1      22.350633453024486      31.935275182781965      2.7013532950688148
   303   1      22.622500299721544      33.634334086066005   0.0053722598648752781
   304   1      23.954302157982756      36.146900058905096    0.075586938194543873
   305   1      24.070365201817065      34.331441062601435      2.5110329805035554
   306   1      22.589256818602458      37.172693410673681      2.8223659838029231
   307   1      22.491715979053925      39.296455935705787    0.052579726028891619
   308   1      24.237456171307457      41.534156126293702     0.15725369602384193
   309   1      24.321296758262168      39.828366495288201      3.0004296797589789
   310   1      22.682669915205032      42.582892550370431      2.6788137239164258
   311   1      22.427725164430601      44.429321035709918    0.016208166271565481
   312   1      24.038637851900596      46.984754213173517      52.121415354225938
   313   1      24.044536493055393      45.276631413349996       2.462697542588884
   314   1      22.323340655649368      48.345275110511636      2.4222009602133374
   315   1      22.384238369854504      49.983560283521911      52.014863145106702
   316   1      24.216374557577591      52.763455665063262    0.080858900615745133
   317   1      23.718513483866438      50.941670903551831      2.5744365905490856
   318   1      22.561440199822343      53.753888113869984      2.5884090017411419
   319   1      25.974741731101503      55.568868046993693      52.005065267529325
   320   1      27.203198420892356      2.6614769259625164       52.07727225546369
   321   1      27.437477510936155      1.1021431928892336      2.4606709925159937
   322   1      25.768107916645167       3.738467386162974      2.5414662318535082
   323   1      25.527079173347634      5.7904982224275088     0.15720342236757137
   324   1      27.465513266044571      8.3410787594770373      52.056014976457256
   325   1       27.17722692920956      6.5773798518282538      2.6058262324131309
   326   1      25.810481416598805      9.3640981987341601      2.7080500887091623
   327   1      25.684396492856266      10.807044484720723      52.106311451549459
   328   1      27.414860035967013      13.817138365283904      52.086143745803319
   329   1      27.202077043899433      12.027918840658147      2.7551745406375407
   330   1      25.777572747543893       14.68709221989041      2.5461608773462543
   331   1      25.650367665059157      16.738534570604564    0.030462836526653124
   332   1      27.419242771821093      19.259768658347333     0.18509098950645433
   333   1      27.327781131196918      17.186377527785798      2.7092323619292089
   334   1      25.806236183749753      20.149505992119746      2.7694595428963757
   335   1      25.286516235176091      22.363170819619825       52.03987160481995
   336   1      27.119310364378677      24.986976171761711    0.020206370385582591
   337   1      27.030381204302195      23.214235531292189      2.6489916032996392
   338   1       25.42376944601908      25.968179051302531      2.5203297360826467
   339   1      25.432534630206131      27.671656637390136    0.056626596213262624
   340   1      27.486448489568236      30.375982266441969    0.087323963625378892
   341   1      27.408698133807302       28.57525054694705      2.5915910008013801
   342   1      25.661790216595978      31.373485987479796      2.2975593465251003
   343   1      25.796402088235073      33.510405784487588     0.17610552438524071
   344   1       27.20648308455598       36.09183954452093      52.090594864420204
   345   1      27.626770491000315      34.385858910473424      2.5468352812048125
   346   1      25.715228720386708      37.155624057507993      2.5151949420149018
   347   1      25.625456045766576      38.910196372382543     0.16280202251472306
   348   1      27.427675193220498      41.543494650120309    0.048623889352995518
   349   1      27.344286343967315       39.72887081731124      2.7230285945014252
   350   1      25.926458284526174      42.632524378745302      2.4787357249568869
   351   1      25.598317796082693      44.319306222574497      52.089336543772681
   352   1      27.577628980367134       46.83837687454723       51.86594437257336
   353   1      27.610151418449533      45.225399404189339      2.5069444762430191
   354   1      25.746802562573812       47.99659972088719      2.4747342307951246
   355   1      25.783644063370424      50.096232211899299    0.052775770814904914
   356   1      27.548772310645987      52.669382018676195      51.922791283721288
   357   1      27.432605872126398      51.087955528656806        2.61413485197673
   358   1      25.722954550847863      53.921104339783575      2.6268799846786388
   359   1      28.867232164176897      55.553274877018083      52.072481110070591