dump/Mg_500_5/steps_61 (written by ASE) 

3995 	 atoms 
1  atom types
0.0      32.100000000000001  xlo xhi
0.0      55.598830921999998  ylo yhi
0.0      52.130399999999995  zlo zhi


Atoms 

     1   1      31.847711581569271      55.370340532734332       52.09485375119155
     2   1      1.8265376796495858      2.6697136963099091    0.067424599478715389
     3   1      1.5655517814671605     0.97535498233726614      2.7232402319972548
     4   1      32.035810782224942      3.3539001820485201      2.7549929801205049
     5   1      0.1233279346839599      5.4583030148836196     0.13180370363656566
     6   1      1.5159216851781714      8.3654398076538961    0.044754493899125843
     7   1      1.6147644639012122      6.2170274514127319      2.7610930575590711
     8   1    0.095901311032344574      8.7542130977627934      2.6576622486963606
     9   1     0.29109597211766042      11.026184358492261     0.29178145030331148
    10   1      1.4610165567438682      13.995592235893881     0.05570482985158963
    11   1        1.50107807692174      12.373169018386687      2.6601016193674822
    12   1      31.959985348604306      14.981524586746534      2.6469396795147926
    13   1    0.072200977787080955      16.660825516008728      51.698493128466062
    14   1      1.6102896806721272      19.647422089342228      51.897200859368155
    15   1      1.7730936034183769        17.7658948821026      2.1433818632524964
    16   1     0.13644670996317373       20.32550976803196      2.4489826211483403
    17   1     0.27839922192129191      22.191029101579439    0.013970484260441564
    18   1      1.7352885159478042      25.082001428781592       52.11369616349829
    19   1      1.5623907154152017      23.079959079492887      2.7464715751198456
    20   1     0.46705319097054643       26.34758788955028      2.6016846918454748
    21   1     0.08772650658983637      28.125777321032615      51.928908934439448
    22   1      1.7146069532913026      30.574207367948912      52.017007493732407
    23   1      1.5902383240235882      29.060936657900186      2.5523538405267985
    24   1      31.856353359529248      31.694609668275774      2.6616053962404886
    25   1      32.066135293524809      33.305736196612173     0.15096171670579087
    26   1      1.8311019572358449      36.090153154538235      0.2115358572034331
    27   1      1.7997183873083178      34.456838007278527      2.7297039576178701
    28   1      32.031075335229772      37.114383496694657      2.5275645374326006
    29   1      32.043044246612851      38.772504193573113    0.013882195765428528
    30   1      1.5359477527937835      41.904914462176279       52.08913549467529
    31   1      1.4940617548331385      40.080182578173734      2.8306187777924632
    32   1    0.008918110703123653      42.749825723353695      2.5597330423873683
    33   1      31.803076280873263      44.395158333945581      0.1434696870595748
    34   1      1.5654842558425046      47.284898382177815    0.088167456746607767
    35   1      1.6229512790798393      45.583044420055899      2.7700284043645604
    36   1      32.070752107026316      48.460060926169987      2.4600746649056036
    37   1      31.969096171575483      50.508617631891013      52.074790481510732
    38   1      1.7167731154872563      52.838888991802996      0.1014743252891087
    39   1      1.6319937817991699       51.04304199482997      2.6883335076418327
    40   1      32.070562962995368      53.670719639635749      2.4688920226081557
    41   1      3.0890751081071519       55.42753014024391   0.0057904500271714629
    42   1      4.8280130740742289      2.8454009093787502     0.10521420799798716
    43   1      4.7615884403337025     0.82535408227685136      2.5346710533173868
    44   1      3.2214615656094687      3.3511148625867175      2.9794024305491651
    45   1      3.2197824710903813      5.5364416458839631     0.46607553333357143
    46   1      4.6131788209652429      8.1936554674013919    0.042117164744340525
    47   1      4.8085065170938011      6.5839639636456848      2.8944504046249322
    48   1      3.0528715262071282      9.4633962625539159      2.7549665188587693
    49   1      3.3582982213765606      11.115867490638617      52.046260817346955
    50   1      4.7905834156462888      13.845073994966668     0.28919988237220579
    51   1      4.8520224121360949      12.019275624026825       2.550394394554234
    52   1      3.3554765557425696       15.06191817864155      2.6728755644370854
    53   1      3.4942032895395947      16.631924144972448      52.120474525550321
    54   1      4.7229043469736167      19.323261544846495       52.01376208954494
    55   1      4.9488485243072047      17.812419412273876      2.5334252927334413
    56   1      3.3350790531382204      20.693922477000523        2.44491464721172
    57   1      3.5458259559871643       22.46684841872133      51.965628742376396
    58   1      5.0256753573505097        25.4887878842326      51.996585367495157
    59   1      5.0755272205744415      23.521206585425649      2.6288849089007105
    60   1      3.2674700600097419      26.009908358735547      2.7155545450717966
    61   1      3.1425590804648684      27.890462136571671   0.0096887573790529948
    62   1       4.594928169655093      30.881564362228655     0.33083021532564039
    63   1      4.7268182135016055      28.834673178034969      2.8528626068840452
    64   1      3.2588283682345711      31.773161303434719      2.7834400302027169
    65   1      3.2513211049385551       33.59352704070043    0.097031016939674114
    66   1      5.0604391190168458      36.205732837160738    0.081641090664701724
    67   1      4.6706477871809007        34.5062305973116      2.6066827188754425
    68   1      3.3788371203981393      37.124184154614639      2.7912880707947894
    69   1      3.1308994549547071      38.807010926727877     0.11653423862007693
    70   1      4.6990509771552835      41.498745072572646       51.94673683583644
    71   1      4.5184094373645998      39.964224026937636      2.4758032445166158
    72   1      3.3030654034993581      42.684807937018853      2.6594515260291711
    73   1      3.3092837642250688      44.440580134716491      52.050266177749542
    74   1      4.8087886700918459      47.399937612351984      52.101939483223937
    75   1      3.0846354413227841      48.362564133751029      2.7190810341798302
    76   1      3.0261942122846981      50.132055931878696      51.936728292878819
    77   1      5.0757357684414623      52.829217964985247      51.837246778864191
    78   1      4.6003094960090252      51.164504195042198      2.3858773519515477
    79   1      3.0656627632796973      53.848165597030857      2.6559655274417149
    80   1       6.301988459163633    0.073040692882930788      52.003257207929373
    81   1      7.9642694479301257       2.904726287485329   0.0057928296872020654
    82   1      8.0025712916937284     0.79812538652225318      2.6246345116020491
    83   1      6.5743513858201643      3.7142800651950889      2.6635679043497582
    84   1      6.3084937410737343      5.5302746886693779      52.026860398792209
    85   1      7.8767433401997575      8.5842011654966264      52.116506001085021
    86   1      7.9528110717306575      6.4347430156858882      2.4991781115730269
    87   1      6.1932765368881864      9.1288491677755914      2.9515688360040917
    88   1      6.3646892279198433      11.301786545223194      52.128867746604477
    89   1      7.8809990997850745      13.759690786645569     0.12344056300748289
    90   1      7.6079901771785901      12.104886696266426      2.9253187486716752
    91   1      6.6565094735787929       15.12524543446057      2.6123157125555485
    92   1      6.7475098800562749      16.833417131434434     0.19306558052160636
    93   1      8.3134596253452067      19.570501950767905     0.08721020510620732
    94   1      8.2791237939387852      17.851050552193584      2.5090028824006247
    95   1      6.6292772233197867      20.458323510934747      2.5165849298826148
    96   1      6.5543601239474949      22.419621153629222    0.053105297563320247
    97   1      7.7957033474116129      25.287943430529499      52.044496762922314
    98   1      7.9854206992350267      23.355286544313493       2.632104743314418
    99   1      6.4239634961809928      26.273830027055858      2.5927421224423357
   100   1      6.3075248513431328       28.23540657191403     0.06738987135107373
   101   1      8.0362187443692719      30.973972178991023      52.073169535871699
   102   1      8.0524505465586156      28.870726071228511      2.7851566407844506
   103   1      6.6976757639850835      31.420964755667406      2.5925635530264945
   104   1      6.5071077761535729      33.572475955374124      52.129747302456906
   105   1      8.2849841120511947       36.15868020109302    0.084217468362925083
   106   1      8.1278865424940516      34.039740329857253       2.739599862196135
   107   1      6.5041209281407681      37.003356326062544      2.5457470154548876
   108   1      6.5038209361796806       38.95276771102052     0.17493061034589577
   109   1      7.8266337611982904      41.852736999559575     0.33270347823627444
   110   1      8.0862175365781344      39.819661620110644      2.7129337303816436
   111   1      6.5075105387031016      42.623280483355707      3.0413098223956587
   112   1      6.2119156821093782      44.317225620399128      51.957470124834494
   113   1      7.9903366588773839      47.011884261596492     0.13314185853376193
   114   1      7.8344751879891499      45.474727811112672      2.5209008234052841
   115   1      6.3188968309231175      48.355514770223735      2.5785452426405517
   116   1      6.1723061233490029      50.200982095919592    0.036566134980620682
   117   1      8.0119247222679206      52.784164619338938     0.16494010215274876
   118   1      7.9736592193927009      50.809682024234085      2.4642907066604356
   119   1      6.5777385625195421      53.653633101676462      2.6727744573924461
   120   1      9.3697948497834957    0.064581512769251517     0.17988914176138743
   121   1      11.185944615584987       2.752800121569857    0.056554468718090792
   122   1      11.282273144502712     0.69488420917244453      2.6410572172702764
   123   1      9.7322428465548452      3.6731306109709689      2.6619186940946133
   124   1      9.6729766319145991      5.7628047606385824    0.045294396335522992
   125   1      11.002613733095384      8.5359403087151264     0.01460335372131528
   126   1      11.179338763978715      6.4959497473449144      2.5519859361820325
   127   1      9.3321707749115781      9.3034976562602214      2.7519509581078618
   128   1      9.4734969182965987      11.193916530044957       0.106104611137892
   129   1      11.280800927821623      13.773188903763344    0.005720705279757668
   130   1      10.944555691707604      11.728133354066255      2.7219109564324224
   131   1      9.6582993731019755      14.763811014775365      2.5677496300170111
   132   1      9.6004044565288513      16.436403074554185      51.957528979510712
   133   1      11.270272683789806      19.548527062362314     0.11286887496689375
   134   1      11.199293900460633      17.593404905448125      2.4363497679796851
   135   1      9.9074162427884733        20.8047297411463      2.5778741517002546
   136   1      9.6077317056511919      22.435416334359363      52.072040388236161
   137   1      11.119857294156878      25.295384355150034      52.115909162995031
   138   1      11.112047121622366      23.431960188008176      2.4633629642007056
   139   1      9.4600745906689578      26.162517614796123      2.7435000066155046
   140   1      9.4670238701678411      28.267750161973343      52.107827579990357
   141   1      11.256909009489602       30.74368219965314      51.835799497856947
   142   1      11.258755806480885       28.67027829445346      2.5702262106078715
   143   1      9.9757118091732977      31.449360447018414      2.7551046417882223
   144   1      9.9871853209064554      33.485954564620229    0.059037826337448862
   145   1      11.497352328692205      35.938524583091478      51.953194582822434
   146   1      11.245025336738792      34.271805946449525       2.668484471183707
   147   1      9.7647068234443299       36.96438145053046      2.6758306285578461
   148   1      9.7124966152256835      38.630657067004044      52.004544273811717
   149   1      10.898479181670188      41.556566133627847      51.950758248537205
   150   1      11.251095898967726      39.917169407960742       2.459299255482549
   151   1      9.4977006273206008      42.763291511376323      2.7433340591718753
   152   1      9.4660512046873286      44.397158906716811      51.867003593943409
   153   1      11.201374242852941      47.161595765217378      51.936370334874795
   154   1      11.262160319281431      45.241013230403908      2.5182272160243815
   155   1      9.5878426364052078      48.112721958426107      2.6024860933497691
   156   1      9.3024651556443398      49.742962921273602       52.03577848676553
   157   1       10.91566263102901      52.639344481351309      52.061060899216969
   158   1      11.028290626695025       50.84875625427506      2.7969325337527979
   159   1      9.6628951835284411       53.59481395271446      2.5968710632741581
   160   1      12.704556449836486       55.49055509067972    0.092445616354476651
   161   1      14.511243274827551      2.6089612598091816     0.22453936753557252
   162   1      14.044281576140696     0.70647244126938125      2.8175058073956571
   163   1      13.041159207145069      3.8557620061461515       2.385343037958203
   164   1      12.772465061656176      5.5614559582706624      52.093136727799624
   165   1      14.756908129631571      8.4951933442734475      52.121831440656074
   166   1      14.318817537732663       6.498539759850134      2.7576612939392957
   167   1      12.780993568926199       8.949667904746395      2.6896599040341105
   168   1      12.663674322923098      10.953557101254837     0.12655790839031464
   169   1      14.381392707502105       13.76193038741321      51.807064124565997
   170   1      14.039553506383577       11.90467389498523      2.5897488478299602
   171   1      12.650655905207133      14.715263109265294      2.5759274782636625
   172   1      12.456018946886395      16.614066028370736      52.117309400805354
   173   1      14.472591916596205      19.537375861082069      52.015297103196978
   174   1      14.483569770876727      17.493150279699055       2.483924366141729
   175   1      12.907761815735947      20.275931537109134      2.5500754495902287
   176   1      12.920236898139219       22.37620582057928       52.04546631522458
   177   1       14.48498441367089      25.168398653255071      51.944047837565151
   178   1      14.501807725877072      23.071080441444067      2.3919467309365197
   179   1      12.834102732436936      26.049861259008647       2.442404588643555
   180   1      12.751522198676088      27.898912439113701      52.087134777304165
   181   1      14.513914427142231      30.512963347542005     0.17486378767326297
   182   1      14.466353516599083      28.733208152002089      2.6869663959886383
   183   1      12.916873979316781      31.370997508212778      2.3904358080426946
   184   1      12.937224508158861      33.287633287223429      52.008473146693774
   185   1       14.50818826374759      36.067242278245914    0.013237318618247009
   186   1       14.46616021772398      34.194919149261651      2.4487587534127617
   187   1      12.832885144145337      37.200114839899143      2.6304189967501026
   188   1      12.697552477650699      38.932265938344493      51.924318399090829
   189   1      14.300591534786937      41.628350321959232       52.10651062606734
   190   1      14.622518695268742      39.843913314425791      2.7268700884612906
   191   1      12.934998091239809       42.37960963119918      2.2438208197836134
   192   1       12.71103375454954      44.321974416284803      52.046771905365084
   193   1      14.176917548621491      47.133535844442548      52.125822831794167
   194   1      14.321285141217112      45.285159517131426      2.5160541236366178
   195   1      12.538477042108514       47.84617513669194      2.4166055842937748
   196   1      12.653943101912052      49.928609829114848    0.023690850237811707
   197   1      14.031372956572609       52.43361322688606    0.074149583045937315
   198   1      14.272253755527203      50.452531122480437      2.5423778104864372
   199   1      12.620032080613532      53.597452853558714      2.7324740204204465
   200   1       15.90414082361429     0.15589755442627967    0.075285236825575627
   201   1      17.752719823407769      2.6692364899980854     0.14711181441942728
   202   1      17.623201528923218     0.79003420110948985      2.6270421844981988
   203   1      16.142256246156578      3.8862387891785573      2.8850019968797529
   204   1      16.442552717358321       5.575047440387662     0.23228197537826931
   205   1      17.798326174224357      8.1916524178914898    0.057501360066671323
   206   1      17.747790690263265      6.5159642580121391      2.8080779953559869
   207   1       16.09994478828888      9.1698357364607457      2.7573369497844515
   208   1      16.298758690667896      11.011291074242461    0.074351736720068271
   209   1      17.847423250895172      13.593198072101826    0.023817265772828996
   210   1      17.925694503809734      11.746731050852862      2.4858462551482017
   211   1      15.927007532507444      14.629872236319322      2.4525009846732599
   212   1      15.997296482829796      16.458485518095678    0.045307098090821347
   213   1      17.673161323277835      19.405245282872549   0.0028467897612345018
   214   1      17.751627637319181      17.412246432091298      2.6136607948968296
   215   1      16.002703754329211      20.312625243160785      2.4678281683311711
   216   1      16.057777860467375      22.497391684642199      51.981038273836418
   217   1      17.743718767988362      25.007326064544372      51.744078910893791
   218   1      17.598462386843398      23.231193679742209      2.5100497578211294
   219   1      15.926851686017089      25.937200368140296      2.3689060964556385
   220   1      16.389030035893722      27.628933490954559      52.016422512030097
   221   1      17.774439562375655      30.572925128464973     0.14494838599055182
   222   1      17.763757652834933      28.587133971606701      2.6981049476014038
   223   1      16.022575972034371      31.450496531142218      2.5020137257994062
   224   1      16.187121636662749        33.2955852243716    0.037163036167509836
   225   1      17.653995056065028      35.745482374436605     0.24692972510948777
   226   1      17.602158072307226      33.909876995392736       2.771889752718542
   227   1      16.208182483247953      37.064337834656357      2.8968760121744306
   228   1      16.173482708944931      39.031376968568821    0.062210453492774986
   229   1      17.560254467168221      41.867912220419761     0.13197087006878547
   230   1       18.01631734184744      40.246159937035344      2.5276442585268475
   231   1      16.056035034696198      42.591986897851406       2.829210314889461
   232   1      15.890974725381355      44.283229459707691     0.06176301140906891
   233   1      17.517356659731071       47.04485996775032     0.16150133099169253
   234   1      17.359261145378706      45.358601305618429      2.5512990357390737
   235   1      15.934492031757701      47.920378224397695      2.5442248733653834
   236   1      16.052911631888307       49.89887691510669      52.048713339043644
   237   1      17.473846043517373      52.671183458312818    0.050168709497218876
   238   1      17.238523906830604      50.892252723119014      2.5736866047690894
   239   1      15.826286814932994      53.675277748054505      2.4998546691126347
   240   1      18.974176384491031      55.239823736514325     0.52870998980458339
   241   1      20.873074741694712      2.6708852019882823    0.099490069929762767
   242   1      20.870944660984243     0.63894293335804486      2.4950928599874693
   243   1      19.416150155740972      3.8359470058800844      2.8651175405126383
   244   1       19.60360633004483      5.5003389784582648     0.42834707202448874
   245   1      21.018035603737861      8.1783920697379315      52.096618056877809
   246   1      21.111467626436777      6.4831246886313494      2.9596956960315035
   247   1      19.311931032731298      8.9649519626057241      2.6051556377968788
   248   1      19.434007703959477      10.997605994910709       51.94727882901401
   249   1      21.123335791110257      13.793622572150383      52.014678070740949
   250   1      21.272686489250976      11.900523427245547      2.4387637125482362
   251   1      19.139334542749264      14.567950430791614      2.4605034276069078
   252   1        19.2714744002697      16.704634646059688    0.080616935952221927
   253   1      21.035367470924172      19.490101277757692     0.15131700745847157
   254   1      20.933768155515668      17.550854441940363      2.4070121722716844
   255   1      19.072181664488365      20.247617135047776       2.529572882424111
   256   1      19.259177893153502      22.162834320471468         52.019458422381
   257   1      21.033946879952705      24.774258848980789      51.879532401970238
   258   1      20.832830893905015      22.923972884565405      2.4447623806589709
   259   1      19.268316602949234       25.79039682579776      2.3553552261791735
   260   1       19.33041271969859      27.477107862793108      51.947263899854477
   261   1      21.115107868542911      30.296989018307713      52.067771922492511
   262   1      21.136796784111002      28.667462464703657      2.5581838666686387
   263   1      19.381986773589691      31.183276714540991      2.6332546607475695
   264   1        19.2822034973223      33.290417603476968     0.16396548375787759
   265   1      20.936427178826186      35.970225372213001     0.16816678466009388
   266   1      20.644791827230137      34.304184864729677      2.6455480044618009
   267   1      19.328525595100196      36.973122416148172      2.7627946536064814
   268   1      18.990268071943156      38.625302025209898      51.976284119335915
   269   1      20.766422745420304      41.666880857749568     0.16514611513660096
   270   1      20.916466452824835      39.644808141574288      2.5473934040189912
   271   1      19.236348653921127      42.758644953162921      2.5870806775460489
   272   1      19.208128749961144      44.444546763977272      52.130201004413259
   273   1      20.637780849829888      47.261265908609715      52.066621910095428
   274   1       20.97509345039343      45.442928030311961      2.6457195355064975
   275   1      19.010054407105109      48.382031329259334      2.7365150721053242
   276   1      18.988164944992103      50.081132166380378    0.092303538455015294
   277   1      20.706587043323612      52.768969161419953      52.072696427355304
   278   1      20.881767828825378      50.917732885206412      2.6463691353417951
   279   1      19.076547494948247      53.183536572583293      2.6631021929469063
   280   1      22.604781977624135      55.445145735404175      51.918963050730255
   281   1      23.896293911970638       2.656430468246779     0.23682828194914313
   282   1      24.145602254136005      0.8724697684333883      2.7624367861303787
   283   1      22.402440495382358      3.7833258148115587      2.7486241384875369
   284   1      22.734728564219637      5.5524298662798381      52.081966398664363
   285   1      24.272401121102412         8.2666687219004       51.95646535033854
   286   1      24.281075892380599      6.3143114082712417      2.6861229938279552
   287   1      22.681185990807791      9.1029197318489334      2.6859800333836654
   288   1      22.778924477381512      10.935016951753234      52.106251563249032
   289   1      23.902866341108219      13.602604418996263      51.941384326247196
   290   1      24.013158620671636      11.757751707534519      2.5636536265197711
   291   1      22.252990026281804       16.44641003846472      51.993193257212894
   292   1      24.163617618678735       19.53059791059853      52.129699936488741
   293   1      24.112650407107335      17.500866158944884      2.5973698807579781
   294   1      22.451049976191612      20.249307282001428      2.7294110885008322
   295   1      22.509194000333707      22.145108093122847    0.043873163130856659
   296   1      24.168339494850848      25.076289571490282      52.100770869135481
   297   1      24.088721653024422      23.345964970328019       2.489400257929296
   298   1      22.522640346984858      25.826149126831655      2.4896130774913701
   299   1      22.625767645651155      27.742493442046989       51.92768941112957
   300   1       24.06351398929548      30.300562473051592     0.12828385880252455
   301   1      24.298447878084676      28.564351768649033      2.7497836120521097
   302   1      22.529829678919466      31.431219494114764      2.5709126728187348
   303   1      22.655653528816913      33.310100200225172    0.044698941977143823
   304   1      24.162620557937927      36.026654373215784      52.046890869389813
   305   1      24.099144549878851      34.410119178624242      2.6492192660538283
   306   1      22.494136082868621      36.998357832873843      2.5575544579754337
   307   1      22.557342800890602      38.781758492034868      51.890926289979411
   308   1        24.2070113310198      41.474420795402395      0.0137772465387676
   309   1      24.064871751326969      39.615262640071535      2.5382048890596307
   310   1      22.519992322198227      42.509313837967994      2.6372111517609285
   311   1      22.364564549381853      44.614716140714336      52.096749069926474
   312   1      23.958431089922602      47.290490893144266      52.097008149256112
   313   1      23.977647044329874      45.569688853862246      2.4766460028061115
   314   1      22.438402996288975      48.241589159727262      2.5499207439342491
   315   1      22.414546055065927      50.086499754642382      52.069346101194377
   316   1      23.984869279423759      52.723734418996898      52.028412666173665
   317   1      24.204215446985742      50.931853339998732      2.6187497371000461
   318   1      22.553758890203582      53.497056958717081      2.4939494330701422
   319   1      25.544401221855061    0.064083631281170658     0.19435418499010101
   320   1       27.48314371752916      2.8367163637025326      51.967118368866892
   321   1      27.317979210260233      1.0565683209649537      2.8082682576166076
   322   1      25.603469237436979      3.7002583996502487      2.4015995936907077
   323   1      25.796927994512295       5.609655133750886    0.045118422495432312
   324   1      27.355285513057439      8.0929210652364816    0.039536292512024465
   325   1      27.256778578587308      6.4426959648409312      2.5644058872852442
   326   1      25.656831700638918      9.3076390917252905      2.4127388071735667
   327   1      25.847327364607054      10.980262097817349      52.099258233788561
   328   1      27.187754535463167      13.671137206752325      52.129055244388887
   329   1      27.074779743294052      11.815464813501626       2.733902385161469
   330   1      25.578045188433013      14.698559528861894      2.6885737760821011
   331   1      25.705327543040848      16.590170132015206      52.082119628389549
   332   1      27.385986825713367      19.235698323364225    0.059350696994697756
   333   1      27.182171006348113      17.670070168832822      2.5087960060087435
   334   1      25.488448350640546       20.14835432305501      2.5645407027844129
   335   1      25.720907146655865      22.119015072880288    0.086372309501564243
   336   1       27.63748896463084      24.942371916359143      52.024543202398647
   337   1      27.457769041332014      23.193903522238113      2.5363509804932249
   338   1      25.891915053257154      25.812126123958176      2.7834638949582331
   339   1      25.734099493422754      27.691160503232862     0.27497443566817981
   340   1      27.356768028686172      30.455084387534697      52.024564452083069
   341   1      27.596917567284994       28.44929177828309      2.7425836984315271
   342   1      25.677781648502364       31.50727678379155      2.6821797915996362
   343   1      25.564858654773765      33.068933744570352      52.116645071943843
   344   1      27.190550139734587      35.773871138642214     0.29833833665737558
   345   1      27.165993171596241      34.302455066608466      2.8335345610410081
   346   1       25.68594498492148      37.229177312425655      2.5997674252559788
   347   1      25.662200679889096       38.74477021775035      52.002575434343839
   348   1      27.309791869334703      41.642841952542945      51.971894581882331
   349   1      27.456949176381134      39.809651631449576      2.5594520004816275
   350   1      25.846964124191601      42.398653590563292      2.7563873094812568
   351   1      25.685116598846381      44.365572645342567     0.02981386730487947
   352   1      27.205097491578698      47.416461143875743      52.030504101310903
   353   1       27.47437742314855      45.125990797106191      2.4083823094296379
   354   1       25.64502267567423      48.080220346883969      2.5859377215397648
   355   1      25.545757424461986      49.988324860168539       52.00643195321836
   356   1      26.931721096693121      52.661908145333328    0.060994115105670953
   357   1      27.219446368010303      50.865111388790005      2.5846907560249823
   358   1      25.630669955866605      53.842992404536176      2.5809074139366293
   359   1      28.662458987931466    0.079242415471505581    0.082518833961801499