dump/Mg_500_5/steps_41 (written by ASE) 

3995 	 atoms 
1  atom types
0.0      32.100000000000001  xlo xhi
0.0      55.598830921999998  ylo yhi
0.0      52.130399999999995  zlo zhi


Atoms 

     1   1      32.089102107814931      55.452329259666065      52.069300367475421
     2   1      1.6645383238041411      2.5333831921017484     0.10293205989562117
     3   1      1.8179205716527005     0.85363667450767178      2.8556857070486634
     4   1    0.071064993536368165      3.7716136110470213      2.8206629162014711
     5   1     0.10780141732771001      5.5195916932960589     0.16484643264952123
     6   1      1.6838259457104687      8.4670235629571327      52.023664784314548
     7   1      1.8038993551115723      6.4679321942200092      2.5226136948853157
     8   1      31.957058686847368      9.4537912893753759      2.4743515399396796
     9   1     0.17433951586150498      11.387394932578401    0.060174855850819567
    10   1      1.5052608828210436       14.11972979545398      52.073117411164255
    11   1      1.7308861227593524      12.161947362067313      2.6434539727324062
    12   1     0.16985603944147112      14.945940357816786       2.644965579987554
    13   1     0.26187090368313592      16.765894203963207      51.896214573224441
    14   1      1.7612755103068725      19.488901229909708     0.06271308734853398
    15   1      1.5651310522347675      17.714994268557149      2.6216463364575859
    16   1      32.010591882695188       20.43862092113806      2.4978294324618311
    17   1       31.89991763163383      22.137405765152263     0.06456200257950967
    18   1      1.7468166297399705      25.138144152781713      52.084537364826758
    19   1      1.5711158932326299      23.161793910993843      2.6035095861328887
    20   1     0.10545049193081192      26.043273519367947       2.505164126964659
    21   1     0.19495443117451072      27.718213595103901      51.783388005022708
    22   1      1.3583707674442227      30.597035892030242      52.001039605623603
    23   1      1.7413830479596315      28.683404675612994      2.5805118143236863
    24   1      32.010588284166687      31.412295896950713      2.4979546234076735
    25   1     0.32274048298468372      33.389211718495517     0.17995685818000767
    26   1       1.477595226021986      36.457062203881272      51.883067167408868
    27   1      1.6039644905354331      34.246432491934662      2.6722680470266598
    28   1     0.13034876139937776      37.251433865000081      2.3377482456730223
    29   1       32.04854553371537      39.219479691083642      51.957694225903879
    30   1      1.5446378969701815       41.83667978709169      51.959819549875846
    31   1      1.6362356315461863      39.908207070688711      2.3822630300461167
    32   1      32.066157060922812      42.480120021893093      2.2278913375377898
    33   1      32.043079222232905      44.535385182177585      51.888822722488129
    34   1      1.7024710974036388      47.350367467060963      51.957694910700809
    35   1      1.4672988260945681      45.550176988180787      2.2402312285605039
    36   1      32.093763475541245      48.033625965004376      2.3567793213220161
    37   1      31.781400879557847      50.166796564028765   0.0061044383884398699
    38   1      1.5499418051322165      52.721745046850728      52.018201802620929
    39   1      1.4052650922035619       50.96066229661028      2.3564145472158318
    40   1     0.10148197166539948      53.883389389877465       2.602243987966474
    41   1      3.3511691989235217      55.538449670086159      51.869573936331498
    42   1      4.9798668255740237      2.8638653050354748      51.947860282344621
    43   1      4.8402458905482835      1.0080519651000919       2.382010918576607
    44   1      3.1087819224800906       3.636266696163819      2.6638068813198488
    45   1      3.2487311978135009      5.6032621868651278      52.120516986429237
    46   1      5.0682244204927942      8.3723799917877137      52.001011789409546
    47   1      4.8529251517832508      6.5269197885327168      2.3588983050129748
    48   1      3.2877163503096707      9.3550523985947294      2.5101189702526172
    49   1      3.3717664525259523      11.260057042109141      52.051048710799968
    50   1      4.9920064995002482      14.203111497995016     0.14312980877876585
    51   1      4.7884426576931816      12.209529802053396      2.8114540892756463
    52   1      3.2700653720957518      14.840246262198903      2.7616197176093102
    53   1      3.3648115500942426      16.757411231176889     0.15069428257520331
    54   1      5.0156909953729665      19.352407411425283     0.21476997140269652
    55   1      4.7588006122378879      17.472513250340608      2.7912263796170973
    56   1      3.1047919165463003      20.367950262867296       2.559160469956693
    57   1      3.5448575996050931      22.146431235297392     0.12811774475792348
    58   1      4.7994851080846637      24.819764482800071    0.061043699730510076
    59   1      4.7961269881322997      23.021672677003323      2.6800133351946331
    60   1      3.1213996561688897      25.762572258257411      2.7778884916573601
    61   1      3.3478506012585085      27.738664198490689      51.953269677774863
    62   1      4.9864438699428346       30.57180043513554       52.06676602299401
    63   1      5.0889104333059416      28.645462136751906      2.6196367824755535
    64   1      3.1838762112121715      31.377356956442849       2.428431230686682
    65   1      3.3700233939592654      33.390114520021136      51.950468700774856
    66   1      4.8819284536514536      36.230659932755657    0.095512976537608735
    67   1      4.8150910530620807      34.268066496508112       2.671679242483588
    68   1      3.1199146262419539      37.199641333310311      2.5709433527815237
    69   1      3.1360690260301305      38.942870578379583      52.010022876544028
    70   1      4.7382353328788636      41.872598608263786      51.890337743024546
    71   1      4.6496368869266878      40.145301258695646      2.3061292717498767
    72   1      3.1865297662601093      42.950051926655846      2.6269179033948267
    73   1      3.2175182235025268      44.429459258188132      51.829752673974689
    74   1      4.9936025296701372      47.037150334034088      51.946996862224253
    75   1      3.2815788625182685      48.391624642476344      2.1733402256377943
    76   1      3.1064836205097959      50.109073255310015      51.810142045992158
    77   1      4.7231463943470882      52.584146294946883      51.818418220823354
    78   1      4.6480253871144033      51.046281852588038      2.2729153971425564
    79   1      3.3432465977257495      53.669017740562396      2.3728300588049245
    80   1       6.413282110748586    0.083040031838343367      51.946444335424275
    81   1      8.2076133274882839       2.820115188056862      51.995151137248286
    82   1      8.0227630630412339      1.0818990802832058      2.3735089710656823
    83   1      6.4094946858307891      3.8671215334295956       2.463014007941752
    84   1      6.4475498237996876      5.6549612270627572      52.035785374424755
    85   1      8.3024961712256342      8.4694918102346843      51.940111475897837
    86   1      7.9120872117373455      6.5305250384301488      2.6914005139749468
    87   1      6.4251689294267003      9.2232926871057686      2.6752255255488278
    88   1      6.4774974723578582      11.053206204567958     0.26714105833845259
    89   1      8.2154326936743267       13.78832583493663     0.23081090748432168
    90   1      8.0211207250529828      11.994492756430633      2.8157951529276817
    91   1      6.3964952188150832      14.983220446457553      2.8835936356109864
    92   1      6.8867496811604081      16.716629136350853    0.065992217041181259
    93   1      8.3277305401934303      19.361969251694301    0.056329620756448213
    94   1      8.2774452515988255      17.458506824845585      2.9542728868432624
    95   1      6.5706266824894932       20.27908037031639      2.6523334724801346
    96   1      6.7388391603092082      21.998606452513677      52.118066156937601
    97   1      8.1377008376929609      24.933797189551061      52.092896319996754
    98   1      7.9869892688678918      23.047919879131449      2.6027643596551715
    99   1       6.723023481744316      25.873917419228572      2.6796124982920717
   100   1      6.4431088381520905      27.528651547360184    0.012387142967208917
   101   1      7.7905953054223929      30.266831719516858    0.098621960508435247
   102   1      7.8518550031529557       28.84866267721511      2.7590173832527727
   103   1      6.4421205577158123      31.680714570114631       2.719024842896749
   104   1      6.3891459354033495      33.302639047521424       52.00253099264328
   105   1      8.1189348335696572      36.150471681827234    0.028607802036113933
   106   1      7.9069321019640624      34.555390030499971      2.5810543436161102
   107   1      6.3685700930152844      37.325087777275016      2.4737414225263779
   108   1      6.1901435485910445      39.325225596008863      51.907724412157862
   109   1      7.8597578028561816      41.813253770152706      51.694778409293285
   110   1      7.8532106541099083      40.022778474042909      2.4215234168233803
   111   1      6.3090103959521509      42.778355138219425      2.2892684162145867
   112   1      6.3631058599566641      44.444111291181898      51.963814095503928
   113   1      8.0437962933498515      47.361659295721573      52.123692363795612
   114   1       7.864502753195624      45.464342453942074      2.2246685605671823
   115   1      6.1248518005752972      48.368366665278764      2.5252986723634692
   116   1      6.3381695621705987      49.959353753860412      51.865924072566671
   117   1      8.1408269832738078      52.776018804354329      51.892293685510921
   118   1      7.8242385891308093      51.059451673534667      2.6458656850339874
   119   1      6.4589015223317023      53.799206135571254      2.2010067639250308
   120   1      9.7614215597659761     0.25698228992492306    0.043165132153610002
   121   1        11.3432069441346      2.7689172021195865      52.092146112247079
   122   1      11.381058588148498      1.0309314329740977      2.8112725737351241
   123   1      9.7872967682469287      3.7876304863702419      2.5828600005314204
   124   1      9.4806110029631494      5.6725778025339659     0.19521371931208495
   125   1      11.310143326584271      8.4775289690851974    0.036353135269497815
   126   1      11.065009772314941      6.5974005319030491      2.5678645643795632
   127   1      9.5838921250054874      9.4093001425742564      2.5635087888971748
   128   1      9.7014959683140241      11.157793550424449   0.0087480882755269496
   129   1      11.260302252349675      13.730065463916054    0.097474221369251296
   130   1      11.357471516143193      12.067742114765627      2.8544711849742996
   131   1      9.6955623414669638      14.883692443133759      2.7674372276091712
   132   1       9.836778532344006      16.572784942853922     0.14548452171349405
   133   1      11.429895604237439      19.281102183544185     0.14536684261010105
   134   1      11.318340324026295      17.539905514703509      2.6971745843070147
   135   1      9.6989873415838801      20.353476345696709      2.6854053866164627
   136   1      9.6868761749041532      22.283341281551326    0.030663089529669271
   137   1      11.224987909313857      25.134894106506508    0.004748218827384609
   138   1      11.212803505076321      23.210728054147545      2.4185723443994025
   139   1       9.553149574916354      25.978295085925836      2.6260777863924858
   140   1      9.6176277246005757      27.856986662154508       0.126965708497705
   141   1      11.233958284920767      30.586411642116914      52.027044249517047
   142   1      11.168126966281081       29.07099906434577      2.6606825436921371
   143   1      9.5442264391967431      31.724536060250465      2.6603368792233315
   144   1      9.3089345006123256      33.234733250739765      52.068248127575835
   145   1      11.118744156609667      36.224511326760037    0.092042702092856615
   146   1      10.928684413640408       34.31793544939174      2.4935797520256329
   147   1      9.5186565911443601      37.341024161613639      2.4850046132114754
   148   1      9.3140468567178285      38.896401307097179      51.933864683376861
   149   1      11.171395552083792      41.835627010146389      52.113221089373702
   150   1      11.238908054665481      40.014180508528256      2.5921648008259841
   151   1      9.2617599269056612      42.701833623554549      2.5669308960136488
   152   1       9.583481283143664      44.574218908820789      51.966623079028786
   153   1      11.310088696469069      47.268456069194421      52.003901200347791
   154   1      11.318170441317086      45.281637870715173      2.5747231886812023
   155   1      9.4446573373092413       48.12285652115758      2.7796130488643955
   156   1      9.4920826907378171      49.921909492349911      52.012012622191044
   157   1      11.275163418547477      52.761151282760174      51.912026357307106
   158   1      11.366796904748089      50.904557636983853      2.7269477967246458
   159   1      9.6018144282786384      53.739666230620301      2.4708105669538187
   160   1      12.657540633310534      55.541484073844948      52.065871497474141
   161   1      14.282416071676511      2.6080653718390825     0.16143393201635128
   162   1      14.428089401505019     0.65721274014530662      2.6648338302894143
   163   1      12.828442972058362      3.6861425690818748      2.4493172963949394
   164   1       12.74277045647365      5.5104485034855655      52.067480192972127
   165   1      14.502414773523618      8.4913420100106798      52.016394014903966
   166   1      14.638353643355416      6.3039494040187307      2.8476171738797942
   167   1      12.824259213022465      9.2735431598288667      2.9027932177422362
   168   1      12.760972911154409      11.062734240365709     0.28068004345983116
   169   1      14.553500438163148      13.953824426443806       52.10608826529193
   170   1      14.616236680624246      12.420455675960442      2.5953390883904759
   171   1      13.047633668593109      14.797611415241702      2.4948812504530573
   172   1      12.768218300854498      16.621033942741327      52.055273987046945
   173   1      14.752119945209643      19.097875750872952      52.128343273169079
   174   1      14.591014857912407      17.470944332631387      2.5629980910350607
   175   1      13.053838584582548      20.126648446539345      2.6527652802852693
   176   1      12.903045313884887      22.034322088137138     0.17300214648299789
   177   1      14.276601375892708      24.953333816462486      0.2083010746978492
   178   1      14.412276683955042       23.03963676828068      2.7800981562454239
   179   1      12.917785340189752      25.765233298750569       2.809779239918075
   180   1       12.74085020302207      27.703672500174207   0.0068793798044552226
   181   1      14.500204672454009      30.605994597755988     0.19508935586536177
   182   1      14.451822543125036      28.843129706524575      2.5755495607860288
   183   1      12.799415869185973      31.708248307506416      2.4955060951590458
   184   1      12.467326480613629      33.281377467790968      0.1495804323596249
   185   1      14.367912401001224      36.273070201804686    0.079557036277796631
   186   1      14.474943655264758      34.789756258973576      2.6624107409802376
   187   1      12.655622199551317      37.211040108105202      2.5340790012909817
   188   1      12.848043303270419      39.003939999975771      51.829834488082952
   189   1      14.466347411671373      41.823142997748754      51.954878266669205
   190   1      14.429406329465655      39.784440729383576      2.5282562971052376
   191   1      12.980023514158306      42.661640543998168      2.4738782989088266
   192   1      12.786632024727982      44.483968854633389      51.899751990529104
   193   1      14.303439568689996      46.936913989728119      52.045843980957585
   194   1      14.418428546715962      45.224909319981876      2.2773305785286837
   195   1      12.805281560115914      48.117634572941753      2.6822201863117656
   196   1      12.746791017131331      49.795648076786925      51.883576116405216
   197   1      14.237856291641267       52.72892916600621    0.090915124694193272
   198   1      14.587402291570886      50.835833094490773      2.6367304486231555
   199   1      12.859825552348525      53.536174368498855      2.3489417483573303
   200   1      15.831608093890559      55.074195366505734    0.069333093638779209
   201   1      17.466851576360021      2.5129233325872287    0.066086766724545498
   202   1      17.701432603171494     0.71683147604095054      2.6157879059370139
   203   1      16.055336510107807       3.374196519324296      2.8045588987535894
   204   1      16.227343450849148      5.3789344607404184    0.020725231399152489
   205   1      17.580029524561848      8.2265728052100933    0.079144508664013041
   206   1      17.776699997939087       6.295707431746516      2.7439383236524835
   207   1       15.97087194898257      9.1209000419858555      2.7555103470710365
   208   1      16.241183672425269      11.124817417802563     0.12277564818597626
   209   1      17.844759647058705       13.74626868132677     0.14247441905731079
   210   1      17.878614067879013       11.95780475448939      2.6748470814862335
   211   1      16.422742798824665      14.884196810552561      2.6615475330211158
   212   1      16.180893289647262      16.503660059985233     0.10321950763877998
   213   1       17.60372792733148        19.2641455829073     0.05305830396857291
   214   1      17.748796902403438      17.699453440610576      2.7054916556327231
   215   1       16.10277515156967       20.39821976536599      2.6587480226738927
   216   1       16.12361136034027      22.262447761335814     0.13110588562920003
   217   1      17.680952079276594      25.070389018338719      0.1655651151072938
   218   1      17.478286320574799      23.237044199304275       2.718870373668246
   219   1      16.043216676527013      25.961902833692704      2.6409297737472088
   220   1      15.878945814848104      27.798316633672208      52.108351729415872
   221   1      17.570734899522062      30.925463212047969      52.039264480774747
   222   1       17.54509795461777      28.635804271617175      2.5322483951580956
   223   1       15.91877343087951      31.578244860027453      2.5902653277492731
   224   1      15.921388290195397      33.543222371232339      52.079185547383368
   225   1      17.576941334074323      36.483136280703874      51.945356798019489
   226   1      17.475508612896913      34.436415665497556      2.1330027603088899
   227   1      16.141631875075749      37.344589407823129      2.4948811505434416
   228   1      15.936168744920629      39.134280099486887      0.1096516750129671
   229   1      17.672402594305471      41.912127851663946      52.129169958728617
   230   1      17.698754247639709      40.175159398290027      2.4660964689555618
   231   1      16.317645064627971      42.743515218972341      2.7750341415390163
   232   1      16.121931366607388      44.482883193596571       51.88373161784147
   233   1      17.705473224142686      47.283112487913549      52.074457284349215
   234   1      17.504395512834666      45.326176706043178      2.5796299770377189
   235   1      15.856868795779834       47.94649968467116       2.541633510249933
   236   1      15.961807462371365      49.760595689562386    0.029127932324972173
   237   1      17.634406780114773      52.389539625651722      0.3945029858614662
   238   1      17.778100085507852      50.636781721700068      2.6534615298396691
   239   1       16.01149467622189      53.445711519343476      2.7563520300786877
   240   1      19.100643695779013      55.134860348740162    0.036297030211654244
   241   1      20.491334915622289      2.5619675469755308      52.056588825352115
   242   1      20.788341507600556     0.68660393535535491      2.8823385930277508
   243   1      19.121218382827443      3.4029519180333661       2.583872959979594
   244   1      19.251667943229748      5.3539951605853053    0.045655507750885942
   245   1      20.773364070998444      8.4211071833197177     0.27219913963567427
   246   1      20.756912915381069      6.0418512206578079      2.4540296980869742
   247   1      19.385513197160321      9.0141878041382775      2.7176719184565545
   248   1      19.319326242177599       10.89558502199057     0.19298507107896673
   249   1      20.875882079344535      13.653181490614488      51.936240570210366
   250   1      21.104457263739924      12.034759139748354      2.6240795568259285
   251   1      19.712550503907131      14.935414886152646      2.3531499640860263
   252   1      19.390449335986407      16.713924347423266      52.016943202987441
   253   1      20.976888825943703      19.612825715530914      0.2274842530959422
   254   1       20.83285392268904      17.604395291952148      2.4512637777405102
   255   1      19.227068247469028      20.394111215869785      2.5965169998309352
   256   1      19.196461886415452      22.328166035811858     0.39308581877907206
   257   1      20.595510180631472      24.954884391460546     0.10972294040987721
   258   1      20.932242193233648      23.111463024419546      2.7123211378080412
   259   1      19.474612396470178      26.394851101295689      2.4454228634239716
   260   1      19.147316559499046      28.147641230939612      52.043099565421265
   261   1      20.873537102467978      30.755512757096461     0.12945082693367971
   262   1      20.944254069306222      29.104493774415005      2.6810027443495139
   263   1      19.058945562716513      31.710487462021661       2.494658664041423
   264   1      19.443313010986099      33.452080528187373      51.991973121445447
   265   1      20.862942727416954      36.083771928256382      52.114687503037011
   266   1      20.718155029452181      34.546110169443885      2.4411811165154194
   267   1      19.368054624680223      37.147834444335068      2.4811583717846295
   268   1      19.303466616042712      38.869574729932836      52.065818371705895
   269   1      20.840158067124605      41.654581909975725      52.086697996361231
   270   1      20.837482455296339      39.812759894449549      2.5614366621467966
   271   1      19.517344843392888      42.825544646061779      2.1643108563147009
   272   1      19.094412384602922      44.647029186909251      51.834996847008313
   273   1       20.68637795919059      47.215926012470014       51.92927643185017
   274   1      20.911894965569438      45.571065551948209      2.6445786203103037
   275   1      19.157399077687746      48.002921900829968      2.5051828767069466
   276   1      19.307877838258097      49.900825479533154      52.048396049169746
   277   1      20.953006430448916      52.809184454294837      52.080065318407705
   278   1      20.923635868047764      50.587311238124144      2.5614514219169302
   279   1      19.251431470179856      53.351202045769561      2.8646237533280781
   280   1      22.241331442729688    0.063947619642132969     0.16681175729374367
   281   1      23.981973487225357      3.0723028722790917      52.127925856020248
   282   1      24.117302029698205     0.95885377909572345      2.8854531121679585
   283   1      22.754610752675664      3.7131006717909627      2.5852224409220632
   284   1      22.304160328537055      5.7115386397751813      51.626324586878887
   285   1      23.938277515080024      8.6874823654401112       51.91082127170732
   286   1      24.176092503159659      6.3635444812628457      2.5089162541192058
   287   1      22.565581501966321        9.10716171751384       2.708191875319172
   288   1      22.458717080188816      11.113565402426744      52.107766453997172
   289   1      24.046351189324231      14.035283570408978      52.107509265841372
   290   1      24.155327239762475      11.778255125023458      2.7619616253745876
   291   1      22.509490606101714      16.744733517983697       52.11240580120905
   292   1      24.125038168401908      19.517703925107337     0.13324272718331892
   293   1      24.073818610045944      17.685923612710042      2.7795904806284697
   294   1      22.633737146970994      20.542363103812153      2.7394870111666014
   295   1      22.285633774148813      22.415302293002004      52.111953764613482
   296   1      24.112775795125359      25.068153934903041      0.2386658220571661
   297   1      24.122671108108445      23.200726801154996      2.7942523989929819
   298   1      22.496883687568069      25.818317074905504      2.7224592955123268
   299   1      22.352393133927421      27.813020818905006     0.31857448294757768
   300   1      24.187861367015053      30.404940857633683     0.13959911810330861
   301   1      24.144235703888199      28.722986904536885      2.8299556002355004
   302   1      22.381407964171945      31.783744254282961      2.5888155090626608
   303   1      22.645314402194042      33.482558539317715   0.0080475811953131648
   304   1      24.096142630090068      36.464220416878746     0.12882915536849687
   305   1      24.003738331307133      34.343284891205037      2.5348328169613539
   306   1      22.546366214112375      37.291979217406805      2.4282840449154701
   307   1      22.472048763250637       39.08789403953984       52.02045974722153
   308   1      24.113003160374635      41.933913600263956       51.90355446041373
   309   1      24.207452128404498      39.817088674673073      2.2990414145638658
   310   1      22.653051626425341      42.578683131224636      2.6640408927736865
   311   1      22.277616236059213      44.437692378835791      52.071171876456077
   312   1      24.084005453623977      47.321696222227864      52.127022325063102
   313   1      24.152260167727722      45.557864862763566      2.5797101898510917
   314   1       22.53261299679766      48.127597635838754      2.6665191268811523
   315   1      22.459635333799707      50.176586234595682    0.011754283717764158
   316   1      24.002252511873056      52.915761936457301     0.20450091112637367
   317   1      23.927303127365786      50.862194284470377      2.8405889763067909
   318   1      22.231416767465646      53.536718731192558      2.7584790883489525
   319   1       25.70241841154316    0.067256026980827929     0.23790203063261595
   320   1      27.277138637386528      2.6201513996690609      51.956222231401284
   321   1      27.261021944448466     0.93345699806494054      2.5832901595611855
   322   1      25.867761703998656      3.7834178543716601      2.7542741794104719
   323   1      25.908696510191909      5.6710190655481858     0.12328192941244764
   324   1      27.397424258329469      8.4184566896476358      52.118085804180339
   325   1      27.393486052237549      6.3960082797421327      2.4357927998748443
   326   1      25.809079534715217      9.0389310804253942      2.5869669802480382
   327   1      25.921264072509082      11.228609701730923     0.11072747813164388
   328   1      27.595199991389272      13.946803348554203       52.03699864666585
   329   1      27.172972438830818      11.870299292015536      2.7519677190573053
   330   1      25.941471102814877      14.905568398789462      2.6828791895396829
   331   1      25.937342418683944      16.653137075981164     0.12942813013924112
   332   1      27.260229374168087      19.381218372582289      52.122933916267279
   333   1      27.394227567292564      17.522460081135701      2.6694473123635718
   334   1       25.83012284712358      20.281147996743027      2.8754356781493597
   335   1      25.500775767324939      22.274753942291955     0.11697552616352479
   336   1      27.288738984045604      24.885884240070478     0.27382890669589954
   337   1      27.502094939576722      23.106328682530858      2.8796527776553318
   338   1      25.935688795245515      26.009071867368302      2.8890537338797726
   339   1      25.810688357701924      27.822834910247945     0.12201874624602356
   340   1      27.284535119283685       30.54582887615706      52.091297405296466
   341   1      27.420865747265662       28.76171960733959      2.3879910046068784
   342   1      25.844782343726287      31.773565673684313       2.360381699808543
   343   1      25.833815825924773      33.313934746669311      52.017925294965977
   344   1      27.193818194082823      36.127457839586341      52.032263473827953
   345   1      27.534424943653828      34.369235999694652      2.3792210463663324
   346   1      25.740390648135413      36.991336011493651      2.6605794540478849
   347   1      25.836689729066862      39.269635586612878      51.951690720761327
   348   1      27.251482848963366      41.890428277211655      51.906018271775636
   349   1      27.312711669130525      39.946808986842044      2.5391272322514733
   350   1      26.035320454725753      42.958550635318808      2.6576581832141515
   351   1      25.602462280260632      44.488206540018176      52.051195342679677
   352   1      27.182279881911754      47.120873634069753     0.17776889677226393
   353   1      27.342458220719998      45.505681610287667      2.4942686454337175
   354   1      25.620006645236298      48.396323379331001       2.516916591767933
   355   1      25.537744647789207      50.241126927319513     0.28968558471268974
   356   1      27.101794719880864      52.927893551521734     0.33402150028483418
   357   1      27.177928372053433      51.125347171929491      2.7652960477149269
   358   1      25.464937072093846      53.947358334770541      2.6700179467325866
   359   1      29.055711249878115    0.095047099512697117    0.073792680884721601