dump/Mg_500_5/steps_11 (written by ASE) 

3995 	 atoms 
1  atom types
0.0      32.100000000000001  xlo xhi
0.0      55.598830921999998  ylo yhi
0.0      52.130399999999995  zlo zhi


Atoms 

     1   1      32.021610875382095      55.573874915233404      52.094105984047488
     2   1      1.3785312212265173      2.7456312829808303      52.109908163410012
     3   1       1.375260576370716      1.0186517194300617      2.3868640822568645
     4   1      31.886422657974776      3.8141520813134204      2.6234492888495633
     5   1      31.850547942766145      5.5871794963570016    0.063063816520171193
     6   1      1.4789778379093286      8.5783129771958588      51.821263866391888
     7   1      1.7172595493819494      6.7961537613409071       2.549415864174549
     8   1      32.073617078479835      9.1118279461403784      2.4546383912341025
     9   1      31.873899908181418      11.217878040430518     0.17197214117288082
    10   1      1.6532109386848701      13.871368406930753      52.127721726028646
    11   1      1.2518832442504955      12.081058190891353      2.5726458696532886
    12   1      32.044126506076665      14.764179073980577      2.6576879827241857
    13   1      31.959394369118691      16.729514576393356      52.128968972473302
    14   1      1.7527718786096493      19.344828408151184      52.052160736201181
    15   1      1.7867177581140945      17.409977992421503       2.309746381731014
    16   1     0.12468908922186453      19.929972082766437      2.6425344198920597
    17   1       0.426971854704428      22.004859123117239     0.21785456520057084
    18   1      1.6288931455331672      25.200585033941309      52.113266524803947
    19   1      1.6318287635169018      23.458907023666324      2.6058786189402912
    20   1     0.11168453281883516      25.925200591825305      2.3842050913186439
    21   1    0.070804004553217698      27.922168236905605      51.972298491728644
    22   1      1.8291711786573743      30.615982642860057      0.0187484605846116
    23   1      1.5242813171596259      28.620822955305371      2.7407086426002087
    24   1    0.062652457307378714      31.318164434345199      2.6205947664348375
    25   1   0.0074722659003234864      33.308184457516049     0.22590949854177786
    26   1      1.7194569188634936      36.375696733069631      52.022335085677717
    27   1      1.4794064620853455       34.06991371326523      2.6982824765301183
    28   1    0.072137670578208607      36.847022887928368      2.7720936744870821
    29   1      31.941386971442764      39.069644148408528    0.067411812037497451
    30   1       1.657599555378525      41.762990615392063     0.17944718976979726
    31   1      1.4780399309637842      39.856463826348289      2.6207176630035649
    32   1      32.014999874896851      42.709802341726522      2.9144862646583003
    33   1      31.908660410657454      44.405461842879575   0.0020600250454339422
    34   1      1.7115926770783307      47.449618657225756     0.28609297784065696
    35   1      1.0932826600776742      45.613329868593375      2.4867331890751236
    36   1      31.960305966653667      48.266932698575978      2.4638978104151512
    37   1       31.93075185492123      50.204831903518858      0.1135937860348251
    38   1      1.4176752516603113       52.83095215549411     0.10060717063935445
    39   1      1.1676416027285001      51.105426193030915      2.7407372856644252
    40   1      31.775129879855658      53.810397143480515      2.6387489139408657
    41   1      2.9332909151043509    0.001870290336456045     0.13973037441868408
    42   1       4.721962605979801       2.682762902234864      52.033279528115493
    43   1      4.6363508852873334      0.8999540326490123      2.6417016254206933
    44   1      3.3942358631141909      3.7932974576248779      2.5698093927478447
    45   1      2.9163437325780932      5.3958113466127129    0.014582477127427511
    46   1      4.8433154142584565      8.1763133524478846      51.934958465286783
    47   1      4.8187757011255066      6.3934493071872573      2.4981706746351433
    48   1      3.0200948796328708      9.3021712132149954      2.3497826690518777
    49   1      3.1805044266540112      11.073663166431755     0.11378076742791121
    50   1      4.8257594592252051       13.94609851949607     0.20435681539994768
    51   1      4.6198427404267939      11.883285612054792      2.8115613526918453
    52   1      3.2177076006172931        14.7476736875022      2.7627112097322275
    53   1      3.3979252753971223      16.587050192372878      52.055967457531011
    54   1      5.0401585987461335      19.337245972956122      52.014355273430908
    55   1      4.8260751999088507      17.762722166624574      2.6040533194256845
    56   1      3.1564152724906447      20.439402424111073      2.5104867313054946
    57   1      3.4299579548248986      22.529903382398349      52.062856273718175
    58   1      4.8734882816620235      25.099838838697583      52.006142208149633
    59   1      4.7364002376662544      23.221358211077103      2.7356321114673463
    60   1      3.1639593211254473      26.160107459237775      2.4115530416329607
    61   1      3.3960294641145579      27.998120755757888      52.025218849746111
    62   1      4.9410496363507077      30.795923432184001      51.927320099690789
    63   1       4.901926146422527      28.688500131208141      2.4594268505413277
    64   1      3.4007877306018384      31.394007764657726      2.5994187367699757
    65   1      3.1497605076471835      33.625871375059397     0.15577766820829569
    66   1      4.9015949229369262       36.11491180938409     0.17317725215012311
    67   1      4.6151280317373615      34.276582188733954      2.7704610385961135
    68   1      3.4242960542244365       37.38136522713851       2.616124788997682
    69   1      3.2755880089758906      39.034244228861432       52.01803986213492
    70   1       4.761372023156091       41.91986259724689     0.12367255589946406
    71   1      4.8132034520851432      39.859751330270974      2.7156055160922112
    72   1      3.3521819332870053      42.441951087776836      2.7181553803632932
    73   1      3.1088025441545084      44.583529590379804      52.099387797584782
    74   1      4.8640368993569085       47.26352009270289     0.31728873163412641
    75   1      3.2468834412664163      48.598753539611273       2.960483882145033
    76   1      3.1303451730665892      49.995404071577227     0.17647393579886961
    77   1      4.5296881375279732      52.707899034846093     0.10780363945244502
    78   1       4.481075567768654        51.0352938149518      2.7066974065577911
    79   1      2.7740980930924986      53.888490348371356      2.7356101093997403
    80   1      6.1034312827678914     0.13227307414220127      52.001327765114624
    81   1       8.029412843375983      2.7242683454790981      51.851330966340285
    82   1      8.0036852177116646      0.7650170954989215      2.4505051500335018
    83   1      6.5278702982521546      3.6035617922252654      2.5306441512949513
    84   1      6.3913888414136775      5.3492738547755501      52.117747236352422
    85   1      8.1485278119969351      8.2076644113337558      52.007401624273676
    86   1      8.3580833252454223       6.431433509852047      2.4530711181073834
    87   1      6.5854357844794134      9.0867525728379519      2.4088186667256735
    88   1      6.4307451619926166      11.296768294469464      52.106039619842974
    89   1      8.2501126466048262      14.147037162564333       52.12420437749784
    90   1      8.4671877110898954      12.321884106770939      2.5897631945676407
    91   1      6.4554222128443746       14.91863885947517      2.7604280300977386
    92   1      6.6351178846160783      16.631853168708105     0.12476790603419251
    93   1      8.2588278117549923      19.375360462214854    0.070818421203607138
    94   1      8.0222899468380842      17.842317081466792       2.901703197570431
    95   1      6.3760142170271621      20.638655500013964      2.5114987441725694
    96   1      6.5609530420801461      22.206957205831522    0.053584150292970381
    97   1      8.1360370598721321      24.777963587869682      51.851671192953503
    98   1       8.029465193473742      23.136255110129881      2.5076059254667302
    99   1      6.4776935542290008      26.207215907149049      2.7054813169312917
   100   1      6.6687636884470924      27.745131221824366      52.119599974204867
   101   1      8.1393267133213989      30.570297837736021     0.13664980891990178
   102   1      8.2759229640746952       28.89592137337949      2.8295298847063939
   103   1      6.5967107017583562      31.811047602359665      2.4679440209222436
   104   1       6.179455115998592      33.393317837547059      52.089982540739676
   105   1      8.3363740057740934      36.195308040545939     0.16894172202235591
   106   1       8.330663522275378      34.078547247566206      2.5803097741902148
   107   1      6.5296339944883464       36.63342391619328      2.6498683082313135
   108   1      6.4001464439171052      38.648813880545383   0.0075396751248400359
   109   1      8.0772336489738787      41.450065118700984     0.10139578307855868
   110   1      8.1473580889995123      39.764348301242713      2.7416128536841642
   111   1      6.3570443050763483      42.781339867214129      2.7390942601867478
   112   1      6.3952714353656166      44.542675908922348    0.086014002068739173
   113   1      7.9690697690453529      47.455535726222209     0.17402435211638198
   114   1      8.0538876186183295      45.346792698621854      2.7387804376560059
   115   1      6.1210662369341797      48.492784207091404      2.6633124132469237
   116   1      6.3384755848791219      50.328509934625401    0.071695189827811839
   117   1      7.8101472250402146      53.137953303529201    0.025899965186672549
   118   1      8.0013866610461069      50.840386095658467       2.767400962747403
   119   1      6.2133425487141194      53.830073512941105       2.779678961060422
   120   1      9.7428551679253914     0.23654712036637413    0.042152325053082584
   121   1      11.259027091977568      2.8322696257385847     0.25000212463578475
   122   1      11.209019300835406     0.92766822472570487       2.660470394984789
   123   1      9.9493775850131829       3.885683573437277      2.7872378488377572
   124   1      9.8455899479941831      5.4943545281901862      51.916264803977235
   125   1      11.146883122563832      8.4811259377836237    0.025587725172579782
   126   1      11.560155511962725      6.6082565988420079      2.5402521752377702
   127   1      9.5147414688321081      9.2678422472754551      2.4422204232046183
   128   1      9.6717748146649729       11.20584343833943     0.10443000139034637
   129   1      11.127566028574602      13.918105978722375     0.23514587544664775
   130   1      11.490065363238809      12.107984981050524      2.5449451128497569
   131   1      9.8632755701863886      15.039737042574304      2.8988601501349369
   132   1        9.59736537332161      16.862362033530907      0.1235065519166432
   133   1      11.476304948089805      19.530860578359722    0.039209455103151061
   134   1      11.236125256866771      17.606236829185697      2.7446785922354779
   135   1      9.4779133383615655      20.583035148565834      2.6201206768597229
   136   1      9.5266014330422326      22.025224738584935      51.982810824732987
   137   1      11.149635861351458      25.015327218204071     0.16492485116724814
   138   1        10.9377399827499      23.136399501175031       2.517589579681184
   139   1      9.7498325787588112      26.002245706969461      2.6704486428313605
   140   1      9.6866855905487306      27.707239877738139     0.28400162931090767
   141   1      11.178917297100055      30.460688648648699     0.10533523432838421
   142   1      11.358978071866732      28.760763651321113      2.8714227292593555
   143   1      9.9538255978954204      31.539689175639868      2.8252188953365702
   144   1      10.024076230897528      33.730756668202133      52.078291573698486
   145   1      11.586406535324572      36.272400419386017      52.122470860985707
   146   1      11.345225368212271      34.610643774137628      2.5989055502646736
   147   1      9.8049310926307367      37.043732780873995      2.5858580425654436
   148   1      9.6418435118517465      38.789211279573372     0.14612438940505351
   149   1       11.11617180413792      41.730832991816087     0.28027451235211043
   150   1      11.367527394441908       39.60300098981255      2.7402676348368762
   151   1      9.3980898154823738      42.659962529407842        2.63911830879867
   152   1       9.671773985106249      44.435851977403019    0.045169822781091884
   153   1      11.053763323814735      47.282425704271454     0.20173587181346964
   154   1      11.059267650798146      45.364919583608788      2.7485520076794283
   155   1      9.5262577530344643      48.421361898532808      2.7424398049897736
   156   1      9.3957597500805186      50.443912338628415   0.0062866001292840512
   157   1      11.106335648822037      52.965391756329844     0.21583461948642235
   158   1      11.162017682592159      50.916542331150318      2.7054013972742381
   159   1      9.5885927831633175      53.723289853069772      2.6347932565013301
   160   1       12.76106341627135      55.598737587675906     0.10569440815621291
   161   1      14.333168311901639      2.8867263290836243      52.119750020195561
   162   1      14.413079612565213      1.0342379784416655      2.6438173975668606
   163   1      12.864895655998572      3.7247336574647423      2.5760471584100553
   164   1      12.867986195293756      5.7294144750046927      52.057175545800611
   165   1      14.230710492794758      8.5089357208940655    0.044666002906082934
   166   1      14.581056121047173      6.3716760239142998       2.584943109255847
   167   1       12.66255425287464      9.3562171877955294      2.7001693898751404
   168   1      12.648234438521758      11.183325237684151       52.00736331640308
   169   1      14.342978641004278      13.747892668748026     0.32325494131622107
   170   1      14.705355239872148      12.120421524886973      2.8877163001477091
   171   1      13.138576574988077      14.776196270743334      2.7146368072462761
   172   1      12.746331541021284      16.781718385599035      0.1595455450192981
   173   1      14.446741759462491      19.550319440180676      52.114767536611041
   174   1      14.452560460496411      17.565128299174681      2.7767178289446757
   175   1      12.497079906738065      20.252903094242505      2.7183209304383191
   176   1      12.638621385269158      22.249358684720001     0.19081882218584381
   177   1      14.429275126548166      25.031445301298298      52.086294626713169
   178   1      14.300231238592087      22.725578229396376      2.2950706011590478
   179   1      12.884903735578984      25.713728383920415      2.8403232307068063
   180   1      12.772695529106279      27.690717546064462     0.25315496828239425
   181   1      14.340972572369141      30.627178290902851   0.0085905726393524888
   182   1      14.472961625385169      28.778451012489221      2.7533412143708054
   183   1      12.957015863242811      31.544043365941729      2.7563367933228116
   184   1      13.003665151152573       33.31264744150657     0.17689518218911357
   185   1      14.542321218591965      36.012809695518428    0.016457512956673158
   186   1       14.63373784323027      34.543104576374134      2.5180636216780337
   187   1       13.01944021985884      37.104787509016376      2.5538540490002388
   188   1      13.173116394146403      38.931085135819444     0.12521944244457592
   189   1      14.729227708320678       41.52126994202105      0.2061111868859524
   190   1       14.75372678361548       39.89614321624839      2.6236362000664859
   191   1       12.85304135247746      42.801984522918318      2.5452094570422372
   192   1      12.698843129473694       44.57513574164016      52.034550085406394
   193   1       14.11788613062674      47.490132796003905   0.0013562249186476925
   194   1      14.481836088042087      45.605508382337071      2.4161983189618241
   195   1      12.820031325795728      48.327288306170054      2.7078151807001603
   196   1      12.666352656244937      50.129989296347283    0.012330425502173876
   197   1      14.436937391627358      52.839344352632224     0.16579313669572132
   198   1      14.438551481786636      50.915599634882952       2.601784622774117
   199   1      13.026048649207247      53.682439833384862      2.6560836899137388
   200   1      16.099035243104925      55.559425058644877     0.16466297876879574
   201   1      17.488005876286032      2.7132808845892691       52.05354818115638
   202   1      17.655362435105168      1.2999576078739681       2.604844771874864
   203   1      16.137084760111609      3.7814988252918553      2.7063059531465323
   204   1      15.977260753471857      5.5370372246285635      51.888977985544116
   205   1      17.512516007300988      8.2599848164642431      52.061466671013356
   206   1      17.793601850266992      6.3636205752708621      2.5965870218219012
   207   1       15.82642818456403      9.1417738555381227      2.7809755309591284
   208   1      15.715431450368488      11.118730530932261      52.053797380978857
   209   1      17.543997584349228      13.977104478773287     0.11049889982179757
   210   1       17.59912720396364      11.781547240484109      2.6906945026441158
   211   1      16.169652262997193       14.85843335955833      2.7271585815928261
   212   1      16.280376969075743      16.911143249691058    0.039080292373704931
   213   1      17.823812124142876      19.601912869063373      52.081514732018263
   214   1      17.758388725135426      17.575034074662348      2.6308745737038088
   215   1      16.189569861535411      20.045994838121558      2.6804109257339768
   216   1      16.053582200810808      22.137321965516019       52.04476149804718
   217   1      17.895065257438947      25.258482498378822     0.27443117822323104
   218   1      17.477619816364868      22.830090778745816      2.3653097976453052
   219   1      15.906385579165049      25.758555697729118      2.7365056407809161
   220   1      15.870081293455316       27.82105956444185     0.37197760419787068
   221   1      17.707743917934327      30.398842183088938     0.11857181722591519
   222   1       17.55048009923571      28.814449696371881      2.6515941164776753
   223   1      16.101067064948115      31.672495556598314      2.6456821603370329
   224   1      16.109844525007336      33.335426133153263      52.085847106162063
   225   1       17.73455230013888      36.069119751709721      51.909608253409608
   226   1       17.96064213011277      34.331019520433792      2.3761884742637269
   227   1      16.468231541327768      37.239871985547467      2.6320262102959311
   228   1      16.194156084706378      38.655556996612262      52.038265302784907
   229   1      17.960465579206367      41.659497766704533       51.95602754046525
   230   1      18.293628899871276      39.995114788930948      2.3742277974020758
   231   1      16.322214104101786      42.750086871467509      2.4505013818028538
   232   1      15.901222095365453       44.61289862841322      52.059489892731364
   233   1      17.712052765862154      47.232275809585254      52.059470731903495
   234   1      17.571130937316756      45.547694780965671      2.4647863722145389
   235   1      16.352947234195955      48.339504084130333      2.6103876063652822
   236   1      16.083907267232988      49.808827364775574   0.0034146375658146086
   237   1      17.403242334076314      52.737511207055171  0.00084213711102302244
   238   1      17.623956020298834      51.268307213539991      2.4421909451679165
   239   1       16.10238097131473      53.923169160970367      2.8278098391078115
   240   1      19.421386846144582      55.218599920771567      52.084292632460006
   241   1      20.647962528847696      2.4554510576847295      52.052573422077295
   242   1      21.019328028607269      1.1201447746761986      2.7939826145683728
   243   1      19.387762547436616      3.8277711977924698      2.5594476571809937
   244   1      19.013121945146935      5.6588043283989267       52.08536182136708
   245   1      20.940545918364752      8.5369617973383214      52.116220843493352
   246   1       20.74637993730985      6.6367568886541557      2.7834612001070083
   247   1      18.933092455055057      9.3847751072723504      2.7719975214078665
   248   1      19.150121461811544      10.985022615672211     0.15167615603923784
   249   1      20.806040107700863      13.880773476519389      52.112525800819668
   250   1      20.786358364180956      11.848662007506032      2.5694205293532337
   251   1      19.189464674795516      14.757567683159582      2.7229696977941704
   252   1      19.271556570065311      16.695783642499347     0.15102226679333594
   253   1      20.929787912626498       19.29078609497034       52.00666979171784
   254   1      20.824042961324238      17.628141196535932      2.6960599813141384
   255   1      19.394031020958298      20.378015568518531      2.4834467932366109
   256   1      19.301096861873905      22.136375325528007      51.983220308603087
   257   1      20.921481011147133       24.78918833929815      51.967023319013165
   258   1       20.69666666788461      23.238945995431791      2.4591086580405186
   259   1      19.313669616949788      25.999621474238687      2.8846554142535403
   260   1      19.259745109683028      27.720754669487061      52.046597641696358
   261   1       20.96556985490966      30.407222446016121      52.042113643158238
   262   1      20.927292874249005      29.042088004986969      2.4896458731105247
   263   1      19.519843832283922       31.68150446007883       2.216094875841546
   264   1      19.195466472643414      33.323283759253627      51.977813884325307
   265   1      21.050883794492393      36.157190458600176      51.955314600993972
   266   1      21.125506390642698      34.460054387970608       2.301084350714746
   267   1      19.639360181344284      37.216774659226374      2.4246983871016146
   268   1      19.508137443805076      38.867853341545164       51.91426296937324
   269   1      20.882947720167561      41.769239920380379      51.985962602636519
   270   1      21.227262160719903      39.839168050640382      2.4301570461574933
   271   1      19.610429492353191      42.676736068487436      2.4482629086697134
   272   1      19.054172037030092      44.354356987191245    0.069138945321964143
   273   1      20.667402159568638      47.150352997455116     0.11405370574985428
   274   1      20.954863439887379      45.557013385015097      2.6715078171328135
   275   1       19.31814431279528      48.295843572442955      2.4175771225708171
   276   1        19.1003912123921      50.027506948645446     0.21441623276351496
   277   1      20.996035080014476      52.926875891408912    0.017821915280102265
   278   1      20.703979995724318      51.109474725361693      2.4944393413222037
   279   1      19.294434074943556      54.010183087197277      2.5677932401795189
   280   1      22.558469764056486     0.24170477868287021     0.12394338797638796
   281   1      23.901274851328765      2.8063305899497788    0.079462900343992005
   282   1      24.084104322819112      1.0289014305535593      2.6941186891405962
   283   1      22.471622570248009      3.7439372162310378      2.6398990560491669
   284   1      22.274486398827651      5.7561672039861289      52.070539007555269
   285   1      23.793393471239579      8.2924633931790037     0.10203321489685201
   286   1      24.296634597456137      6.5627568429251282      2.4853039569612152
   287   1        22.5043834310077       9.243650005622861      2.7543280267646333
   288   1       22.19802876827379       11.15526013892158     0.13310426485868071
   289   1      23.948226997214636      13.643338512349837    0.043296227907154761
   290   1      23.956302246089098      11.981930253839311      2.6558511007703145
   291   1      22.503630783366351      16.490348629093912     0.11141934193359405
   292   1      24.263065238273295      19.589101003542293      51.962281099092124
   293   1      23.828505692923883      17.906303231683687      2.5623679022669017
   294   1      22.422025269860317      20.492868467571881      2.5544859004059446
   295   1      22.373483014367277      22.180418184227168      51.973913071987809
   296   1      24.079720486336399      24.954268729392961    0.042468710468777399
   297   1      24.327744600519328      23.355548006845599      2.4989162275941128
   298   1      22.209042174136314      25.930410876533497      2.3275849180408681
   299   1      22.494314127266833      27.587258662789825   0.0076076788147229389
   300   1      24.281546040558506      30.574299383312812      51.884208391715624
   301   1      24.169577127909804      28.261145595318318      2.5573582357487989
   302   1      22.450475692547407      31.529242228978354      2.4987034787415885
   303   1      22.513304528037569      33.196031281547185       51.86532036433632
   304   1      24.127392205517136      36.046974360831193      51.937144725804117
   305   1      24.488399584431516      34.283901287712133      2.2996711184402696
   306   1      22.765407361916019      37.138734141123038      2.5179421202820929
   307   1      22.396026049563137      38.772315635412696       51.97262218229276
   308   1      24.037285652970901      41.542540623745154      52.067440635099338
   309   1      24.347966334947525      39.945205060190979      2.5872088744390718
   310   1      22.746767170160521      42.765190007619211      2.4505994854665043
   311   1      22.376594836244625      44.287914707591781      52.102395866427138
   312   1      24.052568253622873      47.242525879082258    0.099177402683230706
   313   1      23.963920086223478      45.642727062491026      2.7958067080201721
   314   1      22.525630287005864      48.291330220818388      2.3127967738143393
   315   1      22.475248276590708      50.046540852072404      52.080534182685561
   316   1      24.163005567813265       53.07594284337943      52.114810305998979
   317   1      23.887934853122861      51.278423639677086      2.4046712788555369
   318   1       22.39469054727407       53.99696966012398      2.6458510978684151
   319   1      25.730249971131432      0.2116956823181172     0.23345222979381453
   320   1      27.462807214275411      3.1759741719972894      51.960014775996243
   321   1      27.444805800534905      1.2791971704659946      2.4762490934870196
   322   1      25.601517638579299      3.5038538264025738      2.4005660818126238
   323   1      25.495522147846462      5.5652998760779981      51.998082020954136
   324   1      27.003655632795304      8.1102324378254469      51.897413220728659
   325   1      27.118426273243895      6.1339794812249231      2.5289189568011055
   326   1      25.849607382455964      9.2843188809227257        2.57394273973126
   327   1      25.724813466479226      10.805358060011217    0.026386533317652814
   328   1      27.063385589048941      13.954682540059961      51.952116617337367
   329   1      27.195721598464193      12.316023732913331       2.605751748406993
   330   1      25.372628542888926      14.988839298918357      2.6711051512347188
   331   1      25.433754217566523      16.840485521121632    0.080734060852975922
   332   1      27.392246672476791      19.700768279703563     0.15314860945163641
   333   1      27.007598850627389      17.606338242719563      2.3549957470752503
   334   1      25.634423230402252       20.35798249699485      2.4294978552419719
   335   1      25.423961062315058      22.271604689468369      52.077112069927033
   336   1      27.353712052988772      25.078513439092895     0.13419631292664264
   337   1      27.290583867187699       22.92147546468879      2.3829648485689483
   338   1      25.835395454266553      25.865857435731765      2.6642798346408765
   339   1      25.583962130193328       27.67369770315311      51.878239543131812
   340   1      27.303908298288079      30.542706387869991      51.852645858817006
   341   1       27.15790121402371      28.630649489416268      2.4165635132597125
   342   1      26.006401965601853      31.468114883886159       2.174835175823898
   343   1       25.71458698708993      33.486716826397796      51.950431181486735
   344   1      27.725737170614039       35.96041198740258    0.071874290848390948
   345   1      27.632851073976191      34.276194112441985      2.6054079500160849
   346   1      25.864619253239066      37.007278350216978      2.5999478820852633
   347   1      25.635148802545594      38.685112796520166      52.109323907439219
   348   1      27.071325237947217      41.449371977283477    0.033381198507716897
   349   1      27.500076151345294      39.749357829721937      2.7301472811294261
   350   1      25.632149150224137      42.778491273159389      2.4863874672788926
   351   1      25.502464451869407      44.482588884386075      52.031080742584138
   352   1      27.075584315402516      47.412352644314218      51.955496679010565
   353   1       27.21740059939745      45.488110551851477      2.5451090852441856
   354   1      25.612689439614567      48.280592762358197       2.604250990721058
   355   1      25.762730346276282      49.855655474797764     0.41782550081205949
   356   1      27.161025136779728      53.101028723700516      52.036219537857789
   357   1      27.038121863784724      51.143704301016271       2.662267362608183
   358   1      25.643007393640953      53.952025621470341      2.5499056168193692
   359   1      28.968355105781225      55.548209909230778      51.934042906602727