dump/Mg_500_5/steps_21 (written by ASE) 

3995 	 atoms 
1  atom types
0.0      32.100000000000001  xlo xhi
0.0      55.598830921999998  ylo yhi
0.0      52.130399999999995  zlo zhi


Atoms 

     1   1     0.13521073244531862     0.08504226413116911     0.21520325025811352
     2   1      1.7485502184688917       2.917339559514827     0.14476448721629748
     3   1      1.6223233084906279     0.83598721782095997      2.6660206981902292
     4   1    0.031643972205086308      3.7168555429884664      2.6561034015157405
     5   1    0.057979289465220366      5.7439955602600312      0.1375257809993066
     6   1      1.5486694309164935      8.1279967912267601     0.17463372869436178
     7   1      1.9592577054564118      6.7476038244912981      2.8927030732465453
     8   1      32.069595768698719      9.2706887061200351      2.5393969272979322
     9   1     0.12681000961032479      10.971028664328166    0.034486569248680175
    10   1      1.4399642014786764      13.878955188516603    0.091712739026616003
    11   1      1.5857306731798759      12.019255099640883       2.518046727808144
    12   1      32.009761025876813      14.787685954638627      2.4988711554370817
    13   1       31.89274908361266      16.739789068499476     0.11683189635206655
    14   1      1.3882389059643432      19.305365452666422      52.042821267586653
    15   1      1.4956754105631291      17.551028562041129      2.6115670844748182
    16   1      31.949153875021636      20.434129021314281      2.5259078968901263
    17   1     0.10312779486444475      22.266024862050216      52.111257018154227
    18   1      1.6629103355720778      25.081300898960663     0.20007165012358513
    19   1      1.8427925233007854      23.053605397930905      2.5187874619268098
    20   1    0.040968453604081578      25.891300901240591      2.5404727973628067
    21   1      32.057022502772568      27.982069334463883      52.122328910290527
    22   1      1.5895512737354731      30.615030521552775      52.044959886708767
    23   1      1.8138417665660891      28.709660751703623       2.610203302043804
    24   1   0.0090916033030701299      31.364809383294535       2.737909482304087
    25   1      31.932331747844362      33.394663078013153     0.27840913355955682
    26   1      1.5234061952414697      36.216277986469031     0.17624585117575903
    27   1      1.5237049210030282      34.521466919800091      2.6202123237295583
    28   1      31.807883462829299      37.046744196405882      2.5374501626874406
    29   1      32.077881702824691      38.773551369437868      51.927455266547852
    30   1      1.3567575831040997       41.55307283658879      51.952983571148529
    31   1       1.574259885545954      39.763884380350959      2.4881194336036558
    32   1    0.096464016132679756      42.600586158477689      2.5994244226157144
    33   1    0.088462390402441082       44.41162298531188      52.021180113812427
    34   1      1.5818504005268048      47.276723025260239      51.974206620158959
    35   1      1.6396210159050306      45.205899820707117      2.6683828236504441
    36   1      32.055259053221299       47.85288349519103      2.5714012358350442
    37   1     0.11010907468860617      49.961904946156686    0.024016177949435381
    38   1        1.71516691739958      52.785001365455571      52.039973833100824
    39   1      1.3078275614893904      50.730053607575776      2.5211271199141376
    40   1      31.896469961498404      53.520090724938477      2.5772853003730725
    41   1      3.4623059863975931     0.13024501778658171      0.1904759229222224
    42   1       4.934714056401261      2.8314083199324873       52.09484540291573
    43   1      4.8214355597716567      0.8715705124271661      2.7670567573335556
    44   1      3.4441803091636167      3.7026509563673251      2.6533067379169686
    45   1      3.2032623131837008      5.4806012297953552    0.012067671501215588
    46   1      4.9578814978029495      8.2564451734668474      52.018790904744471
    47   1      5.0072010562647558      6.4084713908790834      2.4901398896758975
    48   1      3.3836382073654696       9.145881372857664      2.3045555799547746
    49   1      3.3014978229673924      11.037634135067352       52.02794127049264
    50   1      4.7938611357876608      13.873246559526269    0.040789000222096874
    51   1      4.6733600863008844      11.678012657945146      2.5699661158692644
    52   1      3.1059635845473976      14.667015776604632      2.3950073163136132
    53   1      2.9588442667375854      16.748658364918352      0.1034067947287428
    54   1      4.8030364485314703      19.431931101827438      51.878855095878947
    55   1      4.9404201694888599      17.450852893641198      2.5758707348937206
    56   1      3.2609260831449141      20.188313453592929      2.2326893702641524
    57   1      3.2822291068633795      22.247929259772402      52.009580806312016
    58   1      4.9712307409373269      24.946997409778806     0.16516070700191918
    59   1      5.0745515197673923      22.908382726344595      2.4231294213609091
    60   1      3.3376332106749942      26.001430405656443       2.745626086603612
    61   1      3.1980030799395256      27.697046507292587      52.087878464149668
    62   1      4.8329899827097993      30.562641258839076    0.035683538018864133
    63   1      4.9974842198027583      28.675869930581925      2.8875451819458102
    64   1      3.2760142377676624      31.514415841411825       2.722586364353591
    65   1      3.0631675601013466       33.23604556813995      52.059574955697926
    66   1      4.8481511649470512      36.144736310846824      52.064585955758737
    67   1      4.7291886511895376      34.256625831660813      2.7001117022947212
    68   1      3.0574621614610944      37.170114825042184      2.6894442855033485
    69   1      3.1848083103562157      38.725312009404703      52.029614966338045
    70   1      4.6684557318207753      41.587239914894383      52.035748003842436
    71   1      4.6230180499294793      39.932423564021839      2.4017211789886828
    72   1      3.4292446039229514      42.691638966024854      2.4943693197164603
    73   1       3.119894288052508      44.346721886491018      51.907031336422875
    74   1      4.8306753208168658      47.235348248354263      52.079736208541043
    75   1      3.1978333098856804      48.197813427312035       2.332791493742747
    76   1      3.2017485474844705       50.03895860284954    0.060385666274240024
    77   1      4.8917349930746026      52.843337897573782     0.15325022920128106
    78   1      4.6613183859359575      50.948234015124051      2.6526140305134884
    79   1      2.8656761483505004      53.637083333496129      2.5202562161764543
    80   1      6.7913413201407051      55.278291496958119    0.059489120666439639
    81   1      8.2685358560119369      2.4249454873599454     0.11641969126060804
    82   1      8.2494665743287765      0.6905215568950912       2.877481769542896
    83   1      6.6190683773805432      3.5566448790978638       2.666108264115516
    84   1      6.7484829700982267      5.7135200011854161     0.16429974571718861
    85   1      8.0766809650073128      8.3735694336829969      52.110765311739456
    86   1      8.5546068045406258      6.6589870397177355      2.4786689658582484
    87   1      6.5192285313989693      9.1622407735391178      2.4462324083680489
    88   1      6.4275603687700498      11.024529238570738    0.041254174129230804
    89   1      7.9286200874594748      13.784849764788131      52.064684321310267
    90   1      8.0734841150814685      12.013397462435517       2.538261286171454
    91   1      6.5398492174981406      14.649124362072412      2.7150127171261498
    92   1      6.4159452342031775      16.676957728015978      52.070737694914492
    93   1      8.0763545857750163      19.185869077758376     0.18880199283624743
    94   1       8.059701665453284      17.647300762029491      3.0632389185865634
    95   1      6.4071770658461373      20.360795188749698      2.4466166854027476
    96   1      6.5191023569939865      22.229467207338892      51.655542709294522
    97   1      8.0964938670504019      25.054830550187226      51.866992428288086
    98   1      8.0916750673729165      23.091338924988648      2.5283631316947592
    99   1      6.3805341469289072      25.687074949589388      2.7427881736737381
   100   1      6.3946771074357773      27.509629526376322     0.36991521292194623
   101   1      7.8384924980708242      30.535284816039596      52.118682962161273
   102   1      8.0775658166916706      28.696246225254615      2.6572379340887777
   103   1      6.3513504555260996      31.513156864666296      2.7314549667345625
   104   1      6.3794187070959332      33.323059320865767     0.18287287275919967
   105   1      8.0961528948365942      36.238667155270782    0.098855456697002478
   106   1      8.1491899982368849      34.441316604862543      2.7986959964568352
   107   1       6.246042894059558      37.184185875827424      2.4293185342697017
   108   1      6.3843325881903938      39.054793971026363      51.938215233600516
   109   1      7.9652751536722208      41.772576173096553    0.033239714720216758
   110   1      8.0421299280467569      39.603056516636201      2.7298571813068819
   111   1      6.2875496901981878      42.560535053351742      2.5439857699229216
   112   1       6.325208378977794      44.322732600769413        52.0145791275799
   113   1      7.9996977062054437      47.220509247116439     0.12163137370819301
   114   1      8.0101351608215339       45.20582664551835      2.7357923594223319
   115   1      6.2280069021968947      48.229551767263068      2.3689394551079728
   116   1      6.5933840984102945      50.155225858582604    0.019286116453294304
   117   1       8.142410013982543      52.567739308269132    0.041399710277576392
   118   1      8.1115412596550343      51.168911214148537      2.8607450323978165
   119   1      6.1935479634029678      53.557966018660181      2.7091472181690954
   120   1      9.9701609012689332      55.561875644419345    0.041820976136505122
   121   1      11.446631470965142       2.894970308612963   0.0025454426156550644
   122   1      11.289988047799319     0.77425074100224978      2.5869342373454591
   123   1      9.7173115223230138      3.5120140685623769      2.5740205768316771
   124   1      9.8585122331059338      5.4573562986724085       51.95344742830877
   125   1      11.461919629405518      8.4625344721593745      52.045900308598505
   126   1      11.614927634928133      6.7070471274515286      2.7503641074256251
   127   1       9.825924220310867      9.4277125779246855      2.5580194700820869
   128   1      9.7315055256474476      11.171328761171671    0.011961555125409164
   129   1      11.546465160085127      14.062275719734977      51.991730804416484
   130   1      11.229976224353601      12.095306552734716      2.7720242062483336
   131   1      9.5992914655539945      14.964897589705485      2.9360058998348153
   132   1      9.4764713500213134      16.464977990279873     0.10924617388761329
   133   1       11.37254327291202      19.398929077225127     0.20013119099835763
   134   1      11.160906883780363      17.710628208662481      2.6456706213748715
   135   1      9.3030604186793422      20.349632252656264      2.6672729197817531
   136   1      9.6168602092365205      22.161470197467928      51.995613757818127
   137   1      11.351906202640292      24.971309755873285      51.961298484152699
   138   1      11.222706954385504      23.128797411880971      2.5111624545008282
   139   1      9.5107947174098388      25.949810409195088      2.8117280914530616
   140   1      9.6915101956009355      28.034215067145684      51.985568857921059
   141   1      11.319663904451787      30.520369941543301    0.053134731370253055
   142   1      11.155523783500502      28.770710615935226      2.8408195774337486
   143   1      9.1501212538456276      31.465397505521516      2.4846812451104099
   144   1       9.559077907691492      33.177231592039476      0.2066951486395705
   145   1      11.120427864684912      35.922262097416471     0.14191300954981287
   146   1      11.261559839172131      34.135599069453981      2.7480292722197555
   147   1      9.8428819532394005      37.041740097377101      2.4009574425683518
   148   1      9.8874019667729378      38.987346311180922     0.15245822981539975
   149   1      11.342985511972572      41.707801086302759   0.0029394641568559585
   150   1      11.296384256190576      39.794761393883611      2.6105937677734126
   151   1       9.470025182862118      42.491806338392635      2.9393911615908208
   152   1      9.8136053529199856      44.442649683574352     0.17014548067570009
   153   1      11.411248361234616      47.121770682182259      52.070945958404245
   154   1      11.308332484249004      45.357952341947914      2.6549756507835545
   155   1      9.5269762673908662       48.01682109433645      2.8233877586894263
   156   1      9.8675752293199963      50.066447928983038    0.057637728835013155
   157   1      11.224278408312996      52.833565891313263      52.069984916732416
   158   1      11.355888751807612      50.856277988185809      2.5067535954767992
   159   1      9.7630347044887689      53.454531174198607      2.6030791848024468
   160   1      12.937711713295718     0.08078002886058358      52.031014258491794
   161   1       14.44828087657662      2.6088908576238534    0.080979715421991741
   162   1      14.418818456176037      1.0402911817712899      2.6748103187121059
   163   1      12.905423959225343      3.6212561714705638      2.6293143070160361
   164   1       12.89806492188508       5.842950046021099      51.931387177967153
   165   1      14.821213029769673      8.3569985141068539     0.14429125087333805
   166   1      14.605415635156024      6.5523590576319908      2.5154803644695791
   167   1      12.949043003213164      9.3488903198099464      2.5301328674224517
   168   1      13.011090160086646       11.20303943739397    0.089375450316019248
   169   1      14.409383960226542      13.908259900084552     0.10449686629550575
   170   1      14.491321124523905      12.081899777639087      2.8250703554042347
   171   1      12.944098003928287      14.891004424462249      2.7078762958833282
   172   1      12.959936919684104      16.757303701924855      0.1124268679058907
   173   1      14.668351158838394      19.294451194423136      52.127650463544626
   174   1      14.483732585011506      17.869713497961875      2.6229158474326053
   175   1      12.821953174008524      20.451499756929753      2.6505916596471875
   176   1       12.82768257885578      22.057682110562155      52.092886432713975
   177   1      14.541549918248796      25.312754434926195     0.11986170131743815
   178   1      14.261065412320912       23.18410510280474       2.595741411663425
   179   1      12.576331342449604       26.08007505404003      2.6987464756665736
   180   1      12.903425149291987      27.897920078053403     0.14976957660804313
   181   1      14.362701965492377      30.670769966188168      51.887492251276399
   182   1      14.628580502537904      28.739954076361744      2.4369330084437073
   183   1      12.860296308482184      31.422897015896442      2.6151516881112373
   184   1      12.671667333664288      33.379605521239064       52.08307392191589
   185   1      14.383726460642579       35.77826246529623     0.25305262764023695
   186   1      14.257924639801335      34.171455140733634      2.5794006936888576
   187   1      12.910761733076642      36.955200140785919       2.802560820894608
   188   1      12.983240256764914      38.593189638920549     0.13570317783533911
   189   1       14.40568057426362      41.425306696475232      52.056706098523051
   190   1      14.474619822163991      39.655777227870622      2.5545951932592001
   191   1      13.017359861048098      42.591680807830834      2.5685082960628103
   192   1      13.156086615522343      44.394215167722592     0.15626836870248947
   193   1      14.822916961941203      47.180209668348191      52.028227065919317
   194   1      14.592129602741764      45.415015700894564      2.5099660487934625
   195   1      12.975153335580252      47.887411185211008      2.5532378837836762
   196   1      12.808567719099637      49.950195098048511      52.105691592998888
   197   1      14.582938721064126      52.825927668704658      52.085461923249731
   198   1      14.525232822991706      50.967338514445281      2.6098058042074022
   199   1      12.858161339233527      53.727423701574317       2.272309811742792
   200   1       15.95161677933674      55.595005128935405     0.28307806769349236
   201   1      17.582138419175223      2.8432648569632599      52.052447381896748
   202   1      17.586395316218358      1.1409327789205326      2.6680954705778368
   203   1      16.141117081233162      3.8532052713004639      2.5963881839878171
   204   1      16.169950216896215      5.4899834982512585     0.01062564209618096
   205   1      17.863953880779626       8.237930071827023     0.24181151034865295
   206   1      17.799046276900857      6.4074632368269686      2.6521348976125734
   207   1      16.246409999207515      9.3486756223277645      2.8214052835857482
   208   1      15.974166184877358      11.176887414040714     0.18267558579404033
   209   1      17.635430187991261      14.030199110276543     0.23188902284270596
   210   1      17.784902198117141      12.212891788747511      2.9333231982014913
   211   1      16.130674134203087      15.055131793197884      2.7264645131534326
   212   1      15.875728074615706      16.594417395531011      0.2521345083351697
   213   1      17.828806472225494      19.473938746851655   0.0016892322530778065
   214   1      17.610537983767411      17.854933465790641      2.9203891333264802
   215   1      15.890251244722853      20.463153864992922      2.7100874963461661
   216   1      16.030655089833907      22.147491489536375      52.073030319454055
   217   1      17.579295906012366      25.025317190732853     0.16040541326034366
   218   1      17.657024339759737      23.014300409171373      2.7812347937122275
   219   1      15.858581891050498      25.796161603899886      2.7160019541624489
   220   1      16.212047557171566      27.861835040567609      51.849518235361245
   221   1      17.904370086981288      30.514006188014303      52.128011796052554
   222   1      17.618713220482434      28.511074408564756       2.316001033114127
   223   1      16.017427089518595      31.328475911185077      2.6758411964030326
   224   1      16.130685784963902       33.15440489316201       52.11252688617072
   225   1      17.699660449284188      35.987348997721071    0.053733454790495815
   226   1      17.488171149351135      33.952886663839969      2.5405118043814423
   227   1      15.969606369340978      37.066930092620154      2.8845133219051733
   228   1      16.040813699246087      38.751499398708006    0.072003991008366949
   229   1      17.529343549655607      41.577744380649939      51.977178205900628
   230   1      17.700829901361331      39.609189080421196      2.7395409221895797
   231   1      16.085935998097082      42.415160751526948      2.6508442920832933
   232   1      16.018674090901435      44.299494532180049    0.070237005479860115
   233   1      17.600859822433261      47.157345214585028    0.090900756300930544
   234   1      17.713342282774587      45.425615222711897      2.6350478665528292
   235   1      16.108125928586158      48.276896038187409      2.5357883166097563
   236   1      16.338045440750424      50.014415317904799    0.086721656651410017
   237   1      17.692757105549077      53.036324862579399      52.061275180669867
   238   1      17.956434025206864      51.133064685849625      2.5286431870685973
   239   1      16.238788130978147      53.651331918920789      2.7038305306490584
   240   1      19.629685864667056      55.566618549982152     0.10019937530875495
   241   1      20.907344593752455      2.7310207262257964    0.013445636000993981
   242   1      20.989870067012316      1.0076069724013768      2.6967056627106176
   243   1      19.352060049609083      3.7773785968335027      2.3523391872038699
   244   1      19.353894745510082      5.6607695810589691      51.965096570181387
   245   1       21.03400845694755       8.280564040273827     0.23555366904077052
   246   1      20.968977317043493      6.4778223912898731      2.7281363037879802
   247   1      19.363531556730113      9.1994874333886862      2.8679482000683367
   248   1        19.3192091350071      11.031661932549868    0.029373014182763755
   249   1      20.776680279001386      13.792694853756387       52.05457228477615
   250   1      20.761383391146641      11.995819176866201      2.6135121752880881
   251   1      19.359252178597039      14.796432815869757      2.5427688730423634
   252   1      19.011639388010558      16.717583419112511    0.078010402025506326
   253   1      20.876531730539298      19.233435490906192    0.072197687029404239
   254   1      20.754552383062315      17.589783658489992      2.6384992025305447
   255   1      19.230457858779477      20.389926987500285      2.7814996431659744
   256   1      19.181211037553584      22.198483611146486    0.086773593466765331
   257   1      20.722697387112309      24.929151140988179    0.017646931723414114
   258   1      20.776208200161705      23.333086753025675      2.6702107111785334
   259   1      19.369498727123943      26.110348268283989      2.5948399377284095
   260   1       19.31921312821073      27.539956199949035      52.048357408968407
   261   1      21.053968825582874      30.719010143545834      51.875706006491185
   262   1      20.774374832791079      28.713502230052761      2.6587067363730359
   263   1      19.347441789768993      31.362903936266274      2.6907626621368173
   264   1      19.327114374901299      33.399826733228437      52.090542603846856
   265   1      20.705243026982767      36.009478694668161    0.088148867880256984
   266   1      20.803722369466385      34.134140714331004      2.6336637631114437
   267   1       19.16173917150396      36.735967983406013      2.7464399597593463
   268   1      19.081055767027689      38.636391014502486       51.89151308771298
   269   1      20.886613330679921      41.801231933149012      51.967769118483595
   270   1      20.737464016744404      39.702342801213419      2.6139718682773907
   271   1      19.238468023738349      42.394774675931217      2.4809458900768364
   272   1      19.518062089659434      44.365518521691911      0.0454205129299197
   273   1      20.657612323909628       47.19589629077835     0.20707812259399627
   274   1      21.000042102800879      45.344075917287249      2.5926878550268491
   275   1      19.082324337521197      48.153689134461828       2.562473036532007
   276   1      19.304326039840117      49.984693483578447      52.004341463405773
   277   1      20.730929567544916       52.64210346535522    0.049969399525299309
   278   1      21.040329219663018      51.187534449339473      2.6970256834839321
   279   1      19.415118734452083      53.817264490641875      2.6708452581703521
   280   1      22.523050737374948      55.533290375243347     0.13670315926846308
   281   1      24.162705329236562      2.5906825236002518    0.023255744194453542
   282   1      24.058007877507453     0.89148588652855443      2.6031992165764053
   283   1      22.693428934341547      3.7513569594317127      2.6437648213607754
   284   1      22.492270061337322      5.5606552315856952     0.06914744703295847
   285   1      24.360015167006001      8.0563939718666955     0.13912788042680821
   286   1      24.081229190890618      6.5170808685605097      2.7144029553467557
   287   1      22.836427976901678      9.1897809379828441      2.7567981173552765
   288   1      22.561999480820212      11.174370822112476     0.11367418129081241
   289   1      24.135991420697565      14.107308025112369       52.01475760325269
   290   1      24.160828162430185      11.899011495971784      2.4276476859372833
   291   1      22.344747732402706      16.933285414076352      52.004932402813147
   292   1      23.963825415642798      19.321741576466213      51.926185229417563
   293   1      23.864577353028732      17.481047030338569      2.4614019359307755
   294   1      22.481021053286948      20.465932863049545      2.6999916209452528
   295   1      22.318776411491132      22.116068448864453      52.082001021266997
   296   1      23.824408117491462       24.91667102197831      51.976820697783268
   297   1      24.063356148637439      23.409028272344582      2.6602521481815598
   298   1      22.357957179986386      25.957991412254614      2.4333442739731277
   299   1      22.250776296811971      27.991995619395023   0.0081695233717664281
   300   1      24.137341550023898      30.606168725435431      52.047136220057716
   301   1      23.907706891648537      28.520201115904499      2.5051560753803295
   302   1      22.349841659741269      31.695216576281187      2.6150689173793595
   303   1      22.611926019130998      33.658078749170649     0.07821282441490221
   304   1      24.259166890883812      36.316339069728301    0.029911040774323359
   305   1      23.882927275987726      34.291277822987311      2.7023899919230043
   306   1      22.358094103912968      36.939694021344614      2.6619921208711497
   307   1      22.395926116619691      38.614982492604376      51.979380833560661
   308   1      24.159644966231596      41.567626156653034      51.994375846270103
   309   1      24.040799091966107      39.884018947079682      2.6469117660017667
   310   1      22.493137229345706      42.574889203443497      2.6082436597190322
   311   1      22.769240389514334      44.131321999472163      52.043538389701929
   312   1      23.813998040174386      47.154700723538426    0.043113813731251976
   313   1      23.990549904293385      45.496212121139997      2.4288995105039519
   314   1      22.318279846949416      48.331648806297345      2.7179211439794728
   315   1      22.125831757144969      49.959608155105975     0.24002027750644828
   316   1      23.817467503408349      52.627624210513105       52.11820008012203
   317   1      24.044821695211013      50.834036139545191      2.6252374881387608
   318   1      22.355809555519553      53.886503299897981      2.4384986708375176
   319   1      25.365875827194028      55.555033000731157      52.047902141463062
   320   1      27.439298021984023      2.9021951949904832     0.25755666336967048
   321   1      27.030416433249034     0.93699405891707011      2.3924768273963424
   322   1      25.711649682071265      3.7049323343221898       2.623288724778841
   323   1      25.660224963252922      5.3669213382366285      52.038206958294893
   324   1      27.374826023764005      8.3326333466222273      52.073566162856324
   325   1      27.457705021427497       6.428291172259045      2.4214730277714458
   326   1      26.033036865577941      9.0706576545215309      2.5436644919111271
   327   1      25.630102088198594        11.1763380690719      52.060212346889791
   328   1       27.44014170473341      13.848040913169219      52.045860851835485
   329   1      27.192772968053195      11.948870772561477      2.4778889009955378
   330   1      25.645041107718257      14.833971350850639      2.4730971833594104
   331   1       25.79266427315649      16.883933445430557    0.087247464062143551
   332   1      27.033543776888742       19.67667501912381      52.093797548650052
   333   1      27.519102431562651      17.845116642460251      2.6102161297380833
   334   1       25.49861831365083      20.258577786567226      2.5827545405555199
   335   1      25.458801341751535      22.404974780443112      51.997175461259289
   336   1      27.082775829694349      25.062854166175484    0.060449659029794364
   337   1      27.317457798304073      23.438214705641542      2.3370232353533154
   338   1      25.576057941676158      26.065449363172736      2.4147669229554398
   339   1      25.916492369828671      27.966831930281074      52.029105093109564
   340   1      27.148504963633705      30.486801890508207    0.080140502620055287
   341   1      27.127644441702142      28.973975057008936      2.7711008402897175
   342   1      25.713867889191931      31.650769346005003       2.439891443853226
   343   1      25.560921241834684      33.488660806282667      52.040977302471823
   344   1      27.353141278568053      36.014688549659326      52.089341224927608
   345   1      27.309367493831228      34.305556382451279      2.7355704499756914
   346   1      25.695029125604528      37.056900112971206      2.7374344117680116
   347   1      25.718696805294975      38.759048857830514    0.067699752050949011
   348   1      27.202336253000947      41.651363725633871      51.856413989002405
   349   1      27.136800985873688      39.765424998687315      2.5242817176092549
   350   1      25.649094725019427      42.580805712652335      2.5109452724124184
   351   1      25.692660027862122         44.354901820814      52.104507205888588
   352   1      27.182044775403817      47.402642226280435    0.084051594823256845
   353   1      27.366651623639989      45.442264986285274       2.448698013189949
   354   1      25.845548837287616      48.268954287167055      2.7424917225557284
   355   1      25.364783286797618      50.007779537608585    0.027702280303692456
   356   1       27.16773583628159      52.645149628948339    0.020939448640940116
   357   1      27.028751799013914       51.06025405259863      2.7975631990147907
   358   1      25.510603357797429      53.752270711231382      2.5269952079040392
   359   1      29.035188070402612      55.404815584798598      0.2268269974210452