dump/Si_1400_5/steps_1 (written by ASE) 

3995 	 atoms 
1  atom types
0.0      38.395898218429522  xlo xhi
0.0      38.395898217999999  ylo yhi
0.0      54.299999999999997  zlo zhi


Atoms 

     1   1      38.011243325787611      38.255712811978242   0.0066267898008391286
     2   1      1.8624317938305606       38.25032290231232      1.4751090804298308
     3   1      2.0653193618381325      1.7701684492420078      2.4757387250553369
     4   1       0.151683342845329      1.8542705121794711      3.9685257868640269
     5   1      38.223167739028646      3.7140002907082228      54.174820002836356
     6   1      1.5404302075565535      3.6429467145378602      1.3905146126560672
     7   1      1.7126004248726747      5.5115336631743013       2.686827566337294
     8   1      38.251852735632887      5.5027522322519085      4.1217539986583827
     9   1     0.13846962901331075      7.6523527675622471     0.38061292747868286
    10   1      2.0822803325518664        7.50896973627321      1.5654422930641405
    11   1      1.8581952268089839      9.5580000645381098       2.902431078500185
    12   1       38.26440329084847      9.8564058859296715      3.9107547921843566
    13   1      38.346075933572983      11.108129825576819    0.068326133798143548
    14   1      1.6398384658094849      11.436513453812983      1.5235275842975531
    15   1      1.7907979743832989      13.673615825067692      2.7745977999683413
    16   1      38.313454403050208      13.282859782855736      3.9844538497718887
    17   1    0.060422145721500467      15.285927335257361     0.12130964351566707
    18   1      1.9470544704794477       15.27342623945097      1.3706967404110282
    19   1      1.5471740198726769      17.216664798399222       2.891414663321505
    20   1      38.087433365128597      17.282134844588519      4.2319750726269918
    21   1        0.12045125528466       19.37497400203581      54.187055470671297
    22   1      1.7522150528670939      19.021167535631854      1.4099338964846673
    23   1      1.9219173878939819      20.972021371289401      2.7889717136201422
    24   1     0.18747070132738008      21.189889466742155      4.0442494198630818
    25   1      38.390756324997369      22.950890515664486  0.00033583949136755108
    26   1      1.8870295849660699      22.973762505226947      1.6237310331758283
    27   1      2.0007883342252977      25.042562591186538      2.7619228848158186
    28   1     0.21367263653063409      25.068406690717271      4.3041724708107951
    29   1    0.048445859424234489      26.898688778053312    0.056180588982181069
    30   1       1.953876679746881      27.122254360439253      1.3488292222910567
    31   1       1.969952916592254      29.025770107244725      2.8458891510076589
    32   1     0.39876950384706805      29.136135116573019      4.5695734719157386
    33   1       38.30582451180782      30.659580970072607      0.3029014939221385
    34   1      2.1346055795976318      31.044923886993384      1.5904892836068703
    35   1      2.0019448180605384      32.744608969960858      3.1748403400580765
    36   1      38.276346541013439      32.965284535419755      3.9216217853747932
    37   1     0.17449222777104542      34.707459199996244    0.079926629935676036
    38   1       1.831984779854172      34.483440595833187      1.6501100988670951
    39   1      2.1965881973474906      36.417129006889795      2.9117563323781854
    40   1     0.15743795776611877      36.846455713162172      4.2718194780750078
    41   1       3.884800191353746    0.038969465038293606     0.19421043819537548
    42   1      6.0064285870575738     0.31059255395745755      1.1422824668465841
    43   1      6.1171914594559436      1.7729511072308159      2.8390485964547327
    44   1      4.0769173110524903      2.2794856291938506      4.0499847203769699
    45   1      3.6653315471478853      4.2310874801639038     0.60434751837422984
    46   1      5.5663107171213335      4.0085239512202495      1.7195342475092741
    47   1      5.9161060952620321      5.8225158617319535      3.0190865374769968
    48   1      3.9440120273782959      5.9607751287913908      4.5578394880046034
    49   1      4.2684865775255494      7.6755442125346338     0.30597175314933311
    50   1       6.019528657697097      7.8290696685603676      1.9346724929745489
    51   1      5.6961731256653243      10.005590646123414      3.0583927544259022
    52   1      3.6913388954329576      9.7137577954411807      4.2904084952006789
    53   1      3.8252207933489881      11.582696284360209     0.05149748772120117
    54   1      5.4819196328533577      11.782246819779738      1.5714725893203736
    55   1      5.7901721129216028      13.693774484373131      2.8625370081774699
    56   1        3.64424779714252      13.478142347220155      3.9153819002182573
    57   1      3.6694564633913553      15.634009308842302     0.28917713163210718
    58   1      5.6491033299456053      15.486344014221453      1.5571812968006828
    59   1      5.7044750689105808      17.318101080273699      3.0968968140573589
    60   1      3.5441701454755479      17.434944827340921      4.1146527608653498
    61   1      3.9592059499391903      19.151271070196152     0.25894519763393165
    62   1      5.7935001358235754      18.830439524992755      1.4145073347463861
    63   1      6.2926934286594403      21.191682825790142      2.4570435803687367
    64   1      4.2383548233916519      21.297318526235497      3.5959111563665833
    65   1      3.8273151128039768       23.00039099531601     0.21681865046084561
    66   1      5.9991648735563006      22.921207194470522      1.0049940669643884
    67   1      6.0341582567237335      24.868186111927812      2.4233847230937826
    68   1      4.5059812600008948      25.322714906003643       3.991945623430841
    69   1      3.8818481550647386      26.996388453560996      54.263718295885589
    70   1      5.6987860512695052      26.870070817069394      1.3930558042246375
    71   1       5.852475572134205      28.923492157293268      2.7602416756874861
    72   1      3.9591318601580241      29.347939178104774      4.0595128001173517
    73   1      3.9022433592852828      30.729363150819566     0.21861749054766069
    74   1      5.7505792135630083      30.926383729687924      1.5181006224616689
    75   1      6.1716620089849235      32.682489389751005      3.0083040880232934
    76   1      4.2480649742608945      32.949036104321237      4.3488530585954548
    77   1       3.949550921779152      34.613343954630459     0.32003341394691937
    78   1      6.0731328145473382      34.369042846536928      1.5370481576326598
    79   1       5.939368083932834      36.811593096285065      2.4199112041130189
    80   1      4.0951121351503268      36.655862195580937       4.041204047162771
    81   1      8.0067737679111488     0.48945575725375495      53.930119775175839
    82   1      9.7306477848149093     0.16161261217261963      1.3840636130915533
    83   1      9.9192719315697495       1.940115181243347      2.8500202935376384
    84   1      7.8672068315517887      1.9019113312498561      4.0501349752465448
    85   1      7.5706799013403101      4.0775125579632201     0.30513649930712733
    86   1      9.6750593373968936      3.8957460354566611      1.6546955684024629
    87   1      9.6574366567981258      6.0217018756175467      2.8686372963873281
    88   1      8.0578009940842676      6.0790385986381477      4.2289491404113067
    89   1      7.3783753145641748      7.9481899444787718     0.13698895230920696
    90   1      9.3194150424007027       7.728807995048621       1.514457482081593
    91   1      9.5916682480516542      9.5482977057844352      2.7319341558096788
    92   1      7.8251257612431457      9.5448507963219473      4.4300609284288743
    93   1      7.2071988201213433      11.416789634364731     0.15997384968554804
    94   1      9.1850627685082298      11.582043072620724      1.2483812175404188
    95   1      9.2935030440997739      13.429447322070269       2.438355583303951
    96   1      7.4365599725741811      13.415802962551847      4.2650939598186799
    97   1      7.6317732305848978      15.226287057241272      54.253137031249082
    98   1      9.4259111761448935      15.265189299472832      1.2726781428728737
    99   1      9.8951650783098763      17.166882735296316      2.6108496858641166
   100   1      7.8230295955306959      17.483981729995119      4.0066370800256923
   101   1      7.7019405865159563      19.127006948642681      53.975118172144199
   102   1      9.3552599941646726      19.327072215217488      1.2249742979896625
   103   1      9.7985745778331932      21.175503438542936      2.8964846512751392
   104   1      7.9677549899520397      21.581217389905021      4.3158990142437199
   105   1      8.0382870891121545      23.041975586326608       54.23557060053691
   106   1      9.9305210763144824       23.23646100131409      1.3069991189993309
   107   1      10.046950394719655      25.142997045041618      2.6042645946516902
   108   1      7.8851941794965645      25.010662936115157      3.9265685995566639
   109   1      7.7788149189067095      26.957457256859293    0.033212598259240153
   110   1      9.6781973198723197      27.043859473949457      1.2473295126184678
   111   1      9.4194347927095272      28.943766749958325      2.5078608473618282
   112   1      7.8572256463708037      28.968673958871605      4.2705699185463226
   113   1      7.7537005947254096      30.790946128102025      54.082940406834908
   114   1      9.4626391853486638      30.805910836737638      1.3707613814636692
   115   1      9.8489874444889978       32.80239260759673      2.4425827168600458
   116   1      8.5296511250742579       32.81919077753853      4.2508702068211486
   117   1      7.5556362405070834      35.027338507018705      54.039426084303102
   118   1      9.7059271831921468      34.804353178839129      1.1831324353226709
   119   1      9.6044407031304271      36.595577756318534      2.5132144773911014
   120   1      7.5694336742143857      36.434854075436888      4.0988205049976969
   121   1      11.673377603042308     0.05373774490704257    0.028033273251060132
   122   1      13.609295382263614    0.054225985896562363      1.5983183178267486
   123   1      13.641651584736188      1.9647334156995755      2.5373420794525345
   124   1      11.745429453554578      1.8988974943519232      4.3417748940211016
   125   1      11.257457935920463      3.9591809478337887      0.1155899060592219
   126   1      13.406483797446507      3.8252953482638228       1.282298233953211
   127   1      13.249748335635315      5.6711291870319922      2.5549322116202027
   128   1      11.372336017015508      5.9957549410988005      4.4974399254736577
   129   1       11.22235882033271      8.0393579416558953     0.26479507401047619
   130   1       13.25015725627418       7.709956616520703      1.3305995432764894
   131   1      13.567132768437176      9.7838504833924489      2.4119484115854353
   132   1      11.658837060661721      9.8069756222308744      3.8481023000378505
   133   1      11.406597815111709      11.419443854268332      54.277385101163972
   134   1      13.459599934413058      11.729315846982294      1.3526224925335013
   135   1      13.097544658359107      13.897242860809452      2.5950717727642187
   136   1      11.137606874246279      13.368513593532869      3.7158172267118075
   137   1      11.597528262711554      15.093156149111309      53.994567592401019
   138   1      13.484722483597617      15.574409706415191      1.0749414471387118
   139   1      13.413808891131321       17.47719569765804      2.6207238399573383
   140   1      11.753429412687639      17.317903944455296      4.0953437951601925
   141   1      11.320174632510389      19.168669613215524      54.088120664230168
   142   1      13.244305886027039      19.190500045044956      1.2892522391002348
   143   1      13.664552672084339       21.49669850342681      2.3378180204041215
   144   1      11.885173294900396      21.434398261216732       3.949591577220291
   145   1      11.820481594287868      23.613960926657214     0.13009883259720689
   146   1       13.90164708915349      23.581602601707857      1.1029372264202271
   147   1      13.844959980878496      25.244348271463526      2.7700081243819232
   148   1      11.844870305966028      25.488286639995604      4.0923960637107379
   149   1      11.529735273116389      26.909494117431841      54.153679519185729
   150   1      13.584524130713987      26.897094173148343      1.0882830915874722
   151   1      13.458451646989603      28.542808638384439      2.7378739015817448
   152   1      11.270474867359457      28.875911014337991      3.9536119985603939
   153   1      11.712923261619236      30.773356482083955     0.37537784970172627
   154   1      13.700270783471275      30.622575809862301      1.7533151431633871
   155   1      13.136469821953499      32.711017420285891      2.7152123171291458
   156   1      11.561901312529058      33.069849344329647      4.3808425598449592
   157   1       11.83903164550857      34.624234290331721      0.1031539652907099
   158   1      13.518670052056168      34.617127743369352      1.7489426211910308
   159   1      13.659580526367101      36.553581773415466      3.1106009726027306
   160   1      11.441272124183248      36.742356062239494      4.1392627656799048
   161   1      15.567208837595286      38.380740703731206    0.080917581208041059
   162   1      17.612070379437441     0.15391494487448393      1.3613156929162205
   163   1      17.545039309626524      2.1642942256672399      2.4872767459811014
   164   1      15.449509675261501      1.8139076066653399      3.7165818043078644
   165   1      15.416659707772373      4.2095217862089118    0.074232645222707727
   166   1      17.352529302235531      3.8661174467574209      1.0819359714975323
   167   1      17.132540642142555      5.9754342656192554       2.143457551006382
   168   1      15.400931594407973      5.5933880127588518      3.7943677159716449
   169   1      15.446515918926574      7.7921869377066031     0.01558531999393154
   170   1       17.65166379919112       8.149069043974583     0.96236200815078776
   171   1      17.465094141640424      9.6594584815272686      2.7524107657792545
   172   1      15.713390416990649      9.6486194807037862      4.0742447733189149
   173   1      15.175545071258123      11.881519502317767      54.005475410030733
   174   1      17.220597685560648      11.540843594437893      1.1513968947159445
   175   1      17.111545659507524      13.532045603997801      2.7747682747193037
   176   1      15.124972061264819      13.799558797687636      3.8474637131475102
   177   1      15.510395124196428      15.750974479876954      54.149835509914091
   178   1      17.304394888876164      15.425849803217373      1.2956685258678338
   179   1      17.639532999629328      17.252516766838603      2.5327207070146303
   180   1      15.456101119065432      17.464223253748067      3.8082081902622438
   181   1      15.403534978776008      19.580967929350088      54.240797605061552
   182   1      17.484645752714439      19.402137880360478      1.2404126649215981
   183   1      17.352807740054583      21.397690081076316      2.8095483854986005
   184   1       15.19560092016005      21.048334100515433      4.1460960872727579
   185   1      15.768701754726163      23.368366551804691      53.930514881712597
   186   1      17.490595697603965      23.167691356384744      1.0761093558196082
   187   1      17.803141850510951      24.902312433153391      2.6480212148763393
   188   1      15.726498060167591      25.106864951660128      3.7886800805875751
   189   1      15.327427414992872      26.958907270748782       54.04051687476781
   190   1      17.234062094146385      26.627936051782832       1.129351694497531
   191   1      17.395901996822072      28.423374895975897      2.7203586981275438
   192   1      15.599650712611401      28.706855195753459       4.334608582841871
   193   1      15.392252435920176      30.652761187464964      0.4128538154757167
   194   1      17.486167104123233      30.491354184981873      1.4391571986359306
   195   1      17.261850081383777       32.37164773514678      2.8358344763437571
   196   1      15.151895086230132      32.273113980734905      4.0502545823065743
   197   1       15.21404917201466      34.270029223081409     0.28450308359042525
   198   1      17.311045001913133      34.392144361601545      1.6885979989067195
   199   1      17.640182546930301       36.60925664800758      3.0192639654990661
   200   1      15.720463392390061      36.628011679722157      4.3972895490183177
   201   1      19.523565285804885     0.14899245513153331       54.22792667475089
   202   1      21.175499479307987     0.12463539229122556      1.5865131629804661
   203   1      21.106938922604673      2.0232914047733876      2.8639545582460402
   204   1      19.106591291956335      1.9841607936886017      4.1467451993129121
   205   1      19.596767628844923      4.1824810541661801      54.146929264753773
   206   1      21.111770670507948      4.0071199367411392      1.7652934983683375
   207   1       20.97027252929044       6.245225720283214      3.1513203783503396
   208   1      18.830775527625626      5.9722620473816264      4.0839939025460357
   209   1      19.515118626034162      8.0774206084214928      54.071486630832375
   210   1      21.137068270979025      7.8932786831015678      1.4766113491032451
   211   1      21.254955388762909       9.701826773509465      2.7187162027489307
   212   1      19.301847764207007      9.7514133852499825      4.0656049580006064
   213   1      19.346090490968603      11.611536152095495     0.11147871541987785
   214   1      21.224885892334633      11.558627857222728      1.5077263458903747
   215   1      21.121047790268065      13.144545927485471      3.0869032557861718
   216   1      19.054475266129153       13.47204118624196      4.1616413425810848
   217   1      19.451063078431581       15.45132745927447     0.41447456376146169
   218   1      21.439895561347612      15.118014291885594      1.4855228193989327
   219   1      21.064571287614449      17.142956853339765        2.63018621092922
   220   1      19.261449432246479      17.381515358225389      4.0121602582463529
   221   1      19.219753553459768      19.440816682461129      54.093123238974471
   222   1      20.851864278531544       19.28204711640705      1.6327697979869393
   223   1      20.872123503837589      21.267491814334775      2.6419297131420074
   224   1      19.176810022483316      21.286664874373042      4.2639043185334113
   225   1      19.463904668854333      23.398503071126129      54.086843916748741
   226   1      21.308062353899327      23.025459128262021      1.0279304382477086
   227   1      21.472154973263059      25.193326097205325      2.4907765730212996
   228   1      19.771430868121396       24.92118554908663      3.9603066211410378
   229   1       19.29909342680476      26.865127028225977      54.004257794608527
   230   1      21.017276741279737      27.088898226473685      1.0460582515210393
   231   1      21.177944252849446      28.800319134011779      2.7153975316555394
   232   1      19.325892883932188      28.655010279554197      4.0972740879959115
   233   1      19.389890245768026      31.003836752794033     0.23400108780451767
   234   1      21.302063541168959      30.783295154934301      1.5382981101839959
   235   1       21.25099342672036       32.54375303271155       3.081081891435586
   236   1      19.069719727140718      32.680652622613003       4.195493131944497
   237   1      19.152928293408753      34.458886219798345      0.2727399200839955
   238   1      21.197181259602399      34.380122852372622      1.3134737273133847
   239   1      21.406669064134356      36.492039417808584      2.7153365121264281
   240   1      19.684777699224004      36.525076587159511      4.1979594497163584
   241   1       22.87840520926926     0.14780822997701801    0.055033050135761943
   242   1      24.928070228679182    0.027399313009189023      1.5024824344808494
   243   1      25.094206298560479      1.8412851962593526      2.7558773098827234
   244   1      22.952396129181018       1.403385624709365      4.1230731992501006
   245   1      23.078457542371027      4.2334505901121648     0.42875790775515288
   246   1      24.975384936733025      4.0159972261740462      1.4808141776536217
   247   1      24.928626207374858      5.7388502300086319      3.2757391623896162
   248   1      22.935577715739583      5.4956531306408136      4.1181170144787842
   249   1      23.073889686528286      7.8426752194553417     0.17375402650100091
   250   1      24.872755809482779      7.6153599054332846      1.5604856541555461
   251   1      25.064329634054246      9.6431115796366385      2.7901236707582382
   252   1      23.260459983060986      9.5077254796320272      4.2405363679816563
   253   1      23.229347724361112      11.655892098109781      54.292811527293523
   254   1       25.25544787432931      11.517712190761186      1.0860192596522196
   255   1       25.13748901654132      13.134238604079824       2.694679942914822
   256   1      23.289610470109938      13.367075737561148      4.0422067359819813
   257   1       23.05112340682259      15.350026760477787      54.187925710357021
   258   1      25.317763073085871      15.072296265764896      1.0989745318392146
   259   1      24.964740877396601      17.149745345459035      2.4234449640841924
   260   1      23.147025125287847      17.487730036528191      3.9338092436619267
   261   1      22.760120062520574      19.465857073913224     0.12744656744807814
   262   1      24.969742805492263      19.221196995489965      1.2501024635255948
   263   1      24.896180594066976      20.824023558209461      2.9049931203444985
   264   1       22.86630398309326      21.377270495526442      4.2006730448692764
   265   1      23.277679625951489      23.089131426304441      53.694534183881281
   266   1      24.759695107015684       22.86388935986259      1.2759757120216959
   267   1      24.817382399301199      24.928317394435442      2.5837555463187503
   268   1      23.088471241174286      25.119709252937202      4.0693565438344654
   269   1      23.108038692597557      27.057556126460778       54.11852972029142
   270   1       24.96782104168668       27.07298368771275      1.3698955191536926
   271   1        25.2242201346216      28.898673281037926      2.8424455576034551
   272   1      23.076431203095243      28.836338124016269      4.1930344050792661
   273   1      23.201247458641411      30.684522521675859    0.070669158488897182
   274   1      25.304213328301291      30.716564709758288      1.2396852308736586
   275   1      25.172215777102807       32.55027519169262      2.9974120967501543
   276   1      23.271896076478505       32.03694337427828      4.3336496759595438
   277   1      23.044453149278102      34.546110543894045     0.17308039352910765
   278   1      24.925772106955748      34.444641630836244      1.3585440457076865
   279   1      24.825428633125796      36.459124685034098      2.8385766387048319
   280   1      22.927716057090731      36.282722452502306       4.434753972503632
   281   1      26.826595598809348    0.038893806175341883   0.0087124975380902386
   282   1      28.456955651964446      38.279066555787317      1.4203986581474632
   283   1      28.615167520139781      1.8486209750612106      2.8039673034839558
   284   1      26.810775785429058      2.0366017535113787      4.2336457706804023
   285   1      26.718450616828189      3.9783737838204258      54.209270881066786
   286   1      28.825204860044231      3.7498324368156011        1.32791052457703
   287   1      28.852380855080341      5.5085235853329904      2.7461773552427848
   288   1      27.158432079100248      5.5509770616955407      4.1886582526445864
   289   1      26.749619580004101      7.6431848713226094      54.200699674832293
   290   1      28.439410401087571      7.5757550168208372       1.600543633239693
   291   1      28.866407635529921      9.8686476683772941       2.583297723772398
   292   1      27.173106122917016      9.3886263412221229       3.897864880042059
   293   1      26.919896459243571       11.74739774665929      53.964826069722463
   294   1      29.184344669751937        11.3399536206935     0.76159956492763503
   295   1      28.885158917140899      13.549037311656006      1.9112393496655147
   296   1      27.184732876558499      13.380233615219959      3.9893997439254241
   297   1      27.189564190552534      15.324281408609224      54.007028534477726
   298   1      28.974327457955273      15.690867674735619       1.099740708903993
   299   1      28.787275740355941       17.39215473287512      2.7622956972899138
   300   1      26.885372780310476      17.319403347759302       3.927097350159976
   301   1      27.041487708874595      19.158349079953435      54.052700260156627
   302   1      28.626529142003793      19.270967236186074      1.4859024295919674
   303   1       28.64472664627375      21.262787772256775      2.6272898458784555
   304   1      26.744015528876449      21.224457820750654      4.0593615114844956
   305   1      26.792193096717394      22.960440262206308     0.11713505668554947
   306   1      28.890281068375767       22.81276995811297      1.1679690792467112
   307   1      28.660101657703176      24.825199176659492      2.2966497748932988
   308   1      27.010671729753909      24.902004148862982       3.910972730176955
   309   1      26.945196917236714      27.013018124985869      54.059308347765395
   310   1       28.87998720685033      26.866228602504606       1.213246852918346
   311   1      29.114927014104417      28.668954475040842      2.6748374226010787
   312   1      27.160386190933423       28.74056818825742      4.1293101908509806
   313   1      27.112159910418153      30.743359394106609      54.067714991475476
   314   1      28.890787414018401      30.880351307806698      1.2575536718651485
   315   1      29.123325658369765      32.534507788495418      2.9125790859258829
   316   1      27.162960784662513      32.390032182611101      4.0369108982093982
   317   1      26.979507354944086       34.44289445596926      54.234642381920168
   318   1      28.960990526214264      34.073748735055617      1.2264189421074092
   319   1      28.314435032640095      36.086015931984768      2.6494787613179374
   320   1      26.563596665418114      36.598780004239842      4.4087587703493014
   321   1      30.604036576071636      38.254693297688263      54.235513079786614
   322   1      32.529640100937691      38.151407740421035       1.181238956201242
   323   1      32.567619048694603      1.5594773076167336       2.738894035968134
   324   1      30.610787720953319      1.4497216482285906      4.3078513085568737
   325   1      30.696900694408676       3.689903838680924      54.242571605102547
   326   1      32.308386027164907      3.7315581629243599      1.6053312168186396
   327   1      32.725594982843248      5.6677630148823281      3.1492651614814942
   328   1       30.82873133756101      5.5740713097672465      4.2769157192454035
   329   1       30.48849902471509      7.8107336055928123     0.24546529641449974
   330   1      32.366747347806225      7.4080083617722847      1.5246617434407559
   331   1      32.955147570998975      9.5884972723613693      2.7201699235070786
   332   1      30.956569217978128       9.737066135598619      3.9166857901868273
   333   1      30.913642293169922      11.558042435946113       53.84758184764042
   334   1      32.835529595773146      11.352970293085013      1.0302779357764942
   335   1      32.724024695122559      12.921347842668281      2.7529463910627325
   336   1      30.338484694636982      13.336225653404817      3.7068140444761304
   337   1      30.874465392014873      15.593226890570811       54.18079832972704
   338   1      32.633691628105836      15.254965595097913      1.4374235630601535
   339   1      32.806178955537817      17.243373363766974      2.7412217170955704
   340   1      30.648620083608474      19.085541770297301     0.12668690740086969
   341   1      32.629460117673673      19.158637177228865      1.3756037043764442
   342   1      32.549428588268867      21.164573238787401      2.8841616181681951
   343   1      30.650404027157254      20.888856394936585      4.1476091899347711
   344   1      31.016664251972774      23.207244285005348    0.041996003532130989
   345   1      33.482148616662109      22.798529336580284      1.3278371107903897
   346   1      32.909905686332849      24.675324329164777      2.7498621534496674
   347   1      30.628148021892464      24.890190357452617      3.6947828342064462
   348   1      30.750146946871151      27.140986654222008      54.267379865185816
   349   1      32.795621669118844      26.856616900418672      1.2009489905151678
   350   1      32.666034433271115      28.563872937275164      2.9973251994333312
   351   1      30.578920181004413      28.603089224447899      4.2736489172339907
   352   1      30.824638897840824      30.717295919220639      54.219307765001645
   353   1      32.733158771594852      30.538982216559322      1.4079562770386351
   354   1      32.691244384070906      32.499267299038458       2.626782551412965
   355   1      31.219706159801628      32.607261134081725      4.2108105256944679
   356   1      30.644184298380537      34.656843086611126    0.026477292778349721
   357   1       32.76180980071419       34.47863978803553      1.3887609412835928
   358   1      31.949895425929721      36.324859615084414       2.661787574642382
   359   1      30.257854410701867      36.270411776729766      4.1960999165945605