dump/Si_1400_5/steps_91 (written by ASE) 

3995 	 atoms 
1  atom types
0.0      38.395898218429522  xlo xhi
0.0      38.395898217999999  ylo yhi
0.0      54.299999999999997  zlo zhi


Atoms 

     1   1      0.2181974851574475     0.22423485538844579       54.14741686530337
     2   1      2.2125974666140116     0.31536262194696407      1.1917246067654674
     3   1      38.180538881964026      1.7624639722222248      3.9127177353277478
     4   1      38.331934484213448      3.7997790475541979      5.1247317693488998
     5   1      38.137258420117753      3.8928820977859626      54.267925524263617
     6   1      1.7599283579604603      1.9793064482354619      2.6235156277649145
     7   1      1.5923236758645904      5.5825466209385848      2.8309136587280572
     8   1      36.698744526621979      3.4727156957997822      6.8093875359156595
     9   1      36.234075544695237      6.0073321888994391      2.8250203464530945
    10   1      36.258983365409271      7.9058979995799685      1.1899619987174441
    11   1      1.7565721873083133      9.4483025062685435      2.5601685005595507
    12   1    0.080313156642590158       9.635155591928358      4.1597657608183001
    13   1      1.4488915691940643       15.45979947022318       50.02055149707801
    14   1      1.8714091885791508      7.5778977447544396      1.1866295335142349
    15   1      3.8085521161416431      13.275381798609315      3.8492009968841541
    16   1      38.356588033569906      13.633212786451489      3.9863376399768895
    17   1       1.824689729288798      15.556118027457986      1.1426997601435245
    18   1       1.804107489940131      13.569042442583221      2.5328693120236827
    19   1       1.880705912970186      19.144466427512498      1.5213223584560196
    20   1      38.318445549042572      15.176251844421568      54.051243219145391
    21   1     0.19887392934291814      19.045306257294008      54.046565653407136
    22   1      3.8026063344653904      21.024912977925549      52.722525943702202
    23   1      1.4612233916900199      22.976009124290897      1.4113670849853988
    24   1    0.077833688932644848      22.679305232781978      5.4657780240590634
    25   1       38.27509457340787       23.02076788213656      53.983396044556216
    26   1      37.947122785898401      24.956707842917492       4.159844558433746
    27   1      5.7625446383840311      27.084927417116262      1.3874390888785466
    28   1      36.174943605593256      24.654279934971271      2.6560186770502034
    29   1      38.332082333182072      25.250633385414929      52.877265134270722
    30   1      38.378366304970676       26.85336357954791     0.14643111102359416
    31   1      1.6635085681241386      28.725295008993669      2.8711551302269998
    32   1      37.952286039459601      28.476486639800893      4.2455084200995552
    33   1      38.280787578202123      30.590006150567262     0.23265867253535341
    34   1      1.7807488225986137        30.6407443318998      1.5978931562676943
    35   1    0.031273308687809608      32.588610700645013      4.0460974772926317
    36   1      0.1977831700215569      34.256180056272001      5.4865093873653041
    37   1      38.219379896040465      34.660226149158653    0.010732799573690976
    38   1      1.9807219474238675      32.712528648332011       2.536843555856739
    39   1     0.41460503898538092      36.453167458467476      4.1929908924233361
    40   1      2.0088671570226944      34.483131538001963      7.0159204016830463
    41   1      3.9042816052057479      38.183313591294358      54.288210075583962
    42   1      5.6448095661380426       38.39431642036844      1.4028963488005834
    43   1      7.8234429970448343      2.2454370048697427      3.9581432410939335
    44   1      5.6911990912530843      4.0504979560608394      6.6347477051467205
    45   1      5.5876798200324114      1.7558628515103205      2.9970287430759419
    46   1      5.3697138733467984      3.5234721952348758       1.019253694492456
    47   1      3.5540335886099368      3.6987127915322646      54.119526483185759
    48   1      3.7596902877775502      7.5142178801242387      4.8347634185297332
    49   1   0.0059554753332610134      7.6259804947217971      54.287576280272255
    50   1      9.8890448246624043      9.9249232289859037      51.361781615329853
    51   1      5.7987483748515265      5.5789930020878504      2.1406104150891552
    52   1      5.6497577258036973      9.3385034728382141      2.3400913978401245
    53   1      7.5224090700282362      5.4971690810312905      52.762820141499198
    54   1      5.6240838756171092      11.536245634159082       1.205310655176596
    55   1      5.6190091279955405      13.113722462510063      2.7503374293352496
    56   1      3.5767694164649111      11.388393937259114      5.3478306936520434
    57   1      3.8288862746157726       13.17174490902419      52.970501807651786
    58   1      5.6871905289168287      15.384279415212722       1.294607693864305
    59   1      4.0699204368979069        17.2261440418646      4.0131011885679442
    60   1       1.850571841662227      17.133836999817639      2.7777190370656601
    61   1      1.8365357543653726      21.111673548795775      51.176129082892551
    62   1      3.6836459421635541      19.329524533909662      54.263552994849483
    63   1      5.7782365417000952       21.05682116937648      2.6059016883918278
    64   1       3.962326424916994      22.901639890618654      5.3618478351801278
    65   1      5.9227296276837995      23.146074806967452      1.2048964162655695
    66   1      7.4834123501222445      25.245102509342555      3.7924471095336934
    67   1      5.6798770448136198      28.897626586842666      2.8671115613552964
    68   1      9.5643441058990923      27.144470356313256      6.6564213688040521
    69   1      3.9100835856673513      26.773401672245608      54.252991967697213
    70   1      7.5887945872320755      26.764369039649463      54.035844526469141
    71   1      2.0543181671456363      26.958202708823023      1.4029445324541163
    72   1      3.6110931927426821      28.909696012973583      4.0726914863471197
    73   1      3.7508070559961033      30.689532135042121     0.20217287866563527
    74   1      5.8194828324042751      30.867257963253454      1.3618764409932869
    75   1      5.5453351664422827      34.374781774830033       1.655255748687545
    76   1      3.6799702541081971      30.836429504079103      5.7789082210885345
    77   1      1.9742399804257502      34.726191762809336      1.0014159418622268
    78   1      3.9200535176690607      34.394602245562311        54.2931549098153
    79   1      5.5702674214564674        36.2675454951967      3.0458961041214576
    80   1      3.5234745909766514      1.8773655608424105      3.9929407374739867
    81   1      11.104136318356936      2.1228370690288973      52.911864600608006
    82   1      9.7787480587237745      1.5467057646274647      2.8580944444646659
    83   1      7.9139515452283158     0.29334922396873669      5.3373641354536057
    84   1      7.3698697997726095       5.881350798468544      4.0669088354746323
    85   1      5.8890708260471714      7.6220748196108676     0.76123346924805457
    86   1      13.698504490765862      3.9804383445034768      1.5578517828134295
    87   1      7.8971605105315144       7.686122305534421      53.649149947663354
    88   1      9.5829148522987868       5.752709262796408      2.9268093452798811
    89   1       5.674398606419973      9.5561897293964293      51.280551069735857
    90   1       9.563359156483056       7.481389238406746      1.3108285590917941
    91   1      9.5797682684910814      9.4825649987658114       2.852996234298073
    92   1      1.9429703323002625      11.762713813347276      6.9623647297059508
    93   1      9.2802151812870175      11.530276415919875      1.3428617310372046
    94   1       9.659640777997577      13.437516818311837      2.7411834146967178
    95   1      7.4811705978745904      13.635026667916197      4.0389232076362083
    96   1      5.6388715351698231      11.621251801726377      6.3298328358474381
    97   1      7.8848354585759974      15.697622136261444      54.265173425944099
    98   1      9.9295104283232298      15.085704051829421      1.0735175330490379
    99   1      7.7080743454940439      17.136080222120228      3.8096874860931416
   100   1      7.6214290561146543      18.875085280369593      5.3277673395800456
   101   1      5.7707347849910962      19.220026945299864      1.1741282751540878
   102   1      9.9862161633052171      19.172962669006896      1.2571703249382378
   103   1      9.8156958976556083      22.980110557290846       1.258747367322347
   104   1      7.6918787802039077      20.964224795016534      3.9867926630532549
   105   1      7.9909702776261442      23.184102888587525      54.106170392598877
   106   1      9.4230766436286686      24.862105436411412      2.5413615145074031
   107   1      15.300145746631296      25.125693114787609      4.0791826153046733
   108   1      9.7310521567665536      25.106621680916636      7.9341247320751656
   109   1      7.8813774492936304      24.981395763271358       52.73516978858256
   110   1      9.9727283529114441      26.940358594423895      1.2305502913776993
   111   1      9.4372390020182415       30.81411182191712      1.3374481178286706
   112   1      7.8641512151420407      29.186627791405964      4.1616313805131107
   113   1      11.421625654789064      32.897079020549953      3.9468154216778517
   114   1       13.25318978467916      33.262135124484331      2.5683389323010051
   115   1      10.704810830043508    0.021444369503517892      53.861764458569247
   116   1       3.731322313818934      32.580497258003966      4.0265359366109701
   117   1      7.1209470579357061      34.496917303028361   0.0068906715154071147
   118   1      11.734740884977201      37.824484235833104      5.4100368382098285
   119   1       7.561352212359866      36.269096486340885      52.727268765445203
   120   1      9.2456670433210224      36.548702709292805      2.5750700571335434
   121   1      15.293823937039411      34.631266556548184       54.03462613500222
   122   1      14.867029919425937      36.661773206834567      3.9275048623808506
   123   1      12.971623446928607      38.055801902401441      1.1048046239397189
   124   1      11.850284559563534       1.595924438311848      4.0832338895278699
   125   1      17.279937853039527      38.247755407019703      1.4337404334185746
   126   1      11.610521469905082      5.5970681980323809      4.3287243629551293
   127   1      13.654296026157953      5.7870594923500311      3.0482476802988936
   128   1      11.632950558752889      7.6642237312267163      5.5519634540253469
   129   1      11.669418236680816       9.643632659850617      52.843992417154659
   130   1      15.535306904618002      8.1328860515408312     0.13077518376896929
   131   1      13.540436395445056      11.493482473969491      1.3540979402352022
   132   1       11.41708693000257      9.5053782080817797       4.018361841442335
   133   1      15.496501706084517      11.182623544362071     0.33666063347669684
   134   1      13.718739332249839      7.6414047240124319      1.2754050858753181
   135   1      15.552826703081207        15.2841551431344      54.252817307921113
   136   1      11.308679952150836       12.95456976392072      4.2222483369497485
   137   1      11.769362485436488      15.230409662081337      53.665142247813556
   138   1      13.391751677745868      14.973086111150158      1.0051867363833944
   139   1      13.538123056827686      17.053762019777018       2.601758288822098
   140   1      9.7575934421157253      16.937608398052664      2.5194586657956499
   141   1       11.79346792091358      17.427017920306834      52.585075163560255
   142   1      11.609484792904281      16.875212391064061      4.0473879261840828
   143   1       17.36423892389956       21.23910233480202      2.6973364645500051
   144   1       9.496180140957458      21.061460152021585      2.3474782755153014
   145   1      11.724986675014451      22.971607484441336      54.039528758445869
   146   1      13.340473061321914      22.919430435606198      1.2931186481937198
   147   1      13.575042520050344      27.043381432930229      1.5652423278789822
   148   1      11.345008814044686      24.912574372938888      4.0754156452261467
   149   1      9.7671760305448121      28.818266080483067      51.438537817867157
   150   1      11.927943638242755      26.836498813174973      54.131926603297224
   151   1       15.50105586631717      28.889922898283658      3.6555034937200963
   152   1      9.6511320794837498      28.752106147892533      2.8215187754296709
   153   1      13.491609798053014      30.514958472437748     0.86129380667463462
   154   1      13.391199942507191      34.692619270153756     0.88913029370152152
   155   1      12.954613949843379      36.194278379918202      2.4088969757640819
   156   1      15.279516916762425      32.381013452247437      9.4134163648311837
   157   1      11.480601203763131      36.690458055742866      52.562987532347009
   158   1      17.334403731553486      32.663808507802884      51.435302069790552
   159   1      11.591921779843197      34.624922501906369       5.592904903088602
   160   1      11.171716207287202      36.231297851860553      3.9123225056789561
   161   1      15.202162391847343     0.19670487915391732      54.009411805654686
   162   1      17.009192462828015      36.453608348663721      2.9933966464187716
   163   1      18.955771953665234      1.8826113372859001      4.1179872323014708
   164   1      13.549920179980671      1.7808291137599936      2.3963823034394842
   165   1      14.922168772235567      3.6000734840405735      5.4541869604775215
   166   1      19.394121355081644      5.4686581500440559      4.3382497423423505
   167   1      15.722376261689607      6.2111942685001091      52.985401635150829
   168   1      17.069247139738135      3.8405210698131196      1.3480656925887269
   169   1      13.717085257306451      6.3236795179159966      51.538550655960513
   170   1      11.767404575055549      8.0521785721120569     0.37450263800723155
   171   1        20.8922502729108      9.7053477722990866      2.8366079393716652
   172   1      13.510287033612526      9.5345763510775186      2.8927263373436394
   173   1      16.952570692248472      9.3296106746907892      3.2456692053748704
   174   1       17.67309048292606      5.8529489356474977      2.8578625752432338
   175   1      17.481259393654589      11.147513344058163      2.0740752342133888
   176   1      13.112074706111516      13.258079814512643      2.5706883134383469
   177   1      15.574558467536111      19.209137911553253       54.12206212152379
   178   1      16.916686770609576      13.236986086223625      3.0836122532935861
   179   1      17.504548395837098      17.224107380744726      2.6152643621548584
   180   1      15.469342600363735      15.465920640390497      5.7696856828341163
   181   1      13.972577072300064      21.027134671086468      51.870249474628459
   182   1      15.632099071690247      17.207859667828739      3.9907303736388036
   183   1      17.395158425918773      23.234272892396834      1.5203021711962161
   184   1      13.545893297555741      18.977342246381433      1.2028432328719396
   185   1      15.575089366899583      22.842835908833326     0.27561703433391355
   186   1      19.303489914857586      23.022058118493344      54.269222213422132
   187   1      17.599941764577416      26.777185799721252      1.7134421966074884
   188   1      13.253323354254661       24.78412282354418      2.6590639096251509
   189   1      15.551985758616883      26.998645470605283       0.377356001443866
   190   1      17.519778918599723      28.818587893597076      2.7449731616496806
   191   1      19.457347097207904      30.629824475194045      5.0261814863160534
   192   1      15.554718989664369      27.118637786762015       5.325025692773373
   193   1      13.460695817463566      29.099479808902316      2.5278463361992731
   194   1      17.664565942832045      30.891593741537818      1.3199368711827582
   195   1       18.76345244462248      34.650670241017707      54.101959717738261
   196   1      15.103485645536967      32.778515415733814      52.596012914591043
   197   1      17.255108055619196      36.431968308484045      51.496121713837773
   198   1      19.073214029447804      36.845446765725448      52.780505731433848
   199   1      15.503759287328931      1.7672934954960238      4.1655421502743577
   200   1      15.493839535101268      34.213489407388039      10.997107269834409
   201   1       21.22444202109029    0.024536668130773303      1.3805383031752876
   202   1      22.875089191820514      36.750917844402466      52.656414739317185
   203   1      21.051125136286029      2.1764969369563216      2.9163658550652505
   204   1      19.242650835062076     0.05199458685633971      5.4384048780941123
   205   1       17.22125458921704      4.2061470613149829      50.163472153698912
   206   1      19.141207328041855      3.9210746639287954      48.713450199726829
   207   1      20.917488603658331      5.8570724850140286      2.8013499486184292
   208   1      19.024690073317515      3.5794465713405725      5.6766361927502951
   209   1      19.191368771603781      9.6164669656147375       4.404633902514286
   210   1      19.023140409017802      5.9163992439578745      53.054641302669985
   211   1      22.662613098229883      5.7888953191564303       4.086948879227875
   212   1      19.216770963324887      11.763210662103283      5.4623007951793134
   213   1      20.917394936641664      11.696521797507955      1.4624847556004055
   214   1         22.669856231337      11.859859984560176    0.027896556803727914
   215   1      19.170796308185704      13.463699835768585        3.97891540468986
   216   1      19.275742314356908      7.5894413112663557      5.8520151867184653
   217   1      19.256645417154925       13.38011121925212      53.155951676001465
   218   1      19.114100914284826      15.319007261328178     0.11874966695087301
   219   1      23.079346210978532      17.107671154517799      4.5163225517308883
   220   1      26.787278302625314      19.108994289788182       5.226482386951294
   221   1      17.271516961144474      19.365570938457079      1.5478535202032182
   222   1      21.024939843669099      23.239287939572119      1.4474199277461723
   223   1      23.107007991512923      24.731089879744612      52.920855651144493
   224   1      19.386372699979773      21.002903125349352      4.1605225753681783
   225   1      15.509904051657218       25.01257093046614      53.362878223414882
   226   1      21.291250373226237      29.147854262169755      2.2218512027703592
   227   1      19.344545354992928      24.774401479310892      4.2918352667451591
   228   1      17.437022306769983       24.89792661138231      3.1443451797411308
   229   1       19.06891081288045      26.860985675154332      54.227330264136995
   230   1      20.663625888204734      26.763753966759943      1.6716742356071088
   231   1      21.317984792226859      27.041079175506834       6.867794377994425
   232   1      19.264491579647672       32.43798930700671      3.6642297159874575
   233   1      19.312339038167728      30.592579884282696      53.964024108138517
   234   1      21.116645819774597      31.141363574476181     0.92873016421665544
   235   1      20.939068338612774      32.828905865087563      2.3424510827379761
   236   1      24.860559100448757      30.585402415058155      6.3857898668958342
   237   1      18.926747482847752      32.527620434679932      53.120581684895129
   238   1      21.013433884838854      34.743687236287577     0.78071332811717886
   239   1       21.09071233420649      36.294704298685822      2.7276936089311441
   240   1      16.886353487782596      34.810319876813239      1.3576390109178431
   241   1       22.67976775179114      3.8416284893994752   0.0048702139091119558
   242   1      23.080409484933107    0.099782700821246129    0.072566467695264897
   243   1      25.008685937605172      38.323128346266614      1.4676475865962506
   244   1      22.665300170907244      1.9583218529301074      4.3023084410347794
   245   1      22.777972234351026      5.5248119200773278      52.879152695569623
   246   1      24.604107222529603      1.7890367856567422      3.0401068013656052
   247   1      28.355036199993194      5.6903160536501423       2.884358785642736
   248   1      22.943539294099644      7.5563957182429959      5.7373906704769277
   249   1      19.126627533931298      7.9189491880304201      54.294500611647337
   250   1      21.146197201211304      7.5494246177741511      50.254613440090431
   251   1      24.551168962366702      5.5734047107820341      2.9042057727632917
   252   1      22.617674510761614      9.5758015935173564      4.1440232851681902
   253   1      22.993523414938572      13.463484436834921      52.903817849213809
   254   1      22.758910398637031       9.367001356228803      53.727809205657948
   255   1      24.776386422359757      17.484968763126123      2.8447362466050907
   256   1      21.298405302568373      13.530224633854829      2.9391366826348859
   257   1      19.009325413266513      11.584273201667608     0.15635769332361615
   258   1      21.364765430106964       16.93754487155412      2.9409987751572788
   259   1      26.821573930332271       17.12368750440875       3.954757558910067
   260   1       23.35107873302924       15.04806728522296      5.4619411978063797
   261   1      21.200770036287793      18.963898486997142      1.7176494486473746
   262   1      23.099873271731521      21.236554347664867      53.280066014222896
   263   1      25.164626442170647      20.874837053526466      2.8184682758968487
   264   1        21.5085004184476      21.007791029981707      2.7062077481777442
   265   1      26.817358290316253      25.462483967502937      47.537392094066142
   266   1      23.276039652306945      21.215165135250352      4.2438180551102045
   267   1      26.961020225798492      26.606614988053749  0.00055067252106937535
   268   1       23.30098012746604      25.201583169167474      4.2940949030744058
   269   1      24.861455288806415      24.580449597802726      51.476139487296372
   270   1      21.297789131998169       24.83398120083503      3.0734663492175054
   271   1      27.075864058489916      29.048802664555421       3.799259818821302
   272   1      30.706994181951817      28.799066753903467      4.1553404422290239
   273   1      23.076902896478867      30.468208141024586    0.024170016820755792
   274   1      25.036495602952293      29.065296289956628      2.7219218332471669
   275   1      24.869671173462375      34.305906718259124     0.91653445166984759
   276   1      22.959271621526419      32.996841169555445      3.8014452530221781
   277   1      23.130270295458057         34.793418892801      53.805737420949107
   278   1      27.037618038018945      34.714306103344434      54.287479445768504
   279   1      25.186507772472019      36.150297901684496      2.4814258366499651
   280   1      23.388397654580107      36.687663599211284      4.1223069996346364
   281   1      24.623650799364345      3.7769828102679845      1.3821295581995077
   282   1      28.285075994678529      36.798727337048128      2.4435971993095795
   283   1      26.334031530527032      1.8918281069231495      4.2713076465887747
   284   1      27.017102097152247    0.082117938427154979      5.7164482091526292
   285   1      26.781712398724309      5.6943710653825663      53.063610155343795
   286   1        30.1233018018075      1.7663147713529479      3.9259565498562465
   287   1       28.57907986079675      4.0630688672034463      1.3109651779656044
   288   1       26.59123069943875      7.6759118802509292      5.3543358178050768
   289   1       24.62385270468771      7.5668074978029738      1.6400198477886054
   290   1      30.358124512872099      8.0118211899396279     0.29472456065166153
   291   1      28.277195745849927      7.8663960891660096      1.3395140538893791
   292   1      24.581466988847279      11.707759444915416      1.3690562467959375
   293   1      24.852979479095957      13.577573427746385      2.6995636610590181
   294   1      28.320557777384948       9.745503321696285      2.7295058559820076
   295   1      28.870990930140685       11.42855534661768      1.4668807045093564
   296   1      24.912647663603327      15.663400519493385      1.6209749242702292
   297   1      21.196019930527552      15.375856510692902       1.273169939784691
   298   1      26.554625709361346      9.8213089844649382      53.140690053796057
   299   1      28.877165977918157      14.988881504765958     0.91517213916134599
   300   1      25.245179832493388      19.173972289704821      6.8825528731751637
   301   1      25.006308249081428      19.228278996056158       1.265019964067869
   302   1      26.804552481349319      19.175605998275316      54.244719501158485
   303   1      32.472453755267061      19.276431490793364      1.0381230801100401
   304   1      27.655362711116766       23.08793661254969      5.4871323709365711
   305   1      29.049445610636113      23.346956257715714      1.6325923556307074
   306   1      28.486550166275435      19.270266487906994      1.4014987186393217
   307   1      30.613774475432017      24.998015724735488      4.0947854362146483
   308   1      25.033747837517343      27.011308394855558      1.4312043451009109
   309   1      24.926455708884429      30.697753436657653      1.3469755903365244
   310   1      27.154280573755862      24.826397812393896      4.2967920739597476
   311   1      22.774599154797311      26.439391798602433     0.29443819361032403
   312   1       28.91281485552793      25.172521486823911      3.0122783695375368
   313   1      28.692403063160381      30.576878025848554      1.3899586992341817
   314   1      30.671286906064367      27.230642143586195      54.003997012902872
   315   1      30.311664297626962      32.957547273302858      3.9072116603582341
   316   1      25.081899071991593      32.679272400034165      2.5851849109262606
   317   1      29.017716441650439       34.81533203873051       1.212304751887312
   318   1       28.91348507596409       32.61038158050296      2.0444974872392123
   319   1       30.70531314194071      34.558259671519437      53.487621162540627
   320   1      25.249522763435479      34.108976269133201      6.8392553568052765
   321   1      28.992472655735472      0.2675573899219586      1.4911290092556884
   322   1      32.816048676496671      0.3061607075849998      1.4362698167942516
   323   1      32.143654973031261      4.1182487260488694       1.546177040686971
   324   1      32.177261095581194      2.2554484868002866      2.8248914820076818
   325   1      27.996770529176203      2.0440020496738946      2.6680095059617104
   326   1      30.423747294217232      4.1366155616415003    0.017459227734309506
   327   1      32.273694404218872      5.5963602228015468      3.0065473171265036
   328   1      30.695578273039288      3.8502571889687687      5.4719490376599236
   329   1      32.353564164226626      7.4588878299822126      1.4130537641079941
   330   1      36.469619707157996      9.4922273069659724      2.9698678406457701
   331   1      32.604060769641606      9.5360602629397135       2.617200259918548
   332   1      30.711669230033646      11.008370081300717      5.5295983578208796
   333   1      32.267640554309239      13.254848437901003      2.9136765682577441
   334   1      34.147173155559045      13.656739434817389      4.0232462420579598
   335   1      34.284437759231764      15.384318656470782      5.4034729595409443
   336   1      30.681261607933411      13.188183437182238      4.6049151754133746
   337   1      26.620847876706478      15.249091444568727      54.058447380240608
   338   1      32.726591761340323      17.612546225160234      51.537659920075001
   339   1      30.753322864415836        17.2433573314228       3.763142564070471
   340   1        36.6175266761079      18.870031929792852      1.1423404378172792
   341   1      32.468404909171433      21.198594899213653      2.5873038476588577
   342   1      32.514906126694626      23.453998891666703      1.2754066455886706
   343   1      31.031898824316105      21.148968054689419       4.145976804077077
   344   1      30.598752721902851      21.252983579866569       52.90449138776669
   345   1      30.571301105572662      23.262977307064762      53.957363239355068
   346   1      30.621809374288354      25.211949057244372       52.63794590870161
   347   1      32.588254896505156      25.079159583660644      2.6677393398664329
   348   1      28.702417792281956      25.174724954042823      51.305898155845703
   349   1      34.164099689409959      26.978614748894838     0.19914239703342673
   350   1      32.238691273131792      27.244006334782046      1.5975310159024969
   351   1      30.946636706220431      26.823510838131305       5.369037010738837
   352   1      30.655912557886946      30.718301049797983    0.010208911719769273
   353   1      34.537522182912191      28.804653154724576      4.2527426969057478
   354   1      32.468064185614026      32.693767144650408      2.8664712661566245
   355   1      30.725178996865179      31.223382380260457      5.4101311053156014
   356   1      30.676268361994392      36.964588689254576      52.882413586132294
   357   1      32.413907149163975      34.481124084541662      1.3108768999519183
   358   1      32.574599131665828      36.501117694652422      2.6473179965635389
   359   1      30.157069970799181      36.664106366679512      3.8411453774202178