dump/Si_1400_5/steps_81 (written by ASE) 

3995 	 atoms 
1  atom types
0.0      38.395898218429522  xlo xhi
0.0      38.395898217999999  ylo yhi
0.0      54.299999999999997  zlo zhi


Atoms 

     1   1    0.095592691211654091      38.249158750887268      54.105370209247027
     2   1      1.6943251136700039      38.229944513065178      1.2520659885914156
     3   1    0.047900033642942833      1.9218090500543976      4.3002420595656856
     4   1     0.14815305402711332      4.1120640081816715       5.235241169743384
     5   1      0.1013077536901572      3.7792059839121146      54.103882068329199
     6   1      2.0975236310172551      1.6549253846199745      2.5576322028038927
     7   1       1.977732617003148      5.4736861872227474      2.2408993353625788
     8   1       36.51330155353255      4.2277715043321153      6.4351665907420754
     9   1       36.42104802756112      5.8784405288666646      2.3547245666065133
    10   1      36.400638938882828      7.8871537738829307     0.95923493006250848
    11   1      1.9562986756340597      9.5739660570212326      2.3943306109095586
    12   1     0.34354178252754908      9.4273565232703067      3.7675610777181743
    13   1      1.8574301986922699      13.232600788152018      51.047906382954075
    14   1      1.9154281923944567      7.8204980841234111      1.1197161124997022
    15   1      3.7119284611967736      13.039178296400086       3.922064276494337
    16   1       37.75072220599003         13.223409397049      4.0031667068003012
    17   1      1.8530621553260829      14.981693000626318      1.3373504065367436
    18   1      1.2136646159743816      13.210029706244219      2.8617421649296948
    19   1      1.9129011200754573      19.194201527847532      1.1229645292107668
    20   1       38.31883279459236      15.262545989650983      54.081427762424624
    21   1      38.160120198507165       19.02642641604282      54.223799265559542
    22   1      3.6502342123586899      21.272942194689914      52.777682811927725
    23   1       1.792871813942057      23.169579919150799      1.4477654546230134
    24   1      38.392931433622671      23.213993675344845      5.3179777627933982
    25   1    0.073018141875473397        23.5047912434732     0.14752570834350531
    26   1      38.124894888541334      25.100859867142304      4.1395940838736554
    27   1      5.4417293162764668      26.775441022804713      1.2987169813198849
    28   1      36.565339981070444      24.904210605028638      2.3600836065895572
    29   1      38.389738535544979      25.223331456827118      52.768021630179803
    30   1      38.113061356064094       26.92014013763584    0.042248463427927166
    31   1      1.7486259610514354      28.852433212786181       2.314516508206125
    32   1    0.096976180764116085       28.84401449217463      4.1547687680469352
    33   1     0.37212160915788717       30.56492034517931       54.29280911979675
    34   1      2.3368555870529986      30.915047928098474      1.5119662821411211
    35   1      38.150536567642213      32.441806264134129       3.849629356355909
    36   1      38.392278357544185      34.459075678988938      5.2009061250406718
    37   1      38.304058027997982      34.304212565790223     0.22139195899286537
    38   1      2.1576004382492142      32.519971742084806      2.9790220073794877
    39   1      38.085084768560648      36.377369133602954      3.7809952322269993
    40   1      1.8566285397918836      34.873144454774312      6.5098246007886722
    41   1      3.6558839226190303    0.037289148508984411      54.238826947661821
    42   1      5.5460927646252856      38.177515923895889      1.3312761416415142
    43   1      7.7616849083676236      1.6544172331538614      3.8180806424610885
    44   1      5.6380706604829625      3.6747077577924361      6.3386942504187473
    45   1      5.6331136585266508      1.6678639562589503      2.7779189012573529
    46   1      5.6247169469741438      3.4355679098809859      1.2427305325204865
    47   1      3.8590215218446118      3.6160528062198649      53.944315095886573
    48   1      3.7738488653984432      7.3720510267305421      5.4200224631595901
    49   1     0.10710779240319078      7.7000519270158883      54.030313220286217
    50   1      9.3643655896981102      9.6686572713753129      51.698042485538444
    51   1      5.2163610919746768      5.7221188400595047      2.1526098299646366
    52   1      5.5574933218930065      9.2121206689034896      2.6818240307382339
    53   1      7.4611715377694665      5.7380171712477104       52.88151452207854
    54   1      5.3665724454215908      11.351344226024988      1.1752328575186062
    55   1      5.5822415691693399       13.05923512280231      2.6627834834350326
    56   1      3.7939998353738646      11.380672652852684      5.4121418092856866
    57   1      3.6145629900042651      13.440707827969449      52.926849285476045
    58   1      5.5027530102325262      14.860540258461443      1.3544647661420512
    59   1      3.9271919557151573      17.313871496067819      3.8850315272088563
    60   1        2.18911449820552      17.141171822700112       2.090395147353048
    61   1      1.6983367157977782       21.37202798311899      51.492595824539343
    62   1      4.0183618916386639      19.437111567888444      54.069167780426831
    63   1      5.6875215984437277      20.770479072612233      2.8605824640490014
    64   1      3.8714475239300419      22.773359749203426      5.3984283773910429
    65   1      5.9431670057600208      22.703282549184433      1.7611071704109216
    66   1      7.3428840374591893      25.056191445539294       4.242247081946255
    67   1      5.3670103609122135      28.687050513822903      2.7754560593031008
    68   1      7.7722690922300384      26.851661303534016       5.560764424841512
    69   1      3.9057218104525586      26.992267965440533      54.180118095241973
    70   1      7.5482199254753803      26.792949139190402      54.237685157421403
    71   1      2.0102152600263166      26.411004885801333     0.89649239069541575
    72   1      3.3872815832282313      28.422282054292754      3.9744885653154012
    73   1      4.0895323604499962      30.465800054048508     0.20234947167662079
    74   1      5.9473275070468858      30.744673870542456      1.5802876283855631
    75   1      5.7871279767727284      34.439404077986225       1.050608974201978
    76   1        3.71501600898885      30.645369107798096      5.4842158276179696
    77   1      1.9307444889797973      34.345518240347602      1.4385610209490338
    78   1      3.5733865611115858       34.55608953472192      54.158289830961486
    79   1      5.7680269456037143      36.247872166466678      2.4462664316032492
    80   1      3.7678181503050063      1.4955827155376342      4.0188024231246686
    81   1      11.450062133682733      2.2531544855470056      53.147397946092084
    82   1      9.4966336224066534      2.3474039357337682      2.5478805192073293
    83   1      7.8468993011022867   0.0096502856793253267      5.4568989367531868
    84   1      6.8336718573432931      5.4800039730534058      4.0421353102790585
    85   1      5.2994331720502368      7.7190380950186901      1.0548744945753721
    86   1      13.204582214795549      3.8509340713807654      1.2927999503075616
    87   1      7.3063074239509129      7.8724851366675894      54.213181345745639
    88   1      8.9899967186005458      6.0570260171621451      3.0264870167755826
    89   1      5.6229478147046912      9.6777266116464915       51.59587732037452
    90   1      9.1164100079987609      7.6732294460074328      1.3794290655733339
    91   1      9.5202197279428695      9.3626312776658533      2.7441544565081495
    92   1      2.0046169747570564      11.442394432200862      6.7027128439604606
    93   1      9.3797857548767034      11.375213604134631      1.4600904506455541
    94   1       9.420882861755592      13.424587946440987      2.8493677043032575
    95   1      7.2434350763222399      13.406755207396074      4.1758505299058113
    96   1      5.8133662573252067      11.391942083023631      6.6216544575200391
    97   1      7.4675067884681914      15.226479112855026      0.2115955264160336
    98   1      9.4896326986669415      15.553621894175119       1.472559161796565
    99   1      7.5302641611578336      17.154426782989837      4.1530013472030163
   100   1      7.5158530594100128      19.348068331628063      5.2357361911373355
   101   1      5.8695743775270932      19.111929439092773      1.2457962288674262
   102   1      9.9017758322613698      19.337617302791312      1.1834268629458524
   103   1      9.5939678655667411      23.395756868386911      1.2656002922734033
   104   1      8.0766849800364984       21.30596833978537      3.9267503297711275
   105   1      7.7170854335136205      23.019741059171199     0.17493258822796651
   106   1      9.5054444612118356        25.2518900145676      2.7967698998954806
   107   1      15.566850837821177      24.808062347323922      4.3788527106447086
   108   1      9.5304705407096062      26.897042506448102      7.2565494993648958
   109   1      7.6268403381516237      24.992536000092908       52.76145397751872
   110   1      9.6041769834349573      26.924917719303622      1.3177798854424527
   111   1      9.5479014970237959      30.690723362786223      1.3308312208387305
   112   1      7.4372479417849426       28.95341788599567      4.2104048969216494
   113   1      11.372470708663949        32.5662987478186      4.2530538925076709
   114   1      13.199052818280951      32.985005821132212      3.1467172113999475
   115   1      11.342767871742877     0.51212396241858449     0.14851750208417785
   116   1      4.3614691815795936      32.498850825697232      4.2531499981268066
   117   1      7.9310366938998644      34.755793774603767      54.134747595698443
   118   1      11.510668945828209      38.395829505102441      5.1588195877660858
   119   1      7.7077856760184025      36.511194562600146      52.900991786523448
   120   1      9.5199589195126748      36.613962556806648       2.746735815231192
   121   1      15.039417929701871      34.797699557433766     0.12741903107094005
   122   1      15.971403778128552      36.549590628262798      3.8160585493778161
   123   1      13.324913573442387     0.14440152585043617      1.6068793908229175
   124   1       11.42704749648124      2.2385204706504429      4.0544822245216103
   125   1      17.313892884397077      0.2754278777660642       1.266889244776146
   126   1      11.296984967345157      5.8403085673651214      4.1368817895055807
   127   1      13.279075416469132      5.8940245469694172      2.4480401616996792
   128   1      11.721464128820097      7.7982050100496725      5.4240540080049735
   129   1      11.302717901602627      9.4899430614458904      52.883264587499369
   130   1      15.283525386501633      7.8037626814786636     0.12615966421776667
   131   1      13.241991040386559       11.68472066718577      1.4610179311734681
   132   1      11.560114496010073      9.5636299564517575       4.147337765952182
   133   1      15.285445948649683      11.319806045694341     0.24878891563874986
   134   1      13.036439887340778      7.8687061295512004      1.2539273043406396
   135   1      15.336458434978473      15.156152194063708     0.40339542715312315
   136   1       11.47717129529723      13.374675034276992      4.0748173323544599
   137   1      11.452433225449743      15.390897646616422     0.29364263351259295
   138   1      13.461327519599642      15.676835305908774      1.6747692742747757
   139   1      13.593742812238192      17.530490311979197      2.9932403677390678
   140   1      9.3923045706437502      17.322455680922285      2.7321777461757728
   141   1      11.463018307415719       17.14099686463047      52.930271533480301
   142   1      11.412947392837774       17.22037367009041      3.9083010033444565
   143   1      17.318725394295441      21.380279826537013      2.9981353464273064
   144   1      9.9093595699461865      21.390465993661184      2.4489890433128605
   145   1      11.556349029664599      23.082573780555993     0.29347694575357081
   146   1      13.643062063726783      21.098645677575021      2.4969638784623038
   147   1      13.413580767012244      26.917287527800827      1.7362620935977569
   148   1      11.476396333058464      25.010759249325869      4.2882014369201986
   149   1      9.7294242142683096      28.906797191095102      51.672146271144676
   150   1      11.630280912831715       27.16906341703308    0.080366293274960129
   151   1      15.374147531026869      28.809203235894522      4.2716674175272962
   152   1      9.4644797012852937      28.793346177066734      2.7149763541717813
   153   1      13.334086041853674      31.022396120949587      1.9175338278634959
   154   1      13.266971628882528      34.740389921625322      1.6512014805757542
   155   1      13.868971469884702      36.665170279677156      2.8117163190612224
   156   1       15.33557131601061      32.716237249613485      9.3407376939223781
   157   1      11.129105786106647      36.931351613821676      52.965295888629427
   158   1       17.13015924543754      32.763419206151852      51.745290594875215
   159   1      11.367856527044809      34.511214612222673      5.5212739078139634
   160   1      11.631335498252199      36.380004621452031      3.8937428292953289
   161   1      15.147193116129287     0.23222735419785548     0.18239416187478785
   162   1      17.777286741094379      36.684297284588894      2.8617977007106572
   163   1      19.276513775124126      1.6443272859275084      3.9812802564410488
   164   1      13.188337414004607      2.0789119263296238      2.8821145335519898
   165   1      15.623662847583784       4.044212673677384       5.151844227122842
   166   1      18.922322328434976      5.6271440001211195      4.2197916609372763
   167   1      15.336504355445845      5.9140100153800033      53.078190214361015
   168   1      17.161221040055064      3.8554915527449083      1.3359654707799478
   169   1      13.628719968456211      5.5545437106519415      51.615391234048936
   170   1      10.851409377931724      8.0856889671523771    0.068523606197663775
   171   1      21.050877014898905      9.3411704868173651      2.8223931805591658
   172   1      13.363316414517366      9.6685101387667594      2.5395692300947066
   173   1        17.3670159105957      9.7113661525350654      2.8787384020728841
   174   1      17.115368369144885       5.770513708829113      2.5675434875864647
   175   1      17.467751066623471      11.472421571194117      1.2578302234272061
   176   1       13.32975215957581      13.556853389399201      2.7199611979343081
   177   1      15.530019080531705      19.128412378761357      54.135242261686109
   178   1      17.318721831707993      13.196304243468465      2.6334686826585436
   179   1       17.11746853930287      17.312053056085606      2.5070645943414411
   180   1       15.78493809582821      15.102255234836454      5.1281770185151903
   181   1      13.334987653338882       19.49646588207138      50.202325481283943
   182   1      15.495330931932488      17.502175728410727       4.347421795915591
   183   1       17.06009547038672      23.133200105439631      1.4280000267832382
   184   1      13.576306157646226      19.255019905815299      1.2175443326521882
   185   1      13.631474595492078      23.179340953702635      1.8789182883935018
   186   1      18.889054939118996      23.275734815083005     0.10364199319518523
   187   1       16.91793903437901      26.710400364971861      1.4168623739505595
   188   1      13.507783493090095      25.017320360394052      3.0601634076413009
   189   1      15.075365421974933      27.053873901856644   0.0082146253872451922
   190   1      17.268305211137665      28.877416787448063      2.5365774213024559
   191   1       19.18845550309393      30.891556864348203      5.3942350335354465
   192   1      15.269359128298158      26.735619030526632      5.5725807840125539
   193   1      13.414135735490952      29.063613657994924      2.9266131996173153
   194   1      17.092536552166621      31.031909233189442      1.5283034457132521
   195   1       18.90800977175153        34.5815763877347      54.168840043897895
   196   1      15.091337588209816      32.989573264393584      53.136572992861588
   197   1      16.596251614727969      36.730426250010176      51.532410599353724
   198   1      18.868588368050034      36.108977681399125      52.410803816775193
   199   1      15.202843728843602      2.0424190288842765      3.8899042168162077
   200   1      15.590742477852213      34.297526895877972      10.928507081297129
   201   1      21.076051754042275      37.845660496843244      0.9958598977720845
   202   1      22.902148012749898      1.0504212226207812     0.35488085779820727
   203   1      20.917802594162257      1.5592612884273687       2.360471765065379
   204   1      19.612557057352738     0.45889059170976193      5.9495756905341803
   205   1       17.33221346691877      3.7115513314819304      50.249272462540361
   206   1       19.19223034307284      3.8618677760606817      48.679967425124836
   207   1      20.738599110308275      5.6787728839614848      2.7880609288260634
   208   1      19.428445813390127      3.6067543089707721      5.1783680758312807
   209   1      19.279977354110038      9.5719332194001119       4.213074336122304
   210   1      18.981206703467222      5.6186558499179684      52.763493793203658
   211   1      22.533312068033556      5.6664482209241456      4.3153561767235953
   212   1      19.215223434283388      11.396864059277062      5.7115102267822273
   213   1      21.119695837522688      11.416812808571672      1.4440563329216967
   214   1      23.098978946009186      11.264558279139223     0.23192847617389134
   215   1      19.404589135750378      13.204474484740921      4.1297601183188597
   216   1      18.978682129648895      7.6325294843296154      5.4397855492594402
   217   1      19.298964716515766      13.733844978946374      53.152925105177992
   218   1      19.160138311962239      15.558111943731138     0.25226938819311051
   219   1      23.099316251560271      17.237332025641404      3.9538860980984158
   220   1      27.130937305721783      19.162379695095844      5.3866789610843195
   221   1       17.41547101258665      19.356195033538615      1.8320286597141044
   222   1      20.807281305192266      23.029983189305373      1.3384273896563048
   223   1      22.720928079955854      24.798803082868979      53.239312489147764
   224   1      19.244416730682293      21.449868767887811      4.2061144888608029
   225   1      15.155588028676659      23.127117609542086    0.039942533375062803
   226   1      20.835699926580858      28.859655510620449      2.6867619276469066
   227   1      21.082557524438407      25.102396597464736      2.5996347625348664
   228   1       17.13401758310151      24.939012412665303      2.6061259296674608
   229   1      19.284016937175341      25.017700532028407      52.817709746583787
   230   1      18.775348584716792      26.971004701733651      54.115380832643709
   231   1      19.021505571503717      27.071269929168118      5.3945085953881629
   232   1       19.02797496987105      33.019961705749537      4.1014801892781154
   233   1      18.728966288024566      30.605773078098618      54.289320191613093
   234   1      20.892853415688847      30.766639783192574      1.2279847007609528
   235   1      21.014644770428937      32.494158366617313      3.0025640405135938
   236   1      23.173236580442989      30.454111492342609      5.4199242696114771
   237   1      19.004852395293369      32.724118896271889      52.954639240419915
   238   1      20.829884615000086      34.368956444902508      1.4547565572105527
   239   1      21.150038221076592      36.343506874851727      2.7122831730966235
   240   1      17.128916231315003        34.5167243146565      1.3167379702513802
   241   1      22.803817682325107      4.0095221565184538       0.113246168568128
   242   1      24.567501417661095      38.055078757533309      1.1227585977187786
   243   1      24.858603739216846       1.410472727515288      2.7414968752625106
   244   1       22.84302340040573      1.7034206456761212      3.9779499101068696
   245   1      23.138897035643826      5.7973873821378277      53.285267731453715
   246   1      24.635458730171766      3.7926309807123237        1.71585094183903
   247   1      24.647077190046474      5.7814298225898266      3.1470012056378662
   248   1      23.206665602375406      7.5089923924727193      5.4484338228183571
   249   1      19.014360832039721      7.6142581342751976      54.211891054073135
   250   1      21.032049583673299      9.6965929899565939      51.677793552681415
   251   1      24.754548976726543      7.4271735282150795      1.6678848896525651
   252   1       22.99197418444335      9.4915090674187557      4.2002843421275209
   253   1      23.084543922058206      13.370474813521378      53.160515131508831
   254   1      23.099081667482565      9.5768583676991579      53.149497769806466
   255   1      24.926468636318383      15.178028207204669       1.742258885126706
   256   1      21.319306253892293      13.317733660433186      2.9133562347526318
   257   1      19.509787029105027      11.615323636483449      54.190792296546462
   258   1       20.95037183508386      17.246966278670978      2.4487460831250583
   259   1       25.35345876468751       17.29670856637064      2.9992217878018534
   260   1       23.09397707020754      15.603820569281247      5.6816161882148695
   261   1      20.847167221739777      19.270763969581868      1.1950604003024727
   262   1      22.632146106100276      21.005329552030922        53.0149227301686
   263   1      25.104130772970962       20.88703208185839      3.1848764051185769
   264   1      21.103169828461422       21.25437966112375      2.8763010285000417
   265   1       26.70096789669882      24.665223342274128      47.436187252153225
   266   1      22.954883805865503      20.869807006922592      4.3451201490355063
   267   1      26.580697341163862      26.660477732266145     0.21062477527083259
   268   1      22.833399562048541      24.889510933892879      4.2043560469541283
   269   1      24.477282221870119      24.542564567445488      51.870363491335425
   270   1      20.727842902837718      26.866727725481997      1.2693087062549264
   271   1      26.673150735928296      28.653411824955473      4.2199554083684241
   272   1      30.443937362585089      28.586927649893564      4.2580694083157145
   273   1      22.915703221288084      30.635084695544865    0.087422647820721719
   274   1      24.878763918850449      28.329852129481093      2.6246711620906558
   275   1      24.740967463871431      34.425771898040843       1.246319034041667
   276   1      23.162339054072625      32.327013383213647      4.0015773470828453
   277   1      22.595263689564444      34.377075905521892    0.023232948814359132
   278   1      26.624882553490533       34.52356380566679     0.13020300657641454
   279   1      24.991059866054997       36.35077258302843      2.7765403586467849
   280   1      23.269303108926263      36.283474031524058      4.0402305263394256
   281   1      26.655611518709236      3.8578204725768601    0.053396621316664991
   282   1       28.97094528731721       36.31231467887423      2.7863061574642636
   283   1      26.891332667078842       1.926452848125414      3.7157944174095752
   284   1      27.108513389077626       38.14414189952106      5.2566525726376225
   285   1      26.777990631329107      5.6372108949576285      52.746532614846451
   286   1      31.087200031106811      2.0333820040683421      4.1034119732429861
   287   1      28.673920405657874      5.8560910532335768      2.3980096334996253
   288   1      26.819369574704709      5.7692200358051133      4.0495982401213286
   289   1      26.437827405745484       7.492550128091982      54.250279428734792
   290   1      30.643718077472037      7.7314001755849509      53.915242736894562
   291   1      28.559934440296285      7.6058260002621667     0.94166356504436022
   292   1      24.857516671310403      9.5047614941167442      2.8912633338714855
   293   1      25.137052367390424      11.316758564907911      1.6997864493583978
   294   1      28.807908648768088      9.6557620394949364      2.4134069212430429
   295   1      29.069083398022016      11.487425038874335      1.4273793588330379
   296   1      25.018778623897759      13.255051236094138      3.0897461429955704
   297   1      20.954802102574885      15.116413244307818      1.5032542508274338
   298   1      27.195829807547184      11.659358099996966     0.22831772519139129
   299   1      28.923407703663138      17.232033034848744      2.2790928197611953
   300   1      25.003304659646084      19.254122566854409      6.7848756725042207
   301   1      24.929584059093752      19.100301807300792      1.7383642799637413
   302   1      26.527033628867553      19.263444561489951      54.244345051636344
   303   1      31.023931851241009      19.196837381466473      54.007598134913749
   304   1      26.832013623777449      23.198647570090209      5.2631062630794423
   305   1      28.666068211881953       23.01608254214657       1.049343741177384
   306   1      28.797450196252743      19.309421481779353     0.97555540548148612
   307   1      30.801200057245726      25.050383702982085      4.0392789293290088
   308   1      24.607965806551562      26.212177704054906      1.2497425921985696
   309   1      24.848219968823489      30.486727190189921       1.473068586508282
   310   1      26.866074715514625      25.167796917719595      4.1293530365240239
   311   1      22.782136836901554      26.729343982314088     0.17798321230500286
   312   1      28.927672061748751      24.934729611351315      2.7097419803551466
   313   1      28.771356057646553      30.516629102534289      1.5931438956813873
   314   1      30.652979387739869      26.739053855501215      54.194792049405251
   315   1      31.059052108815845      32.543665712667064      3.8928741577555424
   316   1      25.000173469527919      32.354980409756926      2.8335724832490521
   317   1      28.507798177373289      34.441049459196662      1.4606262496303986
   318   1      29.169386007450203       32.58027323156476      2.7498015432034069
   319   1      30.351571659056464      34.280742853220524    0.063964101806903081
   320   1       27.03196078057811      34.442533185100878      5.2256734238280176
   321   1      28.610956339518332      38.384773556969392      1.5312388620455391
   322   1      32.648207744353343      38.174307408742074      1.4109473018412579
   323   1      32.448887380963015      3.4703899103774449      1.3599903325373941
   324   1      33.186368778119302       1.495510768522494       2.895599432435993
   325   1      29.133909797079479      1.9673599029049724      2.4651181576289782
   326   1      30.581816502640617      3.6290333261475318      54.234360342810369
   327   1      32.653775523365184      5.7652514907123278      2.4064803257806693
   328   1      30.429511931265047      4.0146104375906262      5.2613165775757906
   329   1      32.555256857210786      7.6344811743701371      1.0464555414984484
   330   1      36.127885955470788      9.6898284173603297      2.4056295099242924
   331   1      32.947530942686207      9.4268197808820524       2.657977004513997
   332   1      30.546990738080375      11.275775815475882      5.1692344605104026
   333   1      32.809129950918759      12.986643813163996      2.4042485478162581
   334   1      34.396428567821928      13.462920984715963      4.2017344495477955
   335   1      34.832498980631208      15.310194694717199      5.2424803893220986
   336   1       30.84345599531429      13.187133180927704      3.7054721338409875
   337   1      28.557888968764161      15.255546499783934      1.2268711873138074
   338   1      30.568339175883661      17.345989312051476      52.837988489569376
   339   1      30.642235579926719      16.797213066563206      3.9058434379412232
   340   1      34.604557573298536      19.416346350081589       54.16873071948914
   341   1      32.481868742990308      21.420084394167215      2.6776976630883818
   342   1      32.446066230882195      23.001167777473192      1.2080410841885956
   343   1      30.669750866738578      21.103846077644256      3.7681755179390821
   344   1      30.509933030539376      20.962508036647264      52.641280010576303
   345   1      30.634955788238905      22.980567497782776       54.01369668135348
   346   1      30.267013899140743      24.812129803574035      52.806800060874188
   347   1      32.810893305963006      24.931076477657566      2.3112089655750889
   348   1      28.443946163436589      24.615162661457287      51.355889622100044
   349   1      34.415275700068776      26.936475270618406      54.124187908160422
   350   1       32.58462798143681      26.814614028479927      1.0122612246285818
   351   1      30.648180081264353      26.798188473768477       5.368664778230265
   352   1      30.326643483580781      30.718248251618039    0.083082855475424849
   353   1      34.636450099218742      28.967101584227578      3.9364176215965014
   354   1      32.835884968690607      32.168689066171794      2.3461550809403082
   355   1      30.932572596290527      30.572772717051567      5.3772511181949998
   356   1      30.618210827525989      36.260711213240356      53.053489026763515
   357   1      32.219106880426537      34.395651018072904      1.4734244980453557
   358   1      32.631609635013767      36.142511981321832      2.6807132571465226
   359   1      30.752321394156372       36.50729839860616      4.1336046171248855