dump/Si_1400_5/steps_31 (written by ASE) 

3995 	 atoms 
1  atom types
0.0      38.395898218429522  xlo xhi
0.0      38.395898217999999  ylo yhi
0.0      54.299999999999997  zlo zhi


Atoms 

     1   1      37.661335587783192    0.017967354701170994      54.068775170750037
     2   1      1.5273650957070772      38.374204948260761       1.050193894841275
     3   1      1.6701760375473815      1.8649164350372067      2.7592177247478076
     4   1      38.330679454534639      2.1939920213069874      4.3020844293958342
     5   1      38.124054119253181      4.0448230420365654      54.195606079101402
     6   1      1.4456517868636618      3.6922163018016079      1.4683561570508441
     7   1      1.7509189807490413        5.61241434556747      2.7976485683200631
     8   1      38.033880172866183      5.9308537978089566      4.0437775797125477
     9   1      36.276584390937352      7.8533669318010109      1.2909052110023918
    10   1      38.150794907518566      7.7394176063998108      54.158715247424119
    11   1      2.0555303343795019        9.40006184952734      2.4375240770234088
    12   1     0.46101931852454625      9.9349464833384111      4.0179680951197749
    13   1    0.025659578565558505      13.261406261370428      52.937165037825629
    14   1      3.4785606017009432      7.5692883205123236      54.131058742405997
    15   1       1.989239374137487      13.653291235744803      3.0818243712704185
    16   1    0.060550949000407098      13.708545826356568      4.0297955828642893
    17   1    0.055478440853983284      15.482005740889202      54.250572188033438
    18   1      2.2117150104809591      15.301840703911747      1.1623881883294971
    19   1      2.2708351654821448      19.357270153650528      1.4258696139509655
    20   1     0.39791900239728989      17.568252195705249      3.9538285378365821
    21   1     0.39107348411967296      19.217746755096307      54.169036508878243
    22   1      4.3738898118231093      19.092506534811527     0.18281938753630136
    23   1      2.0093783659110258      20.966493714060981      2.8154374831109066
    24   1      38.243337164520241      21.098703216140283      4.0199236780982321
    25   1     0.26515732879402865      22.775877301592345     0.32058226117760585
    26   1       1.746029468211554       24.71707115192029       2.598069142543638
    27   1      5.6776766238117125      24.789466371646384      2.8939025332490673
    28   1      38.366127860789646       25.16612760688534       4.110807330980971
    29   1      38.383564861285912      25.046764650826965      52.925532603828884
    30   1       38.31675749025824      26.810147453266939      54.259795162995147
    31   1      1.9132523901752807      28.439576777926728      2.4675996334287689
    32   1     0.12196976074325037      28.490975079297609       3.871684366837258
    33   1      38.171809297712983      30.709249038692253     0.42038616888700081
    34   1      1.9790281467521353      30.594535483932404      1.2046346796993275
    35   1      38.073455448645838       32.78295650115907      3.8601721839129715
    36   1      37.947120421288709      34.654982118042753      5.1788288949886141
    37   1      37.917407341091142      34.838378378145904      54.279883135112506
    38   1      1.6684137704757709      32.608948218864164      2.6156820284732945
    39   1      37.973861440963766       36.89173230210146      4.2160100209330285
    40   1      1.6908429842268176      34.417107006429283      6.7164183056179754
    41   1      3.4271095372231666     0.36807665999977568      53.958774304120851
    42   1      4.9774493592092979      38.240813441631722      1.4078255218546243
    43   1       7.494898025014713       1.892817141115803      4.0771579364303969
    44   1      3.2727260664692399      4.0378218543606783      5.8380219467037424
    45   1      5.2284899547859274      1.7939655788037072      2.7192074466412248
    46   1      7.6200999662567117      3.8296495733909022      54.296913627495371
    47   1      5.4584394143539408      3.4300679911127028      1.0532179325774127
    48   1      3.2296855837758418       7.843033470240635       5.329497682441354
    49   1      1.6471787576750194      7.1900419314045392      1.2676102465212693
    50   1      9.7851814559830306       9.499866268988324      51.323519183260011
    51   1      5.3324374340770246      5.6371977292585767       2.451107074573518
    52   1      5.4917132880338713      9.5055439921649025       2.663003610269834
    53   1      3.6288250003012572      5.6885186557770284      52.860069844433248
    54   1      5.9921655481970113      11.536539880252567      1.4791390947610785
    55   1      6.1648940659400813      13.408013954473098      3.0068463010246211
    56   1      4.0229723610649888      13.821236188773778      4.1601010734521457
    57   1      4.1602442747313528      15.386044737419205      54.297349191876208
    58   1      5.8724233112905821      15.280380622109599      1.6540234620370726
    59   1       4.193289347346866      17.432281107071688      3.6731771052545117
    60   1      2.3285597148439461      17.388041017137184       2.529979295332621
    61   1      4.0840595904244115      20.982245948873707      52.837668296837805
    62   1      6.2029996460940362      19.528405575146614      1.4997316879151641
    63   1      6.0937664361221335       20.99192941886113      3.2225920901713589
    64   1      3.8018488391024805      22.987495464155081      5.7815059698303015
    65   1      6.1349186449890745      22.558013114050794       1.611475153124331
    66   1      7.6339719766424174      25.019123675088483      4.3528423547528154
    67   1       5.704580308008194      26.754186713698328      1.4198338957526189
    68   1      7.5976516316815168      26.742688171676015       5.616806332670488
    69   1      3.7303645391267728      26.660213944016597      54.090055377613858
    70   1      7.4659555691292248      26.830462695526808    0.043948162374977083
    71   1      1.8951584297214528      26.570686995356965      1.3030000193757227
    72   1      3.5713631293907531      28.496336635837245      4.0957228955892813
    73   1      3.7640929632621898      30.536100839648231      54.184852449740795
    74   1      5.7952661891202704      30.281336585452458       1.378229576590879
    75   1      5.0148406078713066      34.127152870030095      1.2078442934147828
    76   1      3.7918414759875727      32.087740861158807      3.6240768103274368
    77   1      1.5068600115280872      34.673732179858959       1.475352973436828
    78   1        3.29860962551375      34.556439341126733      54.214845371127446
    79   1      5.5827535332126885      36.108437730285281      2.3254932839891369
    80   1      3.4601206110494216      38.276270975284028      5.2628198719688122
    81   1       11.33646276444324      36.400740154541026      52.844699880246061
    82   1      9.4874873036434106      2.0102600431858786       2.752618983798083
    83   1      7.7927700383213283      38.324678699395655      5.1793575265850658
    84   1      7.1877433904405139      3.7214793287179728      5.4796014179578956
    85   1      9.3778856231638255      8.2033922956052461      1.1699874643817096
    86   1      11.613439448039347      3.9202904127090643      54.277636506597766
    87   1      7.4976222915746851      7.4895143892284857      54.263698656241345
    88   1       7.195535647242453      5.5676184415804002      3.9733076997828212
    89   1      6.0917082744956943      9.5894371017486613      51.321997424460228
    90   1      11.434096061649692      7.9282030609306497    0.045918881059094495
    91   1      9.5530001831652775      9.9427797546143974      2.7060303637446035
    92   1      4.0550721609988667      11.799016258046485      5.4593375436810891
    93   1      9.5361767725479467       11.42888166110988      1.0972515095541349
    94   1      9.8117343637341552      13.454126352204607      2.6624136428174001
    95   1      7.9715691606737682      13.239802562849286      4.2202489022772971
    96   1      5.9247674076201973      11.896061612012113      6.6762158096801238
    97   1       7.630405323971293      15.342667679772113    0.097562502572850651
    98   1      9.6807913880386121      15.194486301938595      1.0231782054530631
    99   1      7.8549230247445916      17.156296004541783      4.1887563248338546
   100   1      7.5971584002077606      18.980154826183316      5.6247072975730212
   101   1      8.2361493369153163      19.433716133851533     0.14471545283577156
   102   1      9.9220132523937874      19.037881996757044      1.7652772681613309
   103   1       9.806815510754884      22.953402909852986       1.649442237067317
   104   1      8.0482815057394035      21.061456629518915      4.2644442887524834
   105   1      7.8266363709979112      23.197697664282622    0.013142160427128147
   106   1      9.1249737709126695      24.967281301647699       2.622340919543992
   107   1      13.108972976231151      24.859156184459081      2.6361193135776824
   108   1      9.7512182553865028      26.690354071842108      6.8618011926733162
   109   1      7.8397540151267409      25.187009014122165      52.662177531452549
   110   1      9.2614677781576056      27.035742284788366        1.53238924492624
   111   1       9.390137479945329       30.35724476721894      1.2591174089145258
   112   1      5.5197291519236282      28.567530411658769      2.8137687016185735
   113   1      9.5594541513987519      32.384382047700001      2.6924566598967892
   114   1      11.516300451902218      32.422705645201773      3.8436130344853146
   115   1      9.5354592312914939       34.42754014120753      1.6722027365108507
   116   1      5.7623733719955652      32.296042355710199      2.3232580322936545
   117   1      7.6124168648663488      34.604399745080535  0.00096305325710090975
   118   1      11.308587791039763      36.489897737627508      4.0224570282580867
   119   1      7.1517405011243147     0.19008776253785792     0.15961983613440228
   120   1      9.3753659024728471      36.557338000398175      2.6966154037273995
   121   1      13.398897882567942      36.401615450281447      51.470684709706134
   122   1      15.280898140256278      36.164457620545335      3.6799544377254594
   123   1      13.562569806548639      38.383849023458318      1.3816702951812454
   124   1      11.745609879206043      2.0264819907666998      4.2429055956270201
   125   1       17.37256503435712      1.6358508270426175      2.3738081245243636
   126   1      13.318930608687159      3.9382985127580468      1.4360548989633695
   127   1      13.158557108027651      5.8653353958715551      2.6346559146197697
   128   1      9.3539912913931786      6.0532511320829858      2.2777435897968066
   129   1      11.531758685128743      9.5605687614817203      52.799709532772468
   130   1      15.256603689882393      7.5803726218808354      54.237723044348783
   131   1      13.494268997244346      9.5799021641508872      2.6337834923823369
   132   1      11.614133290206446      9.8259314370256607      4.0543548731325361
   133   1      13.728316053353604      11.567648275084895      1.7944423146649997
   134   1       13.25363838603772      7.6933968391218688      1.4175537522044352
   135   1      13.744111698556935      15.026930987660569      1.6911521122261879
   136   1      11.837400320335144       13.54197693987817      4.0352525693565209
   137   1       11.75975272747799      15.318724190810988     0.26129533187640847
   138   1      13.654686082654127       17.33898714137068      2.6893047874474285
   139   1      13.514951285568147      19.009368131186132      1.1682432371276017
   140   1      9.7427708179542876      16.934923088787393      2.9786000711668192
   141   1      11.636551046290414      19.461084697859636    0.036065733738291771
   142   1      11.796381430359958      17.283219418953053      4.0414272744108279
   143   1      15.386478137813972      21.037347812349047       4.123160573168466
   144   1      9.8775539830052317      21.190700196254518      3.0210827013930381
   145   1      11.455750551252398      23.071390208161954    0.050762823707191283
   146   1      13.402740928637872      21.045807670308211      2.4832630848022199
   147   1       13.39516668704964      26.811606271169445      1.1181526037968172
   148   1      11.374313568777172      24.887598112530981      4.1480547709052331
   149   1      11.753580528885225      29.086700021293044      52.788759384459276
   150   1      11.202085144156854      27.260328731771221     0.21868037090006259
   151   1      15.307041353635627      28.496329710335488       3.958962368111631
   152   1      9.4131571108961474      28.994731970523393      3.1126793674432083
   153   1      13.708791833949324      30.728725584832812      1.2450644110112772
   154   1       13.48008408267297      32.545266730322027      2.6639558986225693
   155   1      13.204926707575924      36.300563766907132      2.6044226458780053
   156   1      15.228276170598996      32.445313618184649      9.0551235330931092
   157   1      11.351509128919764       34.42332020483375      0.1147094910031114
   158   1       15.33320699762135      34.281129782125348      53.867239166928535
   159   1      11.283489195893134       34.40322327114032      5.1088919193769025
   160   1      9.4388060027469507       0.114308067387679       1.342941453391133
   161   1      15.375163172902756      38.380226798947653    0.015478184609480633
   162   1      17.539842122512603      38.164621627617549      1.1853224471577413
   163   1      19.431083005408059      1.6199773185401081      3.8431838185629656
   164   1      13.330675261100078      1.9086808654507916       2.616557884328369
   165   1      15.428813454799888      1.9009910234691176      3.7552076533535113
   166   1      17.506599121785388      5.7010161206820182      2.5556704838236439
   167   1      19.021258941202642       3.685221160355006    0.033362950936918899
   168   1      15.177486654973032      5.6370569570100066      3.8905909902553022
   169   1      15.152610151514271      5.7123497727350552      52.707474882184577
   170   1      15.538823061839132       9.670635838910723      4.0700013476016244
   171   1      21.162798977486286      9.4886848050812276      2.6978621151536717
   172   1      15.484099253675137      7.6902275044092878      5.2781040970664224
   173   1      15.569374439809289      11.216177807099022     0.12470529407651135
   174   1      17.612277426264651      11.713654915807469      1.6410620757260992
   175   1      17.507976871456226      13.625623043303207      2.4579193202109542
   176   1      16.367665866633907      13.111557044656442      4.4150213374982608
   177   1      15.565011012326806      15.288664090837285     0.42567265886775635
   178   1      17.603318991852635      15.840852255364025      1.4674532278391443
   179   1      17.719339309737467      17.679961506852884      2.6922238673690546
   180   1      15.465218414861214      17.033820401611372      3.9807293485854278
   181   1       15.34785046104806      19.281916898082262      54.210570066717942
   182   1      17.225602043354126      19.322216407287222     0.92984539465782001
   183   1      17.321652181528101      20.931193947883212      2.3563425107985467
   184   1      14.946226260992605      23.028150720109736      5.2894931790503037
   185   1      15.210333586450844      23.238719160641729      53.963990834350462
   186   1      19.152587029913633      23.074437352996569      54.149171891781734
   187   1       16.86218056791531      26.838853094250943      1.0532005919977696
   188   1      13.479021758059593      22.983925262183913      1.4532575349958528
   189   1       15.21283019407263      26.711325027236164      53.856911533363338
   190   1      17.001399042096192      28.899268106071606      2.5946135803879078
   191   1      18.896426400555058       28.29278463291897      3.4981354099420399
   192   1      15.316166756004897      26.197126283975653      5.1786672918847536
   193   1      13.253013607011381      28.821334481085692       2.619146988528676
   194   1      17.420851717245529      30.621299265117116      1.1700842755168197
   195   1      17.043674045425437      32.491254207660624      2.4931701530701735
   196   1      13.449164663416196      34.511894696005072      1.1230012981570463
   197   1      17.302403516526994      36.323522064555441      51.761661442101612
   198   1      17.221189253123576      34.463304335404175       1.322059372849206
   199   1      15.391181592182594       38.30345465753301      5.0622835754829669
   200   1      15.245554166169279      34.392597346851453      10.553888914193299
   201   1       19.45505091684894      38.117231548289894       54.27224499696252
   202   1      21.107774557255308      38.140003288462019      1.3876635070223986
   203   1      21.392465818963114      1.6485401015132921      2.4194395436950669
   204   1        19.5866332247457      38.279439655824056      5.3556003710188884
   205   1      19.198374671126043      5.8650336104678145      53.027663665098295
   206   1      19.141135635495228      7.5628601031917775    0.098121707153552673
   207   1       21.14524358376968      4.1026187288160703      1.2698420762787912
   208   1      19.111200672462743      3.3593658355641933      5.2494783604412998
   209   1      17.475868065295689      9.5725386233740331       2.684207106237249
   210   1      19.150233365963537      5.3930792146427828      4.1216144609126424
   211   1      21.250822596170487      5.6356976260138554       3.062726646363239
   212   1      19.090403889126144      11.704810757297402      5.5148636893467256
   213   1      19.611022666902901      11.485304143365724      0.2176029030612085
   214   1      21.604344445193433      11.619210579518013      1.2155363594073847
   215   1      19.254073550915706      13.580142785589217      4.0883155773656785
   216   1      19.231173676583097      9.6335526645690734      4.0630684611347059
   217   1      19.477570900424428        15.4798616278238       54.13431283248417
   218   1      21.212896128652144      13.501017014361848      2.6765088356277955
   219   1      21.078256479381444      17.078724861274683      2.8352493513988044
   220   1      19.328859698810259      17.332299313204828      4.4132821730482865
   221   1       19.43484730009736      19.292291638834449      54.082264018772136
   222   1       21.10507142923834      23.033495347179375      1.4198335274721323
   223   1      23.054860808787108      23.111048827463705      54.285656181203038
   224   1       19.16820694744381      20.920897645376286      3.5584769812418706
   225   1      17.036171084631896      22.659884451968754      1.0078117064347201
   226   1      21.013751602651972      25.149668502864198      2.4276738434137415
   227   1      18.819298932738885      24.614280700493378      3.8548751885921888
   228   1      17.006381322883264       24.70163101292319       2.225008162685763
   229   1      19.172715214966829      26.899081572572381      54.291241353666393
   230   1      21.092103250898958      26.939594332235249      1.0496658230116482
   231   1      21.210807358515634      28.719120861773007      2.5699745225347352
   232   1      19.048503004514608      32.460048578042851      3.8274635655269553
   233   1      19.262029098106094      30.865045112431218      54.141885912690199
   234   1      21.163682170921028       30.59647023181363      1.3039678639706949
   235   1      21.074384702400344      32.289237293234095        2.79578299183762
   236   1      20.984516128241808      30.408361113104675      6.5911062096743462
   237   1      19.022407591135256      34.428935499790484      54.185950831926995
   238   1      20.606825503484949       34.43492092867983      1.5513274070693805
   239   1      20.846150323694893       36.13091942812467      2.9304710667061515
   240   1      17.417721867110806      36.318102012841436      2.5836038577801324
   241   1      23.261436982056544      38.107300695269075      54.126633557105265
   242   1      24.817072371564748     0.09971124352776356      1.3194004710151161
   243   1      25.104297085123086      2.1273384910669066      2.9431236312001592
   244   1      23.047628336823919      1.5805623273096292      3.8867703430214555
   245   1      23.092353584637625      3.6647376118612147     0.08667109487655604
   246   1      24.892840328524851      3.9615965227209204      1.5697993063340399
   247   1      25.003624822749209      5.9658227142168725      3.2238688060058971
   248   1      23.032036099580104      5.5577609456180106      4.6529555267152745
   249   1      20.972126228901612      7.5383705515330979       1.514321976438614
   250   1      22.816171027135685      7.3973382346643097      54.158579436686388
   251   1      24.867645831670551      7.5509645921795299      1.4851968897935204
   252   1      23.076601229993774      10.074914178961997      3.8694135672350076
   253   1      23.635731667257637      11.307694213348709    0.068841214551889518
   254   1      25.242864199898143      11.133943872236436      1.6840286620171792
   255   1      25.172250019032955      15.114672333414825      1.6380404021941244
   256   1       24.93758288888165      13.179635387226387      2.8127405689564045
   257   1      21.347154011819253      15.434946456254634      1.3319725402526279
   258   1      23.370486574701502      14.993375269063998      0.2063580526059243
   259   1      25.214909261814711       17.26470047211026      2.5214473576143845
   260   1      23.318951059417273       17.17372265468088      3.9941483659193726
   261   1      21.369838042946157      18.859084782735927      1.0451979208817199
   262   1      25.082157060732079      19.377343302130996      1.1226744584744901
   263   1      24.710526472552729      21.267635940265471       2.371725752621344
   264   1      21.127215350431328      21.000717732271504      2.6107536640646218
   265   1       23.00338953959826      21.143542157624037      52.851981559941642
   266   1      24.809440085102363      23.562415953406219      1.2524645849959719
   267   1       24.83268921479721      25.425417277905289       2.775326314337804
   268   1      22.729645794824975      25.248082455854345      3.8020876467800679
   269   1      22.924183012649497      24.828902141128228      52.726882531157436
   270   1      23.139326180099825      26.835764695756033      53.962135680453272
   271   1      25.061328142974514      27.178817582576393      1.1427744362683505
   272   1      25.278393522706033      28.661176642804698      2.7985602299362777
   273   1      23.130385788635774      30.428411738028142     0.18468660098963019
   274   1      25.109931372316673      30.708506740802942      1.4992147697345346
   275   1      24.926176814034161      32.655823726435024      2.6723444722202205
   276   1      22.850163625837077      32.646378208114662      4.0854910973529508
   277   1      22.807134168817811      34.162200818473274     0.12324220657482082
   278   1      24.874453330178337      34.484297898994647       1.303290965761233
   279   1      25.038486062081521      36.556586674474119      2.5825884758096187
   280   1      23.155043865264286      36.314107748343105      3.8099811798715564
   281   1      26.566933972490705      0.3575223197976623      54.175710696997221
   282   1      28.719246918083201     0.23743969799335601      1.2319674929755684
   283   1      28.846440918786019      1.8028688875599796      3.0118875291972689
   284   1      27.063802722074318      2.4134330798727137      4.4189886427215468
   285   1      26.860154623159548      3.9112145517387793     0.20296039523806267
   286   1      28.535608738113247      3.8792954671383817      1.5445837989309685
   287   1      29.007725815608975      5.9020470019409297      2.6052860540527139
   288   1      27.056593721778363       6.162392459859924      4.4063538942419855
   289   1      26.854425961552938      7.5431596263083023    0.035479699061897886
   290   1      28.680937963751294      7.7920151826617596       1.394725033292149
   291   1      28.791995067641913      9.7169399873618882      2.8889998445670937
   292   1      25.007762553566764       9.304696827761779      2.8698299450743217
   293   1      27.051711230504385      11.490621551527871     0.30324539842152914
   294   1      29.117136922791367      11.524017023316452      1.5087980423040084
   295   1      28.900078363825205      13.452258093525685      2.9434504018108343
   296   1      26.814203301204483      13.649770047269381      4.1258880622702891
   297   1       26.88318916812252      15.108078167210863    0.020624944333405868
   298   1      28.880484370601298      15.167538466959813      1.2072933461865196
   299   1      28.819260532459751      17.102398091106203      2.6066159792872226
   300   1       26.94335597403456      17.232444429705154      4.0201954638794533
   301   1      27.168691616893373      19.267957684239903      53.921882021474154
   302   1      28.544420825239008      19.303487880915885      1.5139953130439947
   303   1      28.094782661215675      21.285666417273617      2.7284882596431306
   304   1      26.143936516599478      20.846332435345705      3.9962549808183643
   305   1      28.737275041905317       22.67840754493983      1.0972024185705327
   306   1      30.818200708561328      23.148294088410431     0.17517963855273119
   307   1      28.514308624428526      24.524891140940092      2.2176254362189742
   308   1      26.790551949391297       24.78133090646233      3.9029008655174953
   309   1      27.030910370091188      26.766218653872858    0.017596948486436767
   310   1      28.906287266208064      26.818424358565498      1.3992692463263072
   311   1      28.756671851041482      28.840709833628061      2.8029364787160134
   312   1      27.056464469674669      28.710997204905226      4.1845454987793449
   313   1      27.056967502475167      30.737438914557757     0.21070971262902286
   314   1      28.785609366026033      30.737611896337725      1.7543367540731449
   315   1      28.823526365297177      32.884577802219333      2.8553837197673038
   316   1      26.878780254496629      32.537513423651781      4.1383284391771893
   317   1       26.76805224870596      34.693921502548264      54.076633303711787
   318   1      28.495230514019514      34.516308660375458      1.4736055470539007
   319   1      28.710192958798988      36.758523065316645      2.5306367084499577
   320   1      26.834390123939777      36.526870644777588      4.1148402977971958
   321   1      30.631856868737479     0.13468342462196525    0.036259435451358943
   322   1      32.454151701316022     0.23687678005889029      1.2721707845333317
   323   1      32.715392979577672      1.9558952238734046      2.9990073039589431
   324   1      30.887148937119616      1.9213346677597569      4.3668659671476693
   325   1      30.270789488285718      3.2405609981128674    0.063360990701892078
   326   1      32.181157204081629      3.7992078744492295      1.3800421783103256
   327   1      32.366938480051125      7.3788943760425489       1.456755164187155
   328   1      30.757024119608616      5.8984131691451429      4.2888391582174421
   329   1      30.617569372022601      7.5020941158381369      0.1723386887759828
   330   1      34.091952461771335      7.5838861109862394     0.15525623741089023
   331   1      32.850631722826975      9.4061614728437295      2.8012473905656861
   332   1      30.756082420300608       9.620693539764158      3.9182939364067684
   333   1      30.864654922446089      11.479818138074428    0.047966509120203692
   334   1      32.928750862112018       11.28282001822928      1.2963531180639394
   335   1       32.80046708059664       13.48706869988483      2.1234945031968571
   336   1      30.999552386512097      13.450424808862333      3.6716189904427456
   337   1      30.763939175352736      15.255329614255885      54.056617994569265
   338   1      32.597458573598324       15.61625944295769      0.9379355433340153
   339   1      30.747093102363603      16.995811716166447       3.997228922449914
   340   1      32.420778132321992      19.366354068551097      1.1111501210472281
   341   1      32.751809654341109      17.330878259992708      2.3559721866592236
   342   1      32.227851774157656       21.19802932048815      3.1611192798040317
   343   1       29.97987428924317      21.075962562200065      3.8068467116968674
   344   1      30.947578964432537      21.108442641721382      52.994751905445909
   345   1      32.386118478315723      23.236679013939256      1.8622607467025754
   346   1      32.778418867235033      26.819762006004275      1.5539555851142399
   347   1      30.681129427496824      24.696538010916598      3.4929539061292743
   348   1      30.930691105554207      26.755066974775559     0.20662341050433489
   349   1      34.610748756384361      26.697623069289364      54.214409213980971
   350   1      32.610484622417118      28.743375930724905      2.8322697323646455
   351   1      30.647049552131417      28.819300253945809      4.1059884583765092
   352   1      30.574857368321481      30.696659638138403     0.21177019297648497
   353   1      32.447314068379477      30.424540122503721      1.3112348139871164
   354   1      32.407167113971646      32.492542187029493      2.5730408242560632
   355   1       30.74486476926625      32.698816619342793      4.1477943523532188
   356   1      30.615963976910471      34.563633076839849     0.14040985107210419
   357   1      32.534823808723935      34.510990375101557      1.5072128505860314
   358   1      32.391053423231611      36.586913041843104      2.6474069277444969
   359   1      30.556923108866886      36.382341625486291      4.0462396589993919