dump/Mg_500_20/steps_1 (written by ASE) 

3980 	 atoms 
1  atom types
0.0      32.100000000000001  xlo xhi
0.0      55.598830921999998  ylo yhi
0.0      52.130399999999995  zlo zhi


Atoms 

     1   1      32.015733642514881      55.592194556063944      52.012818935537872
     2   1       1.473421874031059      3.0224275604443949      52.102477787325739
     3   1       1.695957882122286     0.85218392558512501      2.6955263189083438
     4   1     0.16516782131072916      3.7347151074452953      2.6138266881126135
     5   1     0.22342288496273932       5.557942998194946      52.076602276739436
     6   1      1.4294097063182023      8.3963689059251614      52.053612834703401
     7   1      1.5768909704373897      6.7732591297667231      2.5920349162972656
     8   1      31.938471600215898      9.3304761359718587      2.6830296520594783
     9   1    0.084254732158426091      11.092002301446795      52.103253312203719
    10   1      1.6534566596812663      13.926408346229408      51.874489008998701
    11   1      1.4410401946205409      12.115614750659281      2.5000505456382416
    12   1      32.021197814675034      14.672051962791526      2.4436394997353368
    13   1      32.043627541997736      16.730489647493567      52.013555201516319
    14   1        1.52630334362498      19.281646363824407      51.936746867868166
    15   1      1.4402422268129063       17.63157954519184      2.5030069707712066
    16   1    0.093453561414220523      20.415070317695591      2.4856591119131521
    17   1    0.056016983465808523      22.130124978268544      51.842327498727585
    18   1      1.5318850384685143      24.961912257291328    0.037781695580425566
    19   1      1.7452961190174539      23.197448430021186      2.6031319455372941
    20   1     0.11898805248975076      25.863542237762683      2.5138935156245736
    21   1     0.10686910821116451      27.712271763682825    0.040977865810515678
    22   1       1.768144862056108      30.606344616349066      52.023928984373569
    23   1      1.6438026520534346      28.671883490679864      2.7103027591067161
    24   1     0.37643328088461309      31.455132221188538      2.5235807529290089
    25   1    0.051747157372053321      33.225438950739111    0.027490403974214778
    26   1      1.7605799589878541      35.942586104141377     0.15212230052471981
    27   1      1.7589799376105715      34.072561181415743      2.7816439674553548
    28   1     0.49802590734009633      36.818107534755697      2.5923311751938654
    29   1     0.03017164614213029      38.887212709185292     0.10222907602530737
    30   1      1.3247660590941275      41.652198377246656      52.127755551736819
    31   1      1.8042274664883882      39.902811590521473      2.7076306564447661
    32   1    0.047592652228231974      42.457790207066417      2.6597146558676084
    33   1    0.030005434293323589      44.511475731986856     0.29103122955969607
    34   1      1.6929967644616366      47.204709899482602    0.023125769801603736
    35   1      2.0132348002876501      45.520213220710751      2.5968032639787957
    36   1     0.25322605276273036      48.093035728052136      2.5795532330165525
    37   1    0.074155006967857331      50.220767033900884      52.095501960186382
    38   1      1.7437743607436054      52.892667438099529     0.24918553387090675
    39   1      1.5257006432234721       50.80389424368628      3.0008433745396865
    40   1      32.057159750461963      53.532506121418095        2.57214757199224
    41   1       3.162670295101353      55.567700687031554    0.020960090798672278
    42   1      4.3924605223579851      2.8191357945851614    0.056709765819086301
    43   1      4.7892906872387311      1.0464636311327764      2.6274528293923574
    44   1      3.3576722009731022      3.9708936792268523      2.8609292455572546
    45   1      3.1769024314941272      5.7263042430962141       52.06824967271082
    46   1      4.7046529685236695      8.2702895007423418    0.065467813556732091
    47   1      4.7213704949811497       6.619082019019384      2.7360474773190693
    48   1      3.0387124156078245      9.2262043411162491      2.6332033781570727
    49   1      3.3178546707820504       10.90421346366692      52.049687836483763
    50   1      4.9305567011243516      13.714591055971791       51.98862080688874
    51   1      4.7109914713011873      11.708770627201307      2.3526750340208151
    52   1      3.2682528697416622       14.64013662839403      2.4507397420334471
    53   1      3.3283699530431941      16.666391170691416       52.08353733329659
    54   1      4.9334127088334272      19.566502199321636      52.113826841235159
    55   1        4.58980010561576      17.534069952939788      2.6124618581478134
    56   1      3.3738704318988884      20.415694055148823      2.3937054520349261
    57   1      3.4844871126570358      22.262228297739153      51.983010931599374
    58   1      4.8355866197571142      25.067743241579542      52.100960093223271
    59   1      4.9164940114021309      23.122911461283035      2.5007015952534668
    60   1      3.2726710945914439      26.071693332531183      2.3706830993959707
    61   1      3.2592733866772146      27.988859764458518      51.980340491672763
    62   1      5.2831514918028928      30.584285444350918    0.046039075758007766
    63   1      4.7354663958602492      28.773801184939803      2.6644170565702545
    64   1      3.5313030537092902      31.424870997120365      2.5818769929764862
    65   1      3.1137602954966304      33.238701406341725     0.18211214280165897
    66   1      4.7641237458266863      35.997057398675146      52.130260841324656
    67   1        4.89245962149303      34.227663614320846      2.6704616201055975
    68   1       3.772479949680017      37.046877712489113      2.7240931678040665
    69   1      3.0390543680217932      38.782081446109956    0.099102018814918369
    70   1       4.925060389615199      41.695452495934852      52.124634807456438
    71   1      5.0417236960175433      39.993081181246254      2.5045673150314656
    72   1      3.4082786136337626      42.774323575981839      2.4124239097580586
    73   1      3.1546561819462857      44.595330308803632      52.115350448318033
    74   1      4.8608199771805296      47.194347133004491    0.091750841364799787
    75   1      4.9940368691184478      45.417789556113711      2.6799000415710648
    76   1      3.3687099708501989      48.464251513692808      2.6897585356636093
    77   1      3.0817940635084096      49.939134510216995      52.120691109804909
    78   1      5.1096406564239478      52.665825225908996    0.015883571406285695
    79   1      5.1343594634527134        51.1119256465239      2.4731597191994839
    80   1       3.195016478779511      53.610021359369696      2.4733226671677082
    81   1      6.3528166080061554      55.297635634924092     0.33596473212612293
    82   1      8.1455399584246617      2.8570864053933311     0.17122656598938535
    83   1      8.0399926288174868     0.90051480530699268      2.6360784723044515
    84   1      6.4718249688117879      3.6860552567756542      2.6463064741435409
    85   1      6.3700003612279099      5.5116243120039856     0.15350959783794868
    86   1      8.2502067249986144      8.2849675488908918     0.14141081934300911
    87   1      8.1686995326724805      6.3816075460595458      2.5266742932128725
    88   1      6.2902050830940048      9.1489341248551899      2.5982955335314437
    89   1      6.5645116763682694      10.856770065803421    0.089760891240267857
    90   1       8.026452832715707      13.986440689072051      52.114048529340337
    91   1      7.7502423902666484      12.141874760249769      2.6311147918040501
    92   1      6.1075009656791268      14.724521567627313      2.6487822892920883
    93   1      6.4292373143891108        16.5875743270845    0.012079445812218455
    94   1      8.2539057363171491       19.08017825294294      52.045436432203672
    95   1      7.8314959824434975       17.70960943121208      2.6786870115743437
    96   1      6.4402006133457279      20.438610483768908      2.9240040223247776
    97   1      6.5193895278448251      22.021990891903251      0.0749995251142416
    98   1      8.0573104377830198      25.078386811047924     0.19552320572515874
    99   1      8.0114002794666153      22.983429548668994      2.6836584618402299
   100   1      6.4449553820611651      26.144155875561978      2.5758353031257228
   101   1      6.4190011886139251      27.635769512437513    0.060254663395508945
   102   1       8.174430108361781      30.333314777987695      52.108318265377804
   103   1       8.084927946704294      28.656908426149023      2.6372223664346555
   104   1      6.6269109561353732       31.47551566397113      2.5923990596358331
   105   1      6.5013534141815663      33.419691165092104     0.25963703889222761
   106   1      8.0498772935556602       35.89344748241956      52.079771664308552
   107   1      8.1233963829363809      34.004904923112967      2.7171474649402509
   108   1      6.9161937774390907      37.107745527132309      2.3679315568600474
   109   1      6.3705230582652916      38.656473357472287      51.905062710980168
   110   1      8.0828636449823836      41.805057317873725    0.090478232391581301
   111   1      8.0934444846218145      39.897227982530218      2.6654532108319011
   112   1      6.4924800121855908      42.695034462474062      2.7820736851001038
   113   1      6.5453356091064459      44.414038696775549     0.30747083852694479
   114   1      8.2812638711608635      47.210836509066205     0.10749217390086248
   115   1      8.3280399810814956      45.431222488994372      2.7779656412257596
   116   1      6.5581562550880514      48.237565671219301      2.7083078845961204
   117   1      6.6725383174935562       49.76412533749879      52.112203976034159
   118   1      8.2091279210602277      52.987218571798365      51.922874617441913
   119   1      8.2756485504777917      51.085152330567425      2.7868606600697472
   120   1      6.4851100546181781      53.526528855661638      2.8027833283469485
   121   1      9.5704856857098939      55.571255908718527    0.040312329253443122
   122   1      11.282890572743753      2.7567697780335809    0.082130881695722829
   123   1       11.25709844364366      1.0134960053960063      2.6439383208050904
   124   1      9.5521057870544013      3.5477659537851278      2.5408035751564721
   125   1      9.5423183114649124      5.4395866061142168     0.09782623429471507
   126   1      11.317920601714549      8.1815134768616424    0.095198850129436907
   127   1      11.296173170019916      6.3610598101972782      2.6234529370796236
   128   1      9.6388955442352344      9.2731247043244558      2.5580804572756874
   129   1      9.5461261587480042      11.141122752207741     0.11052779146882116
   130   1       11.31480508399704      13.829904598395379      52.103159389764642
   131   1      11.190341154709161      11.893803940469814      2.6622358074435546
   132   1      9.5256495007638335       14.61701262470733      2.5931480167225174
   133   1      9.6587060174368666      16.633696955464519      51.929706866721872
   134   1      11.342622530106119      19.683012584843734    0.066009899200201158
   135   1      11.061595823316292      17.294651208937566       2.488504676913343
   136   1      9.7628364774691256      20.528735178532319      2.6818635174902954
   137   1      9.7644756738034761      22.176550778077392     0.17302901635005499
   138   1      11.300161607752479      25.059388408818386       0.160392912912592
   139   1      11.320061816960118      23.241264017192439      2.8896812751675385
   140   1      9.6922675269644785      25.890964087489394      2.6136034075075298
   141   1      9.9642441288456478       27.77820569596857    0.039742199410804653
   142   1      11.387143167254765      30.482059000873992     0.19586394002952609
   143   1      11.843995267072852      28.628054010072812      2.7337831582176109
   144   1      9.6683583325155862      31.294744760902866      2.7425019183090082
   145   1      9.5616541852663932      33.044859194347922   0.0099117147091401289
   146   1      11.278441456769613      36.010405090979432      51.993542895871471
   147   1      11.145443668870593      34.262250867700558      2.6768662225125173
   148   1      9.9667334295438152      37.317395229064523      2.2341766554837807
   149   1      9.3190020857842466      38.968012519326734      52.053094439960411
   150   1      11.251315515218122      41.574950334741757     0.19415287878753054
   151   1      11.265349606346994      39.887498246913459      2.5098583361158702
   152   1      9.5142923251707057      42.414464719816237       2.685213707195599
   153   1      9.8080503422367027      44.402703654405869     0.23764874124543861
   154   1      11.359559482788802      47.246653907684582     0.35078177055994503
   155   1      11.337967842417322      45.303361570336065      2.7161067735030531
   156   1      9.8352846703611618      48.298557444161482      3.0159455622739499
   157   1      9.7088889960855749      50.035590547622363      52.103194478448174
   158   1      11.296772148138091      52.861370220619115      52.012535776947523
   159   1      11.568322409656002      51.150908574041814      2.4876787296644109
   160   1      9.5289373459504763      53.834365692928493      2.3931222621361399
   161   1      13.068983345329068      55.504387214485341     0.10734650677597561
   162   1      14.700863852794406      2.9220104690127928      52.090956006991391
   163   1      14.456146888966773     0.71441024043416879      2.6802894285280949
   164   1      13.082515219186439      3.6210234126185208      2.5529636670121616
   165   1      12.910022269038837      5.7520491699959919      52.095422020776162
   166   1        14.5361046914882      8.5041507882933072     0.32648321755323134
   167   1      14.857928831510728      6.4686797221851231      2.4895666374354888
   168   1      12.827549974008557      9.1729785251415805      2.6083827716339725
   169   1      12.782072278474484      11.035360221909821      52.098154172252947
   170   1      14.569981867745463       13.78344147270357      51.888378743181185
   171   1      14.154157283950715      12.006454497593174      2.5938982291689752
   172   1      12.802982715998544      14.941430889820486      2.4478370616543774
   173   1      12.853462129107568      16.827148125718157       52.02077634826847
   174   1        14.6614944834553       19.38724368326708      52.000535249467816
   175   1      14.348385659443343      17.512917535618691      2.4762971078335125
   176   1      12.918218579067872      20.172269361722524       2.498979446023466
   177   1      13.180385374943866      22.277216937090511     0.00974348851075919
   178   1      14.570778545224112      25.001665798876473   0.0076290128604788281
   179   1      14.413860886315957      23.118511430653339      2.7698724155177792
   180   1      13.012621815025971      26.023022135294291       2.594349451828315
   181   1      13.096643292815179      27.608387682567542    0.067335173283536054
   182   1       14.56177302278806       30.46098139180415    0.022198428598287967
   183   1      14.721939315633005      28.967066587690635      2.8056245494479222
   184   1      12.832145262505366      31.639952212272942      2.9064011821471092
   185   1      12.734904404615813      33.084485117429054      52.070863938988779
   186   1      14.323357736778226      35.857136537781358       52.06674555788279
   187   1      14.448653943360137      34.133447132425772      2.4362753969689614
   188   1        12.9790024920464      37.046106072648186      2.5434167358620332
   189   1      12.611765147324366      38.852780469281932      51.970464374493993
   190   1      14.341876754362522       41.51772104315512      52.023455333021666
   191   1      14.400537056471153      39.973701209368869      2.7329772730603552
   192   1      12.760864989887855      42.633858734546919      2.6764031911445345
   193   1      12.911301197738094      44.481337302611358      51.989714571433915
   194   1      14.516239086663468      47.386494719175069     0.14519126542150132
   195   1      14.400838770457092      45.547087095621492      2.9043769091576888
   196   1      12.888777229722356      48.302469615012804      2.8305472051933371
   197   1      12.988858184603894      50.052711297425695      52.104965502069376
   198   1      14.533380143909945      52.822065025945086     0.08881610955631998
   199   1      14.501908879417744      50.978106222451878      2.6573710886276061
   200   1        13.0950218238213      53.732492374618523      2.7418862613762482
   201   1      16.138172315955565     0.33972619102763235      0.1327919102015922
   202   1      17.896149666034525      2.8351522057932619      52.079610769738373
   203   1      18.017123124156161     0.92699328338927778      2.9100910956935087
   204   1      16.234727723985671      3.5606577304787304       2.490436050411216
   205   1      16.137050796411842      5.6609950423318693    0.011703868885376801
   206   1      17.788779019016655      8.0954482771180931     0.09027536026074616
   207   1      17.756896189562681      6.3649300046469914      2.6770569098897994
   208   1      15.896801207616027      9.2252752301999372      2.7228293540952384
   209   1      16.110920382331432       10.92171161344579   0.0076959268018328454
   210   1       17.53543156562975      13.896897810857331      51.972927447352667
   211   1      17.524214920733755      12.251754450312992      2.5129119888987108
   212   1      15.825503843940046      14.894148679486685      2.4831678129253341
   213   1      16.042222708327213       16.44553253503722      51.873015573582272
   214   1      17.622475604373328      19.445213381010078      52.039835731755829
   215   1      17.968350768541711      17.655564246864852      2.3494833012403817
   216   1      16.154607801307645      20.294511410531374      2.6437473450838378
   217   1      16.034354824847252      22.198875335248285      52.086096160493895
   218   1      17.615948271452517      25.147054214374663    0.047898184235338079
   219   1      17.323238121434333      23.133957754348664      2.6462690577846222
   220   1       16.02627137399497      25.961635599303122      2.6944631273785782
   221   1       16.02767041525204      27.859377397017806     0.12478489634074752
   222   1      17.808750579350455      30.661412463519479     0.16960648723427862
   223   1      17.866727902835539      28.829133514639608      2.5785964486838537
   224   1      16.142254149080944      31.608929835730894      2.6251313995050891
   225   1      15.929442008207959      33.109801924072414      52.089658944852033
   226   1      17.429868858000692      35.845374739056737      52.043639441902378
   227   1      17.527798047011775      34.331797332476086      2.7654396175497991
   228   1      15.978800489154009      36.872991720696675      2.6138921331490934
   229   1      15.737469520512995      38.808259445706881     0.20464864821992607
   230   1      17.271831147294506      41.327093302051225      52.083344704719543
   231   1      17.378066388333611      39.724651315920916      2.6907243035705886
   232   1       15.85155242555957      42.613943001136498      2.5176385324657029
   233   1      16.073569449131121      44.394477089648213       52.08540152360149
   234   1      17.597310073193213      47.110098380137678     0.22896587366906193
   235   1      17.589888737148552      45.198664723954977      2.6269157923315305
   236   1      16.103576657372251      47.972133312143612      2.7996144990668252
   237   1      16.157832471081615      50.090526894316575    0.095213956762194643
   238   1      17.527237643127933      53.052784584936433      52.099687684629338
   239   1      17.956840248731847      51.094309367829517      2.9218404017337591
   240   1      16.131255525436913      53.713470780532617      2.9037004102967567
   241   1       19.34071714700811      55.526578476404737      52.071221944425844
   242   1      21.092847488017249      2.6293338121753047      52.071720679112936
   243   1      21.154430967213969     0.76057029217101746      2.5616507601584493
   244   1      19.316554892100967      3.6965620481317814       2.606834657986838
   245   1      19.394617896464371      5.4643964720111535      52.053458910983302
   246   1      20.789673475014865      8.1730662089054178        52.0800511792145
   247   1      20.823367171371515      6.4875547747508531      2.6712306042284677
   248   1      19.211300221937709      9.1604802250005868      2.6068408187677425
   249   1       19.09093519405447      10.980438443263656      52.090195905164158
   250   1      20.752767827480639      13.988878966823428      51.992963497189415
   251   1       20.72088694697165      11.855694706357538      2.6486093269523465
   252   1      19.458657265250967      14.809911231570647       2.456646428027736
   253   1      19.353010044328467      16.900889985115445      51.965140205771732
   254   1       20.81568446996824      19.475899827311107       51.90506918758048
   255   1      21.034461347726086      17.502484084931329        2.32908174804852
   256   1      19.323806419503573      20.401960549229109      2.4711948388146499
   257   1      19.109618109067718      22.306160213621055      52.047498584560017
   258   1       20.98421969743395       24.92557565899433        51.8360179970419
   259   1      20.865894692386352      23.243459123140081      2.4517350175031507
   260   1      19.343031170403886      26.106666057068697      2.4766886061205367
   261   1      19.298726481893137      27.986803386493239      52.010453950557526
   262   1      20.931706226424339      30.777212212312161      51.909921065592641
   263   1      21.017966641270188      29.086500613600087      2.6349210775746488
   264   1      19.401639602617806      31.536066165555006      2.6636956910906302
   265   1      19.356237200289733      33.495610384370373       52.09573330194123
   266   1      21.094387733042499      36.227834973573337      52.067929419237849
   267   1      20.966284053606081      34.387209970215949      2.4920972684771239
   268   1      19.280498580367066      36.933481798254164      2.6384889518797197
   269   1        18.8611840396137      38.827578050985665    0.085076215278835188
   270   1      20.703223960696576      41.607002784304832    0.035405810957513668
   271   1        20.9368832554924      39.466882300062338      2.4777374960313687
   272   1      18.832544900814529      42.467516415664903      2.3652122113923326
   273   1      19.228357754349382      44.417815923314841     0.02191689442225726
   274   1      20.740323435535082      47.298614376218545      51.947253098897697
   275   1      20.644640102214314      45.277055640142933      2.7872608348888499
   276   1      19.388320210332083      48.209586178523907      2.6675645487702329
   277   1      19.294520480263106      50.382029264887237     0.12536909260756582
   278   1      21.092272581239651      52.858283792135047      52.077172742047956
   279   1      21.255817771596917      50.959140121278104      2.6982226092511383
   280   1      19.553296446092535      53.727836797277867      2.5864103870087289
   281   1      22.828954711518072      55.573403584232402      52.056569062930024
   282   1      24.284813162370732       2.967248322636669      52.029205101776625
   283   1      24.223526861163382      1.0034691506072131      2.6672053959164317
   284   1      22.850335388774884      3.5825771300490223      2.4561539221849027
   285   1      22.516529846019598      5.4937009726332038       52.01804996843002
   286   1      24.147669184493903      8.3162918022621337      51.909789136585296
   287   1      24.023461260844588       6.552445913730514      2.3437978800985015
   288   1      22.340004690350856      9.3347805920589124      2.4627915858316003
   289   1      22.528048672868326      10.874444339248758      52.092902962510564
   290   1      24.382487135381766      13.906386665209247      51.916909612886244
   291   1      24.032022551524189      12.057491861603502      2.6209129093423602
   292   1      22.589418108959478      14.515200657288634      2.2156217918817931
   293   1      22.575174779138464      16.527249450825114      51.865720162787518
   294   1      23.939997171512562      19.272411600572596      51.980547006513092
   295   1      23.936348971157589      17.352417810767967      2.4687527875515567
   296   1      22.495812815573764      20.316299650603959      2.5109906511434583
   297   1      22.464383634663484      22.250620838757193      52.055318809948517
   298   1      24.291886605239604       24.83514769857705    0.086849283648314513
   299   1      23.910893435970337      23.213293759500505      2.6544192264150834
   300   1       22.57787980852105      26.030216043495134      2.2155899269250465
   301   1      22.685292709070914      28.007821937328195     0.18062925017962958
   302   1      24.039989111378748      30.681848743051848      52.110191717839932
   303   1      24.152658398251102      28.767055816164355      2.6358066971668013
   304   1      22.514573031456106       31.64196604963707      2.5014922686174379
   305   1      22.731210542384815      33.617912517623914      51.924451423097608
   306   1       24.26588803981782      36.314260704680585      0.0519003318989203
   307   1      24.216469956235954      34.295926833212185      2.5764708175837656
   308   1      22.787366169561402      37.202496603016279      2.5806949170983842
   309   1      22.671216178753149      38.943161750909915      52.019481455874036
   310   1      24.043448463000676      41.611102503686354      52.119169473261138
   311   1      24.432205017352306      39.551476792006163      2.7070795712905511
   312   1      22.495230642007449      42.432804238146915       2.558226096326552
   313   1      22.456352339121381      44.354118466784826     0.05571753293443301
   314   1      24.080218333966801        47.0939369739583     0.26949763473154914
   315   1      23.985834827205991      45.182102350288943      2.6114360267459578
   316   1      22.555991718318207      49.820857844208845      51.906405932930056
   317   1      24.355870273484388      52.845446453055224     0.01026953153703015
   318   1      24.261142167229867      51.011875064891562      2.5159400241102414
   319   1      22.745169509735895      53.720709252178978       2.386692913525287
   320   1      25.802549033128049      55.558368922588492    0.027925017581337298
   321   1      27.401717628589996      2.5637705436411085    0.025682308032716716
   322   1      27.450543268728584     0.60765614220426267      2.5692010845176556
   323   1      25.888285991667868      3.7872697567402778      2.4675603776895465
   324   1      25.769131794010207      5.6102043744382577   0.0091933869666591065
   325   1      27.294836789456433      8.4633672690308988         51.983869063453
   326   1      27.294990477635096        6.49506428352072      2.6594090455126622
   327   1      25.677741281515171      9.1622957223647212      2.7087196867598804
   328   1      25.891236953709026      11.095737783148964     0.16511545845919059
   329   1      27.285615014895448      13.736413859530263      52.034941914563277
   330   1      27.621542669343153      12.148071754680601      2.6052115510422431
   331   1      25.694636031118062      14.769314190863039      2.3414152795675016
   332   1       25.63286391395636      16.559348996221125      51.870936465524458
   333   1      27.089187109730194      19.333963725001567      51.986802240638099
   334   1      27.069593559826888      17.662564190412308      2.5227234698211434
   335   1      25.643764454306833      20.303008042742782      2.4653552378431538
   336   1      25.538621904404106      22.164537751568449      51.862248391458692
   337   1      27.418268946026906      24.828395687379146    0.031714432352568649
   338   1      27.238348499841926      23.037701820525079      2.4935561818428718
   339   1      25.888314048493687      26.021248882930177      2.6836308891388327
   340   1      25.935561931872925      27.530454860675359     0.30136831476662246
   341   1       27.46403772662168      30.848219289318536    0.072804480281795231
   342   1      27.486693817964163      28.715759219278315      2.5663238345853081
   343   1      25.966285189204854      31.465345324674256      2.5301078777858725
   344   1      25.678721064927529      33.431920254002385       52.12889173632999
   345   1      27.474390832285447       36.03045063378444      52.007702753553708
   346   1      27.436278670791374      34.121648292724466      2.7605222753821375
   347   1      26.077501402756411      36.837205986086644      2.3342650610424731
   348   1      25.847370590960214      39.131317216935557    0.054278378162223938
   349   1      27.305462205693015       41.88802499292234     0.27851652498902835
   350   1       27.53199686938687      39.641996940239174      2.7365541285098192
   351   1       25.92319257047161      42.554397127673731      2.6669958492329098
   352   1      25.787727073308179       44.47824274223322    0.037754672287092596
   353   1      27.264642637653303      47.289449765225484      51.909043443179172
   354   1      27.169188273988265      45.645129688804587      2.4369106936977691
   355   1      25.651227461389258      48.239595647016394      2.9115166272400774
   356   1      25.856209399054233      49.927222255908951      52.080885253305929
   357   1      27.306039259826964      52.886391456573563      51.949634878143556
   358   1      27.475367398301664      50.823312333816347      2.6093736377754597
   359   1       25.71889131595416      53.898697004660498      2.5581815189585906