dump/Mg_500_20/steps_91 (written by ASE) 

3980 	 atoms 
1  atom types
0.0      32.100000000000001  xlo xhi
0.0      55.598830921999998  ylo yhi
0.0      52.130399999999995  zlo zhi


Atoms 

     1   1      31.929937152479628      0.2368824395956001    0.088618417743265093
     2   1       1.596597364587967      2.7507512167264512     0.18443752231319452
     3   1      1.5252023596858084     0.90911011697265121      2.5905573755782116
     4   1     0.11865240399148486      3.7360296353686584      2.8805599579656209
     5   1     0.13598747761859656      5.6016564611659421     0.10161741881978559
     6   1      1.5893344536224501      8.3657704650121492     0.28836411497634079
     7   1      1.3957680954122909      6.4346500030933447      2.7216073140088914
     8   1      31.806268556455159      9.4549047400460378      2.5681832491803007
     9   1    0.064880918860960077      11.077167812907767      51.755791781414565
    10   1      1.5506166915539437       14.08075829420304     0.16968680467479144
    11   1       1.731797298205334      12.159263539144838      2.5385694477419993
    12   1    0.013437772830344502      14.805320795156609      2.6191000564988283
    13   1      32.069054884152784      16.637523320364259    0.030571512261119371
    14   1      1.7182471813255364      19.466054425655823     0.27956686182911955
    15   1       1.450753579551568      17.322801794100883      2.7547207315056186
    16   1   0.0065359377281893564      20.497005616997694      2.7017839034429381
    17   1      31.980355870119258      22.653834453137129     0.17755815875338626
    18   1      1.5670913776128752       25.13439080008753       51.83609863383996
    19   1       1.856231282086289      23.176671800756399      2.8256491036692255
    20   1     0.19454693372799919       25.87126162622091      2.6222069159590413
    21   1      31.897314875183643      27.718546694031552      51.961859784825201
    22   1      1.4879762182402629      30.652538177923113     0.26168039215301636
    23   1      1.5297939187793881      28.729395935862808      2.6643543560494041
    24   1      32.023349074547021      31.631079951271808      2.8849529601102248
    25   1    0.099080361481119261      33.679634901501672    0.046305276374051386
    26   1      1.7183241225075847      36.527712533965413       52.11503534269427
    27   1      1.6352619700091198      34.165870861448596      2.5370129386348781
    28   1    0.072543502644989696      37.098112252096733      2.3625065441129909
    29   1      32.072114217992507      39.039200843653298      51.975785175273032
    30   1      1.7054710497014491       41.73298423089544      51.988473923388867
    31   1      1.4302206496326482      39.764730161030386      2.6618400482110949
    32   1       32.01989313410887      42.788882288058019       2.554086989534166
    33   1     0.15866208656405578      44.633478579923931      52.064011169033314
    34   1      1.7400985186104259      47.330058706453862      51.924287324536024
    35   1      1.9162479727178401      45.488842399190517      2.5335414489826653
    36   1     0.12330992856258581      48.239525077587551      2.5230189430896353
    37   1  0.00024275669347015172      50.263802298942366    0.028741575453916455
    38   1      1.5919425291371021      53.161071684492796     0.11024206862151724
    39   1      1.4931915846452541      51.166402596699797      2.6518505859989756
    40   1    0.032161647995784637      53.817261341572795      2.7406999430079564
    41   1      3.2533501923183392    0.093031880099877701      51.989595754514781
    42   1      4.6089036994493293      2.9474166009272391      51.895753076803736
    43   1      4.6360807519809217      1.0409118545957439      2.3303799014121225
    44   1      3.4394952620713184      3.8298124198512058      2.4755353597970933
    45   1      3.1041212165538266      5.7779487147244879     0.23925364758911602
    46   1      4.6843963804293018      8.3331051989104807     0.11538127868484296
    47   1      4.7648417340274554      6.4768324007462743      2.5912890922168534
    48   1      3.2468661695506853      9.3541130239431389       2.677831415989572
    49   1       3.089269270892288      11.316627552194793      51.825701444366516
    50   1      4.8101668419895987      14.046227347021061    0.026493950367558219
    51   1      4.6735727253272774      11.994815472234743       2.384960737110597
    52   1      3.3120722798688873      14.695018626756472      2.7077070455906278
    53   1       2.943648630109287      16.778026739868825      51.946007762482175
    54   1       4.820126959154865      19.528625387052351    0.071353558577125983
    55   1      4.7590228065405853      17.799964138795154      2.6864702144403032
    56   1      3.3603209164425243      20.356632726163159      2.4953686679935756
    57   1      2.9857728745859173       22.32659116538661    0.052406301822007964
    58   1      4.6669722392179631      25.035312259546007       52.07278075522639
    59   1      4.9028820117085488      23.032767729247617      2.5804647589447556
    60   1      3.3915193334151534      25.996961084155227      2.5764372325849978
    61   1      3.3026353063919549      28.032171731841718     0.03150096920969854
    62   1      5.0661562970902674      30.683691209912588      52.090609545260676
    63   1      4.8717900090518622      28.841571989889211      2.6430415902892279
    64   1      3.2970836412370264      31.549676333264227      2.4884736686972677
    65   1      3.2159211456633732      33.558953670662163      52.100818006970364
    66   1      4.7280815029295091      36.239086556577362      52.007100068116799
    67   1       4.823775051259263      34.362552585742925       2.392835671335158
    68   1      3.3652019907314146      37.131188873340683      2.7188558501477877
    69   1      3.3922073349129795      38.972595288511755      51.870437188206296
    70   1      4.6725948423418151      41.868455047423829    0.057601726317478397
    71   1      4.8624704269602752      39.887781058203764      2.5632594851380008
    72   1      2.9885952871683594      42.546613451825557      2.5198958641227773
    73   1      3.4057387394131777      44.607475161515147      52.026527108829967
    74   1      4.9513947989067404      47.346725921276551      52.038446596678746
    75   1      4.7767567443163736      45.553026251234854      2.6497484319816271
    76   1      3.3819462959365558       48.33094127183729      2.4123928590309092
    77   1      3.1806428115384784      50.255994961926909      52.028598846028849
    78   1      4.7911795656551748       52.91388273288058      52.078495510108546
    79   1      5.0219709718204131      50.886550604489521      2.4776607372886699
    80   1      3.4259626709128033      53.697125951938283      2.5259568327484514
    81   1      6.2464713674992662     0.10935290628744018    0.099440946188258453
    82   1      7.5979944410534639      2.8046378417934945       52.11090190705869
    83   1      7.9141302517586309      1.2148295739338517      2.4963128447496277
    84   1      6.2228970771036494      3.9002739494270311      2.5956292045524916
    85   1      6.3909743790196174       5.344782993354511      52.040510169629748
    86   1      8.0518729044271868        8.09366706794758     0.11284077683028086
    87   1      8.2864108782514077      6.5647746982167767      2.8231758592286615
    88   1      6.4247744438782872      9.2466894945065441      2.3094588370592897
    89   1      6.2741616348482339       11.15970271764899      52.009637767926804
    90   1      8.0332317213227959      13.916254058352607    0.051233300069797115
    91   1      7.9546488726899138      12.219323940965642      2.2169922554439552
    92   1      6.4928626725672229       14.86073962554581      2.5794285248585336
    93   1      6.1864102265088237      16.744386657037104      51.935087747225623
    94   1      7.9516622607387788      19.741923090561787       52.03877116809862
    95   1      7.9613788955816043      17.817731324767649       2.780294660605009
    96   1      6.6635996828491786      20.651547959663347      2.4388794485938963
    97   1      6.4319632414973622      22.499304023532851      51.973258240528665
    98   1      8.1252263639789444       25.12705491035787     0.17381864111939227
    99   1      8.0581625542839408       23.36821014816308      2.7607143836119015
   100   1      6.3989906919685113      26.091656127338577      2.7649424553427613
   101   1      6.3741421936914415      27.855893852356797      52.105349064381102
   102   1      8.0713526384846173      30.662964185955104       51.92987703087524
   103   1       8.058738818188198      28.877453366712938      2.6893892743011252
   104   1      6.4990670043034404      31.427045839505855      2.4659846396260159
   105   1      6.3698510790560832      33.498506276449667      51.945971017025407
   106   1      7.8718672049158283      36.120607005191651     0.16967823079038846
   107   1      7.9633038449916507      34.134760393030326      2.4990294523868437
   108   1      6.3632218880990488      37.189460251707217      2.5012674358277329
   109   1      6.3968726367448063      39.032558946602329      51.960115462383946
   110   1      7.8805150882396324      41.686358784692189    0.033922886124737782
   111   1      8.0886249845688472      39.889703836884458      2.7169590926948275
   112   1      6.3377228589811541      42.847948794835425      2.3942202554900773
   113   1      6.4734858312054282      44.652534408261374    0.070092592262743031
   114   1      7.9706587568358209      47.249526224983775      51.959659712947172
   115   1      7.8925777593901456      45.440977880393802       2.332594695574929
   116   1      6.6338620722486592       48.14380038939354      2.3918762612013564
   117   1      6.2974738183962273      50.074921987505093       52.11520529176164
   118   1      8.0054681472973801      52.713957499687254      51.990788097255752
   119   1      8.1521366473806207       51.15538250417341      2.5501371079882271
   120   1      6.4776134789180029      53.747037942349742      2.5582055978459395
   121   1      9.6012665129509411      55.389188190583752      52.121167837013459
   122   1      11.000092678370029      2.4817681225827588          52.08145039523
   123   1      11.239342384716741     0.92306399632557179      2.6473988707631939
   124   1      9.2219847345574415      3.7547808618424079      2.6917698784118214
   125   1      9.5626280522069607      5.4399292749558317      52.038399065063771
   126   1      11.240940743615541      8.2798706389490935     0.08573974876010225
   127   1      11.341107276739413      6.4422547826824452      2.5311634681365152
   128   1      9.5898806373637058      9.2266111255595984      2.4295044691780041
   129   1      9.6889505693892328      11.252301849855241      52.075465651807264
   130   1       11.07992306093502      14.282989825462202      0.1317726949641459
   131   1       11.12446457178932      12.281955226765469       2.569581278438692
   132   1      9.6856136155793244      14.948141267643269      2.6961400839057101
   133   1      9.4537313351819741      16.931693635123064    0.083479031934312914
   134   1      11.131832383722884      19.722210100176959    0.096485630444378689
   135   1      10.969715002334041      17.835246108047823      2.6250826451115077
   136   1       9.537174215327493      20.634185182213226      2.6758533441868257
   137   1      9.6234586750780551      22.355251715351567    0.023078430209505327
   138   1      11.220967029750677      25.390669050315395     0.27769730140602339
   139   1      11.147087699324022      23.149626073035748      2.7235303071120467
   140   1      9.7423183421363166      26.088709569887659      2.7726407541001246
   141   1       9.475063141377122      27.779450080684725     0.15528467550017441
   142   1       11.50659648523782      30.828999843145731      52.012225607142128
   143   1      11.359419533487456      28.834170983536559      2.8220354792405411
   144   1      9.9475735990245422      31.407880223537962      2.5630742278643894
   145   1      9.6496482756372668      33.495686600105472     0.10992688765661306
   146   1      11.082377533242424      36.024243640493815       52.10656805255995
   147   1      11.448289599512108        34.3874197398709      2.6147788842659518
   148   1      9.7949718268326809       37.21190945613138      2.7206105728287198
   149   1      9.5685139106500259      38.985889250303615     0.23347035181473091
   150   1      11.177369640903301      41.848675161442912    0.022301553037256245
   151   1      11.261549691920592      40.084273834182895      2.4659167824342818
   152   1      9.5603181168175322      42.639178987472413      2.6968329784871132
   153   1      9.7363328858913132      44.760420103762222      52.099275066001702
   154   1      11.501214282828821      47.436915371710441   0.0055836449730581293
   155   1      11.203697258777391      45.508047345422469      2.7630506197333791
   156   1      9.8300688324093741      48.045025360943349      2.4287595018797488
   157   1      9.7934926405000553      49.786163443015447       52.09076198633818
   158   1      11.165578392282479      52.893304387107307     0.13596149758104664
   159   1      11.483866965867119      50.843133154825281      2.6415452178401284
   160   1      9.6836743395171059      53.961054590916767      2.5464957774872827
   161   1      12.773906177568827      55.410329509902034      51.889334581812875
   162   1      14.405722466378849      2.6670062264231356     0.16581778544362785
   163   1      14.161883820622668     0.66834237834612698      2.5751890364893089
   164   1      12.674447061153815      3.6865511732678566      2.5758384918770392
   165   1      12.659058932626968      5.4422229565313289      52.124412119087559
   166   1      14.456082450321507      8.3753480080745053     0.22254531923211177
   167   1      14.473142000041394      6.3574969538589405      2.6451989760235182
   168   1      12.663713155294015       9.447072377045318      2.6932583685741411
   169   1      12.637750194366062      11.136526785601607     0.13948686527504534
   170   1      14.226717502278623      14.114628636209732      52.069755939806434
   171   1      14.250088959232889      12.068814794706208      2.5221425406189435
   172   1       12.75948064759671      15.164724735367404      2.5882812329517577
   173   1      12.676846688833738      16.857397795541022     0.17091016767161182
   174   1      14.510539706767933      19.770053128400754     0.19112557742985403
   175   1      14.204563681575705      17.674045162177954      2.7130625409797706
   176   1       12.90227144732785      20.566546407269694      2.5779436480011721
   177   1      12.733234194137596      22.612244235094042     0.23979503855316109
   178   1       14.38943997837665      25.327552267915312     0.15052954963377982
   179   1      14.585278778496201      23.207508689537704      2.6179312013513063
   180   1      12.940773770510253      26.031545452500588      2.8924799802342447
   181   1      12.348853300985803      28.126033803874886    0.027631150097093705
   182   1      14.551364119115718      30.602437984488507      52.119400652883641
   183   1      14.470913187767279       28.95136606659096      2.7830046872459082
   184   1       13.06347107343878      31.785402829670719      2.5996622943630809
   185   1      13.041727389346701      33.462418985945568       52.06683435438898
   186   1      14.456913489391953      36.429881807583243      52.066120406413141
   187   1      14.550423753272673      34.167398892553841      2.4904613666179456
   188   1      12.826082213428956      37.457050565366451      2.6684087904786948
   189   1      12.837539367775793      38.967870640903733      51.982527091810503
   190   1      14.531851589310307      41.818165491291303    0.036023016062625528
   191   1      14.443828358297564      39.896921562232322      2.6509010283354657
   192   1      12.776684152601542      42.506456585150531       2.527164452613933
   193   1      12.829229053025252      44.731967409023163      52.105262551486469
   194   1       14.57522580400882      47.461540967218141      52.061810544576495
   195   1      14.482286873136188      45.243109956139278      2.3971721115389948
   196   1      12.771904763924571      47.993433932131019      2.6074425798421563
   197   1      12.919778495243886      50.053415872777343    0.050961347301877395
   198   1      14.448075342337123       52.59230564425431       52.02203547776724
   199   1      14.789775205467407      50.797637335227343      2.9494956451611789
   200   1      12.915852696291131       53.57573089039056      2.3922515482551852
   201   1      16.024381677442278      55.178428607399468      51.926608935642072
   202   1      17.631514904859571      2.3804636999061408     0.12859495750126126
   203   1      17.467620351880235     0.63949143874031544      2.7485682848868742
   204   1      15.787005509468877      3.5871900992565102      2.7625470479433476
   205   1      16.327665755640837      5.3724501652841479    0.041584505761087964
   206   1       17.68685932130845      8.2188503651376958      0.2968304285946099
   207   1      17.587197144229158      6.4344467264990568      2.7918005723876052
   208   1      15.980922838699929       9.224292648602594       2.828085008232871
   209   1      15.914617575951521      11.172304421849667    0.016174949968801217
   210   1      17.624707893723837      13.862578050611374     0.12708775508201942
   211   1      17.546631202343992      12.095850636508093      2.5867853885870353
   212   1      16.090016833498176      15.064222891683405      2.5263111430854206
   213   1      15.876242403213933      16.900545943137548      51.943797727479414
   214   1      17.571630151868639      19.419096954728978    0.027990382188739924
   215   1      17.499861532561876      17.645596391533324      2.6769393803011621
   216   1      16.088474438248209      20.283105440548937      2.8244527539024746
   217   1      15.923831412678101      22.350706559844387     0.16956254173626512
   218   1      17.884676710826859      25.227527208638705   0.0074537860133838015
   219   1      17.628401598858279      23.401138781270596      2.6657949702203187
   220   1      15.922230509155014      26.096455479143913      2.6707223631484474
   221   1      16.067444606989262      27.950485666157345      0.3074886784267617
   222   1      17.655462900072376      30.523057168676164       52.09075809264565
   223   1       17.74819193191804      29.076331287612152      2.6723837166772917
   224   1      16.222435665493396       31.65916669934289      2.7036386391528704
   225   1      16.281262865166866      33.359381412502898       52.07097486897176
   226   1      17.858449650638963       36.26946668514266      52.099808046535315
   227   1      17.685446404367354      34.337225642021586       2.504242706256596
   228   1      16.381733645942059      37.309027189167033      2.3772756188840916
   229   1      15.998427591523065      39.235513474144803   0.0038208112468171764
   230   1       17.65224345586476      41.920767469168659     0.10021503231560694
   231   1       17.61625718184591      39.895064215433571      2.8693026853814532
   232   1      15.929871502359196      42.659508324068881      2.6537784753430573
   233   1      16.096810109176044      44.461236783447056      52.036461295714687
   234   1       17.90656904995042      47.269934045503682      52.125440823747283
   235   1      17.573138140574191      45.331742319722494      2.5900916939147307
   236   1      16.214222030570333      47.849634106025626      2.5177553625862679
   237   1      16.370288197731238      50.033209670587965     0.18319358997211627
   238   1      17.968771229970372      52.669197860279773     0.40814637590418901
   239   1      17.803283897948212      50.954045000960036      2.7865034014508336
   240   1      15.725733101560987      53.683268196018432      2.4887987562595475
   241   1      19.018216370971786      55.231080562023166     0.13761143228462619
   242   1      20.632443140612203      2.6354337949222044     0.13068691501266114
   243   1      20.717882416395884       0.846038052600942      2.8200356891862848
   244   1      19.139768334007197      3.5633104694071136      2.7713963383607809
   245   1       19.26334234518874      5.5759828938966773     0.31907598620316563
   246   1      20.737505214921587      8.2781823670012891     0.11234614846814778
   247   1      20.708348799690768      6.6482057080241992      3.0798912785873038
   248   1      19.093191950042829      9.3221696953183244      2.9390697899515459
   249   1       19.16487427120774      10.959161374561786    0.033328289852352644
   250   1      20.771417304329368        13.7850306298609     0.21161436814555615
   251   1      20.852209319094552      11.892301802015018       2.552375315742744
   252   1      19.378606274097756      14.764344772338109      2.6817293656273318
   253   1      19.393210342097081      16.642427589972961       52.00806177641774
   254   1       20.81205694258291      19.533262344158398    0.036549113630847119
   255   1      20.739408817772741      17.648109264908722       2.462765305311565
   256   1      19.189313754183484      20.604498762520151      2.8332440908571104
   257   1      19.212550509988581      22.370659373231177     0.25146542039955821
   258   1      21.062962261876343      25.241431664623843     0.14327574601758092
   259   1       20.89747882693036      23.440988902806282      2.5884564732935855
   260   1      19.226380551549298      26.131206576455973      2.5824107111213923
   261   1       19.10341928887534       27.82081449750666      52.063155777567488
   262   1       20.90582992785043      30.597166782897915      52.129829581760063
   263   1      20.952132343365275      28.957224819332499      2.6296144280552456
   264   1      19.352447090342629       31.61365406503106      2.6027487857561922
   265   1      19.381808869753385      33.437456330236579    0.029746068880720757
   266   1      20.688241965201872      35.938315370619961     0.12503902750408016
   267   1      20.791744402006707        34.3766730352826      2.6336614028252745
   268   1      19.405174045443431      37.137987974322499      2.6155242017990354
   269   1      18.876393403430484      38.962162307533433     0.13549022092569063
   270   1      20.780572082417425      41.575666240043205    0.066559149183427729
   271   1      20.718984857880784      39.805286063443873      2.7864798378643156
   272   1      19.162862266222842      42.590147659184183      2.5379395722448379
   273   1        19.3458288021871      44.720157777554967      51.940064138910451
   274   1      20.770572878605691      47.351176047395924      52.018997228596099
   275   1      20.821787551211546      45.672282361837766      2.3742813103512002
   276   1       19.47287602514665      47.993782995996817      2.8415560506366155
   277   1      19.451136470853221      49.951470310966357       51.99797790168018
   278   1      21.072332886504523       52.88596959955153     0.10085956617979351
   279   1      21.146460669033555      50.900069996765488      2.5314096269178008
   280   1      19.278954782355342      53.750253512221505      2.8375170435666641
   281   1      22.543909317382852     0.12668382218344212      0.2110316116428122
   282   1      23.818555832257051      2.7865533711928445    0.040707283377249964
   283   1      24.299543480842022     0.92860629908887882      2.8401967616373507
   284   1      22.259836262618812      3.6137712083641671      2.8618241743159589
   285   1      22.260144824306085      5.4449042729123409      52.110356813861941
   286   1       23.93384458842517      8.3801248645121778     0.15871298668500253
   287   1      24.034196003923107      6.5758738429556924      2.6828918169524587
   288   1      22.218325842116119      9.1146807945984847      2.8842600009354622
   289   1      22.433031407704274      11.070152163457164     0.23980823346773253
   290   1      24.339208887968333      14.311019043131317     0.11610459995833201
   291   1      24.172852968192004       12.06611748119494      2.9370880186304595
   292   1      22.559836849013955      14.740578304134795      2.7030582407197743
   293   1      22.407158262133763      16.740766535785383      51.976194890500452
   294   1      24.035129977003454      19.682062279018801      52.081563635428786
   295   1       23.81562524462877      17.371881717509968      2.5277137306830388
   296   1      22.435074091994476      20.326641575243826      2.6273583880757818
   297   1      22.382880193888457      22.230448587164606       0.273435551274125
   298   1      23.974187111739123      24.837729520258897      52.095326446912566
   299   1      24.098610708263369      23.246574630927427      2.7419279694986076
   300   1      22.439015156437833      26.057227676244352      2.8121493566126574
   301   1      22.313840621290851      27.821029159832246     0.17671149071931339
   302   1      23.986621976147084      30.649112211026267     0.14022113954179979
   303   1      23.999964188539838      28.689857335605804       2.794430987895288
   304   1      22.490267417654934      31.564942987388076      2.6558920617041073
   305   1      22.345625057340698      33.303092344357552      0.0410201441608826
   306   1      24.124480012067234      36.164823173487278      51.952138678753322
   307   1      24.040695080212675      34.447463008115896      2.6321631268958781
   308   1      22.662521734061592      37.222747761340614      2.4952251547453135
   309   1      22.140308671612107      38.824905129762364      51.984924227489813
   310   1      23.824165561771185      41.660868637315865     0.12336643033258389
   311   1      23.692827514208215      40.061703341079308      2.6791744605729413
   312   1      22.220270898135318      42.811193619167881      2.4045812579024073
   313   1      22.589998805977935      44.410335593490188      51.932915082517745
   314   1      23.774050469977844      47.452694378282153      51.918884305369751
   315   1      23.995767508890658      45.208200004249314       2.437412159124249
   316   1      22.562903439681516      50.102000928248259      52.042446189144087
   317   1      24.065070116507268      52.886127606192979       52.10884809692125
   318   1      24.162949256899829      50.979640813644053      2.4921064430519464
   319   1      22.492029897538092      53.770297982345795      2.7462745188571214
   320   1      25.652961817076001     0.20444954233023507    0.098982464459341599
   321   1      27.308896678837236      2.9439677816797847    0.019437764506366802
   322   1      27.311329686565845     0.90754851281533389      2.5522224934879438
   323   1      25.491361673548877      3.9621537743624335      2.6972133342323321
   324   1      25.597579921204318      5.6424191865527122     0.11510589820750136
   325   1      27.354184389384759      8.6663462344789561      0.1368119192486999
   326   1      27.217000690805527      6.5542836497913646      2.5472509664437224
   327   1      25.428816537431238      9.2929989805093491      2.6582308284108898
   328   1      25.410908232277741      11.325064655925019     0.24985806257210794
   329   1      27.419286694969706      14.021262115361248    0.012080548806564898
   330   1      27.467219091176428      12.169128499656427      2.6204388302572181
   331   1      25.707811196538007       14.91718399443142      2.5870799079373734
   332   1      25.635375769665657      16.970568129702553      52.115195672482926
   333   1      27.304893430377533      19.267560649653564     0.01325361472542788
   334   1      26.993496807655585      17.664954302728212      2.5862241724566184
   335   1      25.652815762022179      20.419387811336762      2.7690143644962335
   336   1      25.586860516493903      22.181234355947282       0.199332818436219
   337   1      27.182067926648987      24.924223983436146      52.071138021894569
   338   1      27.293648588425924      23.181808795419538      2.6593617850991391
   339   1      25.497579548422369      25.999948265711325      2.4993537919308384
   340   1      25.719224003003266      27.871541730352412      52.071601097729378
   341   1      27.212473668283831      30.482638020551686    0.030470874236952578
   342   1      27.101671226319425      28.769881216219989      2.7089989988862935
   343   1       25.60470825392342      31.644362980417569      2.6052718845325185
   344   1      25.434541369266555      33.610038853194105   0.0027573899036000501
   345   1      27.392970956411439      36.289582789734602     0.21268110520436245
   346   1      27.141419783477982      34.247446329586055      2.5266778452255507
   347   1      25.675734070032128      37.055006459950931      2.5621693699637538
   348   1      25.287221979567889      39.078833108695036      52.049663091853319
   349   1      27.389404121911774      41.713304844977387      52.028156624895267
   350   1      27.430925848760815      40.004171469721115      2.4131703564333815
   351   1      25.744430862653218      42.640824513479785      2.5859071878143616
   352   1      25.633575181679365      44.545254263090406      52.076171447056431
   353   1      27.184076455068414      47.234389479953379      52.078774312383572
   354   1      27.258870881559115      45.410669717376244          2.549473505605
   355   1      25.761706224977903      48.022595291985731      2.2980079058624048
   356   1      26.031231893101335      50.175232974190493     0.13657114540492404
   357   1      27.236803546735104      52.991341229449894      51.922016324706419
   358   1      27.431285183655522       50.79591769403789      2.7057310925379014
   359   1      25.824258114315242      53.884283843771911      2.4779764840485274