dump/Mg_500_20/steps_11 (written by ASE) 

3980 	 atoms 
1  atom types
0.0      32.100000000000001  xlo xhi
0.0      55.598830921999998  ylo yhi
0.0      52.130399999999995  zlo zhi


Atoms 

     1   1    0.027864304694302285      55.562002460490795    0.078830785426526648
     2   1      1.7831143454235643      2.6539637266159031     0.13377709956493886
     3   1      1.5738652835505149     0.79564890631806162      2.8628360482530795
     4   1    0.078463887287296377      3.9993670380996336      2.7434347069926162
     5   1    0.011960537975335564      5.4073796433326171     0.15544463166787503
     6   1      1.5188190646018758      8.2394733459907634      52.093030595602919
     7   1      1.6439074887601137      6.6433453243853835      2.6131079743034413
     8   1     0.15297304781357837      9.2308741068175379      2.6037336968506914
     9   1      31.800707051435019      11.052666188018415    0.090614030925992406
    10   1      1.4114454779725576      13.611842565517389      52.039584061855052
    11   1      1.6397955232096939      12.058896366667712      2.6506495046246639
    12   1       32.06082061050374      14.843901717208613      2.6605777657306375
    13   1    0.074742963111411403      16.577714131878324      52.113858911226494
    14   1      1.6875214487324464       19.33776448096253     0.25103548061622633
    15   1      1.5890403226338901       17.65643705610924      2.9486648713733663
    16   1     0.11908933478671453      20.324035720930688      2.7529425307285118
    17   1     0.13401795498707672      22.199402092868333     0.15607228836908743
    18   1      1.8354549392956765      24.799791078026299     0.34197654405872596
    19   1      1.5373467189180607      23.023152919459253      2.8679898177102094
    20   1      31.974834640164765      25.995195201826196      2.6943653002295145
    21   1    0.036905956852915901       27.62702731069443      52.078774136451266
    22   1      1.4786683859527834      30.299774038919434      52.125953497995035
    23   1      1.4605964724278149      28.594849923921625       2.331484028836043
    24   1    0.031252108873424979      31.276024591053918      2.3775633572470105
    25   1     0.30109262705361128      33.344549877010543      51.905202917746379
    26   1      1.7569598429820588      36.011130320755925      52.098641832547528
    27   1       1.738201621271086      34.329525281796492       2.808578510651377
    28   1     0.10836404861269346      37.275491967510142      2.7746044434577795
    29   1     0.27839666477606778      38.881305345628178      51.981619826821799
    30   1      1.7134943236857971      41.694095862386291      51.964600761602092
    31   1      1.7961365371231783      39.930699858231641      2.5704237586786207
    32   1    0.048996066775728701      42.223007610127347      2.1840893388926417
    33   1      32.090877766030147      44.433678867658806   0.0048872384720218169
    34   1      1.5957338354133099      47.284162317766409    0.074716394280834916
    35   1      1.4265357064866429       45.19389744897309      2.6223475874549207
    36   1      0.1551970845917171      48.010796569371898      2.5643443737496727
    37   1      32.080914586140885      49.985916154140334      52.129649212249447
    38   1       1.767821980566483      52.660160159633762      52.083510243311906
    39   1      1.6348411335297026      50.628244108950376       2.451632721268564
    40   1    0.065669905748499152      53.790076113752036      2.5890434111009162
    41   1      3.1156451936244998      55.552085728508452      51.985938410125534
    42   1      4.7417252059316386      2.6473847243123867     0.14743970912309473
    43   1      4.7945104281092688     0.80488030237437636      2.3878749758612465
    44   1      3.1915751149227387      3.7545945098753939      2.6063573758318568
    45   1      3.1559438712581853      5.5497788435584674    0.063169594852044153
    46   1      4.8181710710329719      8.1632294035058077      52.125732048993164
    47   1      4.8061605838655748      6.7272502024167204       2.827840903892715
    48   1      3.5501019631157864      9.4636461797531535       2.716264925679293
    49   1      3.0743599597617286      11.010373679733009     0.21261643784850293
    50   1      4.3703311679645038      13.666708557729777      52.117117151432069
    51   1      4.8608238241182926      12.107165733298903      2.8930764758087157
    52   1      3.2852386690755195      14.638614520435853      2.6979512300182336
    53   1      2.9742042630102721      16.279891660578627      52.127355450202337
    54   1      4.9085473226680261      19.535568501300766     0.18955258970181807
    55   1      4.5126276584944351      17.448817830010714      2.5061084245273042
    56   1      3.3147249580698581      20.407853306617056      2.7441575221691936
    57   1      3.3057417961200963      22.164825357638389     0.20285906408790144
    58   1      4.6876174244670477      24.838078183186504      52.014507465383325
    59   1       4.788825417125369      23.236898785784902      2.6544634591784337
    60   1      3.0137684506667828      26.073860584606145      2.7557672136883231
    61   1      3.2122908853218592      27.651839680686649      51.968224172672009
    62   1       5.013626214243561      30.313088114229043      0.1194997884382475
    63   1       4.716777303924923      28.912295402618469      2.6530381802269387
    64   1       2.973328553612852      31.514655416459245       2.466677716572991
    65   1      3.2080945287603249      33.186355495081159      52.008495583209374
    66   1      4.8594513790211025      35.841859103862333      52.078151581547104
    67   1      4.8111878552737499       34.15750212846298      2.7358737599203096
    68   1      3.2856321842551228      36.935996659462738      2.6881927072199927
    69   1      3.2916256015042604      38.651892429040451      51.967401654208167
    70   1       4.971897369728711      41.666022677258759      52.087522606766413
    71   1      4.7619786636522417      39.790833121342466      2.5247804579295217
    72   1      3.2659504487637934      42.799244788876855      2.6630269091245178
    73   1      3.2935104607410075      44.242707900340292      52.123809998524031
    74   1      5.0580445258781941      46.916059359971555     0.13491468141408852
    75   1      4.9051464814030163      45.384179200207456      2.4502232380997904
    76   1      3.2949774704199433      47.806206479190301       2.677139377289492
    77   1      3.2830303502377443      49.814924093154289     0.16130288418481203
    78   1       4.644131862739048       52.54487067332343      52.079781004088652
    79   1      4.7806363441100634      50.761430115489134      2.6662863417529681
    80   1       3.266205602334475      53.542205644503419      2.7653797168984688
    81   1      6.5935841754483979      55.571679260780904     0.20267838945233527
    82   1      7.8611025902713143      2.8492001439793482      51.834695961800989
    83   1      8.2656442177052014     0.91819593330904281      2.6801828590564285
    84   1      6.3347608734326775      3.3478602571165399      2.7571892901389266
    85   1      6.3338595491776246      5.4568816174474515     0.10990072479025759
    86   1      7.8298408732899754      8.3426758729792958    0.087794493092163681
    87   1      8.1062336680934308      6.4533355757725701      2.6036540197135958
    88   1      6.7689828545406305      9.1536311863229258      2.7203537123039174
    89   1      6.3198132822709052      11.190768571492374     0.51234130219265428
    90   1      7.6520396493900327      13.845921468156231    0.036780352874327737
    91   1      8.0829473743521945      12.145680970059519      2.7270751168689964
    92   1      6.3193473270947171      14.837246634550064      2.5608636126355533
    93   1      6.0654320821506227      16.608037041457546     0.18293563946172442
    94   1      8.0782073933730558      19.458611855552299      52.061744873587706
    95   1      7.9115007238941439      17.541954284274297      2.4809329115046936
    96   1      6.3952883004381889      20.401234167590516      2.5762626744827903
    97   1      6.5553483704448254      22.230185574505903     0.10477791803337433
    98   1      8.0973601084383802      25.075830344642657       51.89563160711775
    99   1      7.8251757615831252       23.15949336202398      2.4018808628140746
   100   1      6.3334853675732132      26.021607674769196      2.7785239619271174
   101   1       6.467098455508693      27.482354287275761       52.04877107304074
   102   1      7.8347430101820716      30.326764350260781     0.07125611675986257
   103   1      7.8909992269547198      28.821994460167115      2.6809523702680171
   104   1      6.4541125326520632      31.516298585988565      2.6376431569791237
   105   1      6.7027077494597833      33.360924423586304      51.900791154172367
   106   1      7.8796703938290973      36.190994944178435      51.886615892872491
   107   1      7.9094347824109184      34.227435941816772      2.6359228493148583
   108   1      6.4106275389413607      36.861566722443136      2.4761782823653511
   109   1      6.1831032462459454      38.748449053559447      52.055200482315669
   110   1      8.0742460907323306      41.366049484715759    0.060121714572821103
   111   1      7.9003322010896531      39.393037273232892      2.4503776859690443
   112   1      6.3506139010145404      42.704193745763583      2.4613689605892839
   113   1      6.6546312928523026      44.348836811883949      52.081413463350948
   114   1      8.0169486293827923      47.248777351567774      51.904026645358819
   115   1      8.0422728642185923      45.322558741859183      2.4743335789428622
   116   1      6.4188247378310139      48.110387125592418      2.7459290999841497
   117   1       6.452360956209076      49.742524536510736      52.069525784530157
   118   1      8.1149114237788016      52.878259596368665    0.052386192833623224
   119   1      8.2959908579786159      50.811539121466488      2.6400194059242486
   120   1      6.6373438924980235      53.620089078848061      2.6686299589714855
   121   1      9.6372845223488106    0.089612714424344153       51.98376632647642
   122   1      11.521785486126202      2.7317963128024338      51.820739936802489
   123   1      11.211311293135005     0.95656503581482122      2.4313974676634968
   124   1      9.8054607061304342      3.6902910323708928      2.2830230776369276
   125   1      9.7125220174869202      5.7614158867902718      52.093832539877553
   126   1      11.219047623305361       8.866514159577715      51.816293230903803
   127   1      11.234701301284492      6.8880127238287265      2.3645507441874969
   128   1      9.6517851560637791        9.50021789188858      2.5653588979526538
   129   1      9.3575257509492769      11.104259567206544    0.018486444781663145
   130   1      11.015266772155639      13.579997403068084      51.957651912015017
   131   1      11.097064850240612      12.191362889125308      2.5963215498976964
   132   1      9.4044729020936657      14.898876243695348      2.7569719396715811
   133   1      9.7355983838056037      16.541313761992079      52.006068891277828
   134   1      11.019023325619049      19.269583273063429       52.11954388588061
   135   1      11.248246920409178       17.82393449741096      2.7948590223670213
   136   1      9.6614727089280308       20.46518241036787       2.555787512285129
   137   1      9.7932125905005503      22.252167958402893       52.06538077111653
   138   1      11.561370939249468      25.185728179688031      52.103679197468942
   139   1      11.164586981231553      23.327154321923675      2.5756055066925589
   140   1      9.7302345537737942      26.001882491745331      2.4382161621782426
   141   1      9.6216963179005592      27.828631240814392      52.051265908851519
   142   1      11.221546587961059      30.307671603267867      52.106019899931972
   143   1      11.345053151544644      28.714286808039652      2.6310674724510839
   144   1      9.5862166266157818      31.520985115925416      2.5616807103448394
   145   1      9.5884288962481232      32.973233894322519      52.048353472053613
   146   1      11.154365948391208      35.755429836963458     0.21618317965097852
   147   1      11.134129709861298      33.937069473651647      2.5979363851581048
   148   1      9.6314360614590768      36.594486132887383      2.5656577491002155
   149   1      9.7015433137879068      38.539437625435795       51.99266732777469
   150   1      11.395691291026591      41.857133173323504       52.04302615874164
   151   1      11.305492048557474      39.867571340601209       2.648942116136753
   152   1      9.4593557273181794      42.594761740982285      2.5561659062388262
   153   1      9.7396094316726796       44.37788707966061      52.088675368284029
   154   1      11.187364537142075       47.35796161260749      52.003679628838412
   155   1      11.219668088259688      45.207275699458521      2.4767547245008963
   156   1      9.7287132713018583      47.990113248781149      2.5984234823454124
   157   1      9.9370107323667511      50.014550746179438       52.08439884564882
   158   1      11.123846232298906      52.972495786140541     0.27238760833554049
   159   1      11.300287671067649      51.038674605703626      2.6246098079388149
   160   1      9.6382889931444264      53.776942332242598      2.6442934467288297
   161   1      12.920012268856832     0.14621174583338389    0.062339145749743724
   162   1      14.777274027423221      2.7426526435106897    0.014362261011890051
   163   1      14.667203433943426     0.97605663708082036      2.4708297152559409
   164   1      12.951357672755115      3.8048812202197704      2.3236586445482841
   165   1      13.098244686252261      5.7604680628744687      51.942017244557569
   166   1      14.490273848995191      8.6456283825754845    0.066055723909327069
   167   1      14.440302366922774      6.7649942265440863      2.7016886977804599
   168   1      12.852814913771965       9.506757627275654      2.6511655226590616
   169   1      12.950448322566759      11.285967766237292    0.087526917969181231
   170   1        14.4217251959279      14.245930539586052    0.081192999506299116
   171   1      14.579422478862767      12.182785372677236      2.5768588665176435
   172   1      12.922874936282033      14.852077347718087      2.6514160187848121
   173   1      12.559001923387893      16.600537271437943     0.20480756931735936
   174   1      14.208126383787814      19.344407289341781    0.035711746341714749
   175   1       14.53770583896655      17.655794683693816      2.5411515681748238
   176   1        12.7615304791449      20.371456017458812      2.6265744945850487
   177   1      12.789288556326074      22.158364764959558    0.042164724963755638
   178   1      14.506903066702836      24.936228256603489      51.953384597166981
   179   1      14.234781320608477      23.350875958544421      2.4095101406323898
   180   1      12.760561245977913      26.088284272487247      2.6486288251455599
   181   1      12.949079119053591      27.787506382137956      52.011735289286122
   182   1      14.275329151329439       30.45359440629052      51.863225344119272
   183   1      14.444765797820082      28.708718239290974      2.6182008623023778
   184   1      12.889207715375798      31.597955505640446      2.3264629512623749
   185   1      12.938221082664274      33.230887683985628      51.780285122813346
   186   1      14.336716711459697      36.278904559571949      52.116078619910645
   187   1      14.550120034273171      34.314367242367254      2.5167142710661152
   188   1      12.749015107379686      37.031679333620716      2.6212221822696007
   189   1      12.861445706730697        39.0332359720638      52.089205965767654
   190   1      14.401223722293208      41.595312163486177    0.018907427784601812
   191   1      14.328977470055216      39.903697652557682      2.4762273182873802
   192   1      13.000014210371164      42.665623010243941      2.7932228322824106
   193   1      12.905702645821332      44.508867232673929      51.919063368611617
   194   1      14.353426398246565      47.195572668949197      52.015431785820148
   195   1      14.261611944290474       45.43867994154531      2.5620930564168369
   196   1       12.92874604073069      48.210552178691145      2.2993343154886472
   197   1      12.960475339395055      50.066472896601589    0.094156197511146913
   198   1      14.359564069392137      53.022325457102014     0.15304186767173519
   199   1       14.32887347400494      51.261201078163928      2.7640536162346261
   200   1      12.986047674777019      54.002476150906091      2.6720420457721215
   201   1      16.373932037021063      55.576388190457187     0.22094082211011734
   202   1      17.838120109566542      2.7922120139115982      51.948485989617069
   203   1      18.102398677661284      1.0270415149149739      2.5291498496738605
   204   1        16.2990562002771       3.765297238642809      2.4657589431615983
   205   1      16.204541289070857      5.6306952456742074      51.969817975440883
   206   1      17.527470392704782      8.5082982484309611    0.011551605841141269
   207   1      17.624617078810129      6.5133048218152458      2.5092711688862415
   208   1      16.096797281486033      9.4306286481271187      2.4665452145581064
   209   1      16.085755591979826      11.303000685936309       52.09451040688328
   210   1      17.964858387872638       14.08081632294123      51.990979159768223
   211   1      17.573447367340457      12.226684648041772        2.31172602406102
   212   1      16.030606128560361      14.990059473305001      2.5844282500141773
   213   1      15.996916635430932      16.773968953926051     0.10681452958784872
   214   1        17.7413756437359      19.591338769567912      52.084314072860508
   215   1      17.871250277613974      17.552896192112879      2.5206305669554427
   216   1      16.058475111094104      20.237533198353283      2.4947511893549201
   217   1      16.051905120268064      22.141115311348702       51.97022401955882
   218   1      17.638851521397111      25.307849681614066      51.954914337048585
   219   1      17.511655345039099      23.334006260489581      2.3807043816001769
   220   1      15.902335972664634      25.956200655293177      2.3829277348014002
   221   1      16.080606444328044       27.99468813906217      51.943713735497973
   222   1      17.586163334165004      30.495664559099534      51.901925695389252
   223   1      17.732252892332376      28.624797035407013      2.1739542928531628
   224   1      16.049540982474262      31.483801907153399      2.4694407200244695
   225   1      16.022410359444937      33.369978360638605      51.986607266294911
   226   1      17.604589131948426      36.467734868695246      51.916051479079819
   227   1      17.442641338536539      34.495134409279096      2.5920182552692883
   228   1      15.785356599045949      37.189583943057535      2.6675402959685566
   229   1      16.100661772349781      39.176556349761434      51.839481229562558
   230   1      17.857493735210909      41.973286636639649    0.021612587704676379
   231   1      17.476458375054328      39.944997233415279      2.5508671713414013
   232   1      16.132684473428736      42.517227631523149      2.4092912238456257
   233   1        16.0155723445842      44.324327660189653      52.040659752304265
   234   1      17.985617503308955      47.273691007715932    0.077129026535563874
   235   1      17.634716513698759       45.34015109329728      2.5600693766859588
   236   1      16.020755107171315      48.537267656765792      2.5318404761880138
   237   1      16.196718242222261      50.103610705097395      51.996127630892374
   238   1      17.607821799625075       52.79285359372242      51.954234250467557
   239   1      17.702021213354779      51.059287462733529       2.486929147985566
   240   1      16.163876699385529       53.82365119868539       2.566766823371788
   241   1      19.569147458030308      55.471497998386134   0.0068514567259904827
   242   1      20.974648889381882      2.8862457008819851    0.063733981805989284
   243   1      20.981894996937832      1.0678973791723727      2.7862435169443907
   244   1       19.45106109121965      3.8296274106803634      2.7017280376336004
   245   1      19.352254804114025      5.6725983665326867      52.082029882042661
   246   1       20.93532188112837      8.3408537334644688    0.018043131505246123
   247   1      20.822755955859904      6.4771074762579364      2.6526133194294039
   248   1      19.166161485462187      9.3978508090342796      2.3813568314968592
   249   1      19.487381938573339       11.35635018332489      51.843098736017375
   250   1      20.843462223993139      14.198121045838167      51.969777436227851
   251   1      20.948613498376325      12.090287950471939      2.3981091990623336
   252   1        19.3346971701218      15.025768776980049       2.716930851698963
   253   1      19.437976568938623      16.885734487472774      52.112051344320584
   254   1      20.987247257180549      19.709169061991656      51.983564495952834
   255   1      20.780176290504809      17.766811848949352      2.5640844259537081
   256   1      19.381461540591513        20.7364606547441      2.8107082065817504
   257   1      19.257593484436548      22.501568550953493      51.898225596505469
   258   1      20.906900856603027      25.001689102024208      52.036720376955657
   259   1      20.883679690686311      23.229131764581268      2.2862156755796463
   260   1      19.314746744823438      26.052805244598368      2.4439086223135549
   261   1      19.330793563909456      27.825576128306114      52.073192752595588
   262   1      20.802833909923962      30.456904861889722       52.04532368875271
   263   1      20.902360312369339      28.814297716476286      2.6352778678309345
   264   1      19.122824728118868      31.283238935989367      2.5367671403354071
   265   1       19.22826927428822      33.369105462775792     0.02608736850201732
   266   1      21.077747016306613      36.160026115735242      51.872924586561588
   267   1      20.831676000034793      34.408640929797606      2.5099958073392439
   268   1      19.229910720547455      37.169588153107576      2.4538254904399088
   269   1      19.302246172494296      39.022196211734808      52.109716979213815
   270   1       20.99362434899415      41.673834945382012    0.062180379151290585
   271   1       20.88283053864161      39.914475244814341      2.4253454135442079
   272   1       19.14977191061309      42.744066655069695      2.7059018362713463
   273   1       19.75505638096681      44.709742204319582     0.11309907732065863
   274   1      21.105585295993105      47.362239991279246    0.097869774008439228
   275   1      20.739087458133998        45.3593980884121      2.6857548491975356
   276   1      19.546679768291856      48.400178342295675      2.7149663960100092
   277   1      19.475622558353891      49.986350733356417    0.064248630685112801
   278   1      20.859630961764704      52.896753926293876     0.25074117931515755
   279   1       20.97511431917609      50.732638578914468      2.6942912066579323
   280   1      19.316731783568166      53.796647953850211      2.7955326132464871
   281   1      22.689194695118989      55.431122011886835      52.121865044492345
   282   1       24.13755706058317      2.7775691822690822      51.975075087158082
   283   1       24.05202174635939     0.61262601334666533      2.5450718272305703
   284   1       22.51643603063426      3.9124432547780059      2.5412168749984572
   285   1      22.461537056766129      5.6510608772853521   0.0076482350013694477
   286   1      24.152356679115947      8.3008501746146433      52.068351476657341
   287   1      24.006846748817676      6.4894135262395682      2.7167950339269993
   288   1      22.707894039355981      9.1553318193479747      2.6243187471159066
   289   1      22.831994518452962      11.057037218532587      52.074470002526958
   290   1      23.939002924006324      13.973735743447318    0.020743677915931135
   291   1      24.343243338932968      12.127943760465088      2.6271864361637558
   292   1      22.383297750757706      15.014266423878571      2.4153949701801021
   293   1       22.74608527473994      16.795370364741864      52.115143830835954
   294   1      24.246013482957537      19.380809280078626      51.887037089224954
   295   1      23.782550683313005      17.768004995194527      2.6988705645307607
   296   1      22.395956110146912      20.502334861428331      2.6226821882582501
   297   1      22.829561037331022      22.365912380015498      51.939221103780412
   298   1      24.140189049823043      25.013880174504457    0.071709372015103773
   299   1      24.183284333488626      23.172744422041074       2.671605075434754
   300   1      22.288957409876698      26.065796647534452       2.522763859762406
   301   1      22.411833527726682       27.55094834262681      52.080273751526903
   302   1        23.6857610227223      30.156699069002737     0.13369729981957665
   303   1       24.07356067707747      28.662266318857444      2.5310739068695551
   304   1      22.367800352501206       31.42412950996501      2.2932520658479056
   305   1      22.332150491694087      33.472999238736726       51.82494283811063
   306   1      24.431527937194666      35.804409174510447    0.028374708976746113
   307   1      23.898252686073178      34.354057697114129      2.4173899888952737
   308   1      22.242777332645737       37.15780453992312      2.6037776285813554
   309   1      22.660978440969949        38.7254664672842     0.12495465575289041
   310   1      24.486718313693384      41.985175699875136      52.003004158276681
   311   1      24.157619015257971      40.058933787138969      2.4127960554491885
   312   1       22.51870101484295      42.754544599420328      2.6863827493254671
   313   1      22.665691837018297      44.344318748219756    0.037956194523911309
   314   1      24.093532511105028      47.296550370902516      0.4830109825634043
   315   1      24.179967480562073      45.309446122788096       2.799399353219139
   316   1      22.579002744989626       50.16340698122638     0.16594991875658743
   317   1      23.986661626325841       52.91777066358064     0.37024956230958006
   318   1      24.159116441919792      51.037883635018574       2.849270747378386
   319   1      22.369454478334369      53.737960897729664      2.9286531037517149
   320   1      25.753874262090999      55.443481478149046     0.12026599969884481
   321   1      27.287971722146995      2.6930799368636738     0.16298113010783519
   322   1      27.261764331609957     0.90559082447450312      2.6235543508582841
   323   1      25.550531977516339      3.6366953811317844      2.5411090257200444
   324   1      25.476865097755017      5.4809943348902479       51.94106382997866
   325   1      27.245588103811755      8.1219418720693746      52.042515816877895
   326   1      27.100792898091846      6.4455227024906261      2.8027753009014167
   327   1      25.988420729745947      9.2676178151451936      2.4766922767232895
   328   1      25.971986695542288      11.104664503381237       52.12311650052601
   329   1      27.301575613581658      13.991816668161961      51.912669925847531
   330   1      27.745125420051398      12.045493917053433      2.7992854995849212
   331   1      25.650911188243906      14.868085038579434      2.2015473601815039
   332   1      25.841817715123288      16.630697080259374       51.99922537614551
   333   1      27.283509715349144      19.371956077524359       52.12545498374562
   334   1       27.34550886436303      17.544557813119468       2.487957732372081
   335   1      25.696865165301109      20.118235969170986      2.4866732406736607
   336   1      25.970157521344913      22.188359092329897      52.019478935873543
   337   1      27.523719722471792      25.157561893090374    0.072200532669594183
   338   1      27.367894884708033      23.083863042663111      2.4822946192672992
   339   1      25.597260987151842      25.970426337307362       2.617623645882118
   340   1      25.568468768268456      27.535715251176196    0.079833881404754739
   341   1      27.234526012690463      30.165089357160394      52.090941167236679
   342   1      27.293244283034451      28.614634583096375      2.6619707810292339
   343   1      25.470093693653098        31.4861355052902      2.4612678845167433
   344   1      25.909623026921782      33.060536117014799      52.095214005866254
   345   1      27.319667754461744       36.13392748436204     0.11251999399870967
   346   1      27.351922298670722      34.100152836519904      2.5470217921313494
   347   1      25.487796543228779      37.061977259867767      2.5754740644793945
   348   1      25.996451338422425       38.81828257694302    0.017176789858293445
   349   1      27.088328078230322      41.661956415365175     0.26379737843394158
   350   1       27.38636878884336      39.618861639211964      2.6467391475732329
   351   1      25.864752667412983      42.705786938900765      2.8275026239820487
   352   1      25.818704184473788      44.733460889107278    0.011138261295259957
   353   1       27.15142528415489      47.361959166431404      0.2627239888869593
   354   1       27.17012327372127      45.480540753626286      2.6486961751143396
   355   1      26.024568824653038      48.436192788855443      3.0292309948993883
   356   1      25.794592860714189       50.19234338042623     0.20311265336394593
   357   1      27.458242897148448      52.678470454969144      52.065833895487089
   358   1       27.63491649766447      51.060327564335033      2.7418615169028611
   359   1      25.964748584465742      53.794800802382383      2.7231030145720414