dump/Si_1400_0/steps_31 (written by ASE) 

4000 	 atoms 
1  atom types
0.0      38.395898218429522  xlo xhi
0.0      38.395898217999999  ylo yhi
0.0      54.299999999999997  zlo zhi


Atoms 

     1   1       38.38817349591973     0.20401990482122337      0.1167967146116782
     2   1      2.0006062313290145     0.22127047451221596      1.3473804000436178
     3   1      1.8274084741134438      2.2460125831066362       2.481861348922846
     4   1      38.314281811643404      1.5802930647996907      3.9320697755833383
     5   1      38.198316543037926      3.9960368981024117       53.88278567300339
     6   1       1.467086089161723      4.0781269068995032      1.1947373741730396
     7   1      1.7531979460465055       5.904426596703078      2.6917096995382952
     8   1      36.476523443814131      3.4130318614458619      6.7620064592951357
     9   1     0.24286154318899825      7.7997013383880693     0.23697468397921265
    10   1      2.0648469292190881      7.8858750708056213      1.5462114741529736
    11   1      1.4866400277725729      9.5624000207523014      2.9864493853456207
    12   1       38.02265219434365      9.6651460641825988       4.289491361775279
    13   1   0.0048239387508004234      11.584614076502207      54.157436478335441
    14   1      1.9146320812454671      11.773008864866574       1.432209137547533
    15   1      2.1081580915941052      13.629841191645699      2.8573687990012879
    16   1      38.382433314740091      13.487734439585431      4.0400494536628573
    17   1      38.377378400149368      15.694441920949059      53.892972652369622
    18   1      2.0999739941191331      15.225066471324336      1.0494514878254568
    19   1      2.0184289628003662      17.081484223291884      2.4028683254175256
    20   1     0.30929974456923232      17.179753896236839      4.1530326953430521
    21   1    0.041138362040786275      19.181422610832882      0.1813125715946399
    22   1      2.0189656901158939      19.106291488730982      1.4428439930195871
    23   1      2.0858236791418077      21.463368061357837      2.4331520136824225
    24   1     0.23761690721745474       21.28465169851772      3.9762970167154106
    25   1      38.248573871102408      23.683793541939107     0.10163128666939646
    26   1       2.134784907550952      23.623308758931579      1.3102637912768866
    27   1      1.7676910767907317      25.321391250234029      2.7895878099982281
    28   1       38.07258535750254        25.1070006019911       4.007668335330786
    29   1      38.155444471493865       27.03464135379139      54.010961179067607
    30   1      1.6923803000630575      27.006508717917736      1.2351096473648437
    31   1      2.2223319659697536      29.054963296056492      2.5361903952190601
    32   1     0.18970725717556161       28.66586193576498      3.7335038212660807
    33   1      38.262384184976106      30.909788902944879      53.941491458425503
    34   1      1.8110725040513453      31.043179344247399      1.2572574992833774
    35   1      1.7915620579953582      32.838669655244935      2.5414803302502125
    36   1     0.30713980417128678      32.427379953345294      4.1872980305466854
    37   1      38.249092455602842      34.877882111904889     0.22486899017604883
    38   1      1.9610023250007815      34.775271117114691      1.3202888439619644
    39   1       1.528995953630558      36.668820944535582      2.7089761428654899
    40   1      38.177307943951874      36.217705476202362      4.1612947238758826
    41   1      3.6832520762112275      38.249472871827173       54.00877737468906
    42   1      5.4627751474158455     0.29345549292630496      1.2085930560561589
    43   1      5.6934358233381417      1.9774314801712731      2.9053510555537647
    44   1      3.5808327910856685      2.2944865563679495      4.2171862594705436
    45   1      3.4797339158570737      3.5131357792295712    0.081512639046445776
    46   1      5.2310398839117322      3.8616413829907632      1.3848163718089164
    47   1      5.8280493765730625       5.787738502272183       2.488031725443737
    48   1      3.6986004622787441      5.5502127941160007      3.8821726166006698
    49   1      3.8852523001903241      7.8826772756963717      54.135947094792591
    50   1      5.9242760912984416      7.8953405536644414      1.2293886590770498
    51   1      5.4340423280060497      9.4858111501208526      2.8307086815997176
    52   1      3.6054882820379146      9.4765214994838729      4.0760193676194731
    53   1      3.8785166695973547       11.45355648837829     0.19664020557676182
    54   1      5.8313536716152905      11.293849226824488      1.4605405636488182
    55   1      6.0089588774784257      13.405833277890329      2.7239698428055696
    56   1      4.2286202178109935      13.375454468041008      4.1280644416777026
    57   1      4.2462019935478184      15.402531796449169      54.265028667656743
    58   1      5.7358427972557271      15.430957698554284      1.5828759272740276
    59   1      6.0063285817247802       17.33867068592938      3.0418072898396438
    60   1       3.851962238266347       17.26165309211417      4.0138381230152707
    61   1      3.8085131602437836      18.871790736699886     0.20260531892196235
    62   1      5.8074674847524834      18.986988708819556      1.4553243890785994
    63   1      5.8375691106779017      21.018732347423501      2.3907255326799266
    64   1      3.9559630521000573      21.219340140905761      3.7426381549987338
    65   1      3.8964056389498962      23.167380109530342      54.147338081096116
    66   1      6.1016284086834096      22.978930412892709      1.1804418592927173
    67   1      5.9200782130388259       25.02662107830032        2.56369758916891
    68   1      3.7885577909436474      25.073501521974833      3.8692113968363255
    69   1      3.7854648106652267      26.778805429416469     0.17808342997594781
    70   1       5.693794931120773      26.851396673460279      1.3515592044501443
    71   1       5.646073523849128      28.973003495208314      2.9319662742010011
    72   1      3.9051790680484002      29.155729790312698      4.2609295269317942
    73   1      3.5485471871981007      30.714437016248347      53.951223997687222
    74   1      5.5076460022196274      30.656199002669631      1.0314798175635242
    75   1      5.3968643288940692      32.413399609663905      2.1622370210097301
    76   1      4.0916659145630083      32.567313668024212      4.1212874113908367
    77   1      3.6313993168809025      35.166819867541982     0.14338373715239663
    78   1      5.7253794586128377      34.613071299741733      1.1549168026974264
    79   1      5.7611686169381402      36.691282783188363      2.3316856857794148
    80   1      3.6019118762482649      36.532761866428878      3.8406535654890148
    81   1      7.4625072630634364     0.16426124870117201      54.266639811432157
    82   1      9.5279012205332716     0.19116257785597046       1.163766260388249
    83   1      9.3869052870714871      2.1628233245601782      2.8439956818127263
    84   1      7.4147552243736197      1.9685911474166529      4.2277626239295838
    85   1      7.3508629511133394      3.9118399457870439    0.056370813655348517
    86   1      9.3380477172415386      4.0624448508051572      1.2700641349162889
    87   1      9.5403929916872361      5.7850322525175182      2.7641427718418319
    88   1      7.4160796093651022      5.6957660110263131       4.172590129565819
    89   1      7.9263227539301209      7.9286577603759856      54.263639202509275
    90   1       9.559141865971581      7.7224722696357491      1.4755459722081454
    91   1      9.5660365804422138       10.05398907254353      2.9431718254345474
    92   1      7.4032028598112873      9.6576395837368665      4.1266438617246326
    93   1      7.6702719514328468      11.761862730927794    0.084561829763094787
    94   1       9.544258200930809      11.613364851409068      1.3622419682450404
    95   1      9.3338923280638877      13.779038898540996      2.5457327690548586
    96   1      7.6471822165597816       13.43699384184244      4.5060470368268719
    97   1      7.7511230697169866      15.509062597083089     0.13633727973876819
    98   1      9.7099152210469288      15.658160512020771      1.2039185124303569
    99   1      9.7209619642646263      17.672677264762665      2.6588304195386994
   100   1      7.9396092168701227      17.142270200187319      4.2055344983660925
   101   1      7.5614852781407844      19.566381393744667    0.028161930888256827
   102   1      9.8241856615345995      19.652013052824412      1.2912772144669011
   103   1      9.5791308087641305      20.793147510083699      3.3995248542564696
   104   1      7.4524567550614336      21.054941743576428      4.1418729205563984
   105   1       8.045644334700194      22.944265234266098      54.196232796900269
   106   1       9.496074472123702      22.382214700413027      1.6889223873492394
   107   1      9.2620707584313866      24.841737122807515      2.8890208179178321
   108   1      7.4897391871402741      25.199609768353138      4.3837409648095882
   109   1      8.0116511380881157       26.59372035313249     0.41561189926056857
   110   1      10.070506226475372      26.621012824276743      1.3082193167802423
   111   1       9.948661903922881      28.277933496634496      2.6924648996741434
   112   1      7.9793838675329738      28.795878071739061      3.8782271249308691
   113   1      7.5871237480468023      30.722261640262378    0.099542009886942839
   114   1      9.5369887827001349      30.178911327052827      1.5060440570208014
   115   1      9.3355349222662252      32.279356174462592      2.7241906493400405
   116   1      7.1203548951596831      32.576336549645113      3.8473161547111192
   117   1      7.8767608914623199       34.65347207236038      54.113782053988345
   118   1      9.5249782967967977      34.782604399519848      1.3495461737657151
   119   1      9.3927676250590793      37.016573758642778      2.7689034612534908
   120   1      7.6265054123484664      36.559375173837708      3.6592314978862204
   121   1      11.490199756165699    0.079283139106811673      54.223130971852157
   122   1      13.195659272585461      38.250720277462463      1.3551404756595489
   123   1      13.486881439052524      1.8986502646996866      2.4279754624081762
   124   1      11.501912875538594      1.7146239672691026      3.8066656981965479
   125   1      11.357430625992885      4.0019295231534562     0.12807599502658581
   126   1       13.25170828153605       3.914699908568342      1.3132937355386167
   127   1      13.199733888931393      5.7172561664818158      2.6252677559805524
   128   1      11.381355032983979      5.8112007273193296      4.0342324011163297
   129   1      11.311600838630135      7.9113506711018662      54.208645511567838
   130   1      13.253297237755254      7.6616081353985601      1.4058214050604756
   131   1      13.243212979207698      9.4165597830677452      2.7461232160670095
   132   1      11.364213755428274      9.8107757886202069      4.0692486770436629
   133   1      11.688421646093156      11.572607209963426     0.35698198013990379
   134   1      13.470957810228493      11.404491964973488      1.8389097715365785
   135   1      13.708856757732116      13.344284392107701      2.8764078021105552
   136   1      11.512359853013718       13.53176034399471      3.8325198375974976
   137   1      11.503891409096088      15.161052359722056      54.216021818309699
   138   1      13.418537817172458       15.19249787111368      1.4933920942590042
   139   1       13.78859255995342      17.164148751699848      2.7031999616251374
   140   1      11.851184995350518      17.570899555535696      3.8289152894416238
   141   1      11.582730203917011      19.304105806076269      54.002487444126622
   142   1      13.326928166565436      19.144989900526056      1.3266049197627119
   143   1      13.526130943704255      20.688757940574696      2.8730672730907498
   144   1       11.60505795092759      21.142215145823883      4.2048608287439393
   145   1      11.507478222622053      22.689952305976711     0.42318624909842112
   146   1      13.602956633044146      22.932203980246424      1.6527949934029391
   147   1      13.598603115579621      25.072784922237336      2.6409730623588432
   148   1      11.480696171957426      25.073406994577923      3.9257922754441088
   149   1      11.687785809304728      26.718399826430105      53.697331114803184
   150   1       13.52141788180662      26.889131090471668      1.0360811111837256
   151   1      14.163319329209731      28.901256880024615      2.3742600930296249
   152   1      11.596672730033641      28.894426637238201      4.0579930612025041
   153   1      11.554331567526127       30.60139781773751     0.24564714716060529
   154   1      13.337966349098748       30.86038703436688      1.2126098149259166
   155   1       12.98353546866608      32.680118644303001      2.6871974804591701
   156   1      11.195922965299056      32.413201773385325      3.8916170080548476
   157   1      11.190108187007931      34.273034550056749      53.882138244569532
   158   1      13.279488109334139      34.572226159103217      1.2707346192807916
   159   1       13.48723852774561      36.322661644938023      2.9698856540551311
   160   1      11.449158152157642      36.471260509926587      4.0118219346612012
   161   1      15.406685151623751      38.224342539135463      0.2150796651755171
   162   1      17.454679274892463      38.178641902680646      1.3874415901708512
   163   1      17.162884030378464      1.5727704311574051       2.818099880029151
   164   1      15.131673690554186      1.8972872301230652      3.8359765848338725
   165   1       15.33752984103366      3.7440399620320544      54.122100098734144
   166   1      16.949581487796042      3.4592031626246897        1.36282428296013
   167   1      16.809459279495652      5.3663945839100053      2.8145731067754576
   168   1      14.813197969859985      5.8762946256441522      4.1423434474954428
   169   1      15.379899689915135      7.8023444950208418     0.29382413495461618
   170   1      17.365636015596397      7.3687672911256028      1.4835862446456054
   171   1      17.432828044033517      9.5329706652884845      2.9229408866793873
   172   1      15.165775962028501      9.3698585995345596      4.0212573093364554
   173   1      15.495930518797284      11.477329853221248     0.40967055188384627
   174   1      17.645820984398991      11.540974075921913      1.6542315239975214
   175   1      17.583058508932719      13.601864391284616      2.9006698817557233
   176   1      15.568494130296804      13.498524452134729       3.998828877611357
   177   1      15.321993857131924      15.658245384208609     0.34571395713305708
   178   1      17.315560059152538      15.360887942306338      1.6181757093802849
   179   1      17.727211182521373      17.326126821202656      2.6773529015210786
   180   1      15.658618292469255      17.183676704694484      3.9607585980665347
   181   1      15.384110221807298      19.363311493618184      54.215065076465734
   182   1      17.149903875818961      19.313981891004897      1.6750527258826515
   183   1      17.148003679327864      21.304180770136846      2.9772191622470361
   184   1      15.385403310334583      20.877785529807774      4.2962316741188005
   185   1      15.377609062829379      23.120214726762363      54.293866951013143
   186   1       17.30215964577755      22.904719259874053      1.5939926469805059
   187   1      17.119911519535641      24.799808488509239       2.866369933884402
   188   1      15.312270366264878      24.970340261180329      4.3304558735318901
   189   1      15.352514410676298      26.952806380734696      53.790015599047976
   190   1      16.839375958643679      26.564241926920182      1.3220474820589643
   191   1      17.087770380800052      28.357753162021762      2.8348672752858755
   192   1      15.547079854517365      28.975919453593892      4.4783201238496746
   193   1      15.529326855728877      30.707591642028081      0.3570819810699617
   194   1      17.656840425837633      30.390485623062588      1.6645920277688697
   195   1       17.14603511519751      32.616299911960226      2.8160365089125645
   196   1      15.151469002601148      32.359126346218403      4.1075551717640932
   197   1      15.239569304617369      34.784974164669315      54.213342164585164
   198   1      17.082052003554409      34.638204660770931      1.7947517404365285
   199   1      17.404020224075879      36.519739376465523       3.018026505389932
   200   1      15.375133159012075      36.715139517177008      4.2269095565545491
   201   1      19.421420945927281       38.38549817304488     0.12625144172943703
   202   1      21.246951753815807     0.21579241914376551       1.598010694739368
   203   1      21.268750263626298      2.0550675862713947      3.0505686589783205
   204   1      19.244036524192595      1.9924900281492803      4.0446525481090729
   205   1      19.178389386276727      3.5148762056173597     0.15460319089706914
   206   1      21.088622515632078      3.6623381498021383      1.4827651885599393
   207   1      20.965855320121147      5.7591896541606227      3.0231158928319912
   208   1      18.808517203431961      5.4873963940717534      4.0631671060113055
   209   1      19.011324288346248      7.4059726467765312      54.048391822843726
   210   1      21.189901469285232      7.6233827812536381      1.5691266295654052
   211   1      21.189372619475371       9.483923603669842       2.620378961389461
   212   1      19.483894219819941      9.2997259005645763      4.0868578358387593
   213   1      19.608855108771202      11.627985208968845     0.23627387269402772
   214   1       21.49023052616889      11.734749675872754      1.7425551945188313
   215   1      20.794946840496269      13.646345064880583      3.2082127141738845
   216   1      18.988161319065586      13.431378837881269      4.5713651116678173
   217   1      19.134533778171228      15.453357619621945    0.071235492659513969
   218   1        21.1764098328042      15.464516999857102      1.6963655285263282
   219   1      21.435375120807915       17.68001025605443      2.8657210121700381
   220   1      19.550162379399175       17.29261364319197      4.0729168480638673
   221   1      19.372757958209533       19.22613955294068     0.22008411085172405
   222   1      21.299484534861069      19.543458332603386      1.6554904150701879
   223   1      21.194281772782507      21.321415944008102      3.0550147358503863
   224   1       19.16839612909207      21.289392447271158      4.1760633731788639
   225   1      19.448846918263591      23.192739764070073     0.39836850810762592
   226   1      21.527220769678543      23.126290231764397      1.6849265355547907
   227   1      21.096781253360245       25.02638537764102      3.0695965442369464
   228   1      19.046652305448266      24.796026301922204      3.9324325675046126
   229   1      18.973439781068269      27.083779581686692      0.2088236544846723
   230   1      20.815306658923134      26.953333662457943      1.5748999348560562
   231   1      21.061074532374118      28.952307798433306       2.894169053825602
   232   1       19.13099930641819      28.316746986943834      4.2873322817476032
   233   1      19.587348625562608      30.937130381272951      54.132018590808642
   234   1      20.933020380058409      30.784444841763452      1.6866265467297106
   235   1      22.863737338723887       32.60428615427746      3.8802920571744592
   236   1      20.928242631717659      33.079381691584892      2.8575612530313403
   237   1       18.85337089867657      34.446900946197303    0.051751636572362238
   238   1      20.590575438168283      34.930267549065427      1.3583234347709112
   239   1      21.428045878559146      36.499119923368859      2.7301349336514567
   240   1      19.275149266869473      36.576892695516982      4.0023813743228835
   241   1      23.151598912836928     0.10428010659300291      54.286305266476212
   242   1      24.870072069312396   0.0096947244150518749      1.6344504840851282
   243   1      24.925977448383179      3.7922154268069614       1.499635384130285
   244   1      24.665717237376182      1.7476177252518372      3.0022221581924797
   245   1      22.940322928558309      3.8697306980590875     0.20319895607972269
   246   1       25.04291321669163       5.573403137562094      2.9252488410279294
   247   1       26.95689950826533      5.5360461198174846      4.0058411503387541
   248   1      23.044475567867352      5.4000019112556155      4.4056512624691679
   249   1      22.884020923385599      7.8199642853284379      54.192859557550811
   250   1      24.690189737717539      7.5463042628499082      1.4535023096400757
   251   1      24.865249452473517      9.6945195752538549      2.6227354919388501
   252   1       22.80619688471641      9.6938238493155726      4.2974080784683419
   253   1      23.455742150259457      11.617830301201108     0.33610461694393062
   254   1      25.238406466425744      11.855368138028783      1.6018952480020188
   255   1      24.904228351807607      13.689349459268042       2.861076010777722
   256   1      22.898469926923148      13.722846662946834       4.235491287395619
   257   1      23.179395201698313      15.578040618870679      0.1397808821681791
   258   1      25.162291896958191      15.806658625592293      1.4158199159072204
   259   1      25.245769815604955      17.538936433309395      2.8147955860915186
   260   1      23.348670251098142      17.648755670045229      4.0827562459564408
   261   1      23.272283968893696      19.181261636457371     0.15170065457087967
   262   1      25.249075399960482      19.327470693273344      1.4384430340441119
   263   1      25.282431640766809      21.111071970939623       2.791070172870084
   264   1      23.415342124802805      21.649761220075792      4.2649456783529685
   265   1      23.614590976571524      22.961097684948239     0.45365145515813782
   266   1      25.545238753395864      23.201532385449433      1.7184600758542168
   267   1      25.103859990010861      25.212746155453473      2.7922862772731012
   268   1      23.235310471170248      25.094939190146548      4.3674948896415113
   269   1      23.069768914911428      26.735507113839255     0.51971241437574933
   270   1      25.169422285347427      27.114241094767003      1.5227038555022909
   271   1      24.896255487067336      28.959908116457889      2.8619597667794681
   272   1      22.993487449991061      28.866184133960179       4.145990937379282
   273   1      22.501352985081663      30.648446913532819      54.226402839806767
   274   1        24.5203806907619      30.848309953787297      1.6133344482571057
   275   1      24.884616361993189      33.103049279937409      2.7364933143780363
   276   1      22.959293370822341      30.899011497085709      5.6361187912436383
   277   1      22.425373122418179      34.524849496832786      54.215934234329843
   278   1      24.521465770287342      34.748609878586706      1.0123723595583574
   279   1      24.661400269272963      36.454088901983937      2.7845066657472994
   280   1       23.28202081977253      34.525657575222873      5.3980032399383164
   281   1      26.698482209451686       38.26741199233814    0.072167394985478833
   282   1      28.699526155773203      38.173084687887787      1.4217303155497023
   283   1      28.586803649020599      1.7322134437725538      2.7552502858316279
   284   1      26.753095549528744      1.7067346238030054       4.198577887896076
   285   1      26.697383525765197      3.5854083368995142     0.24230388280414003
   286   1        28.9367533880617      3.9168001798964194      1.2326912418543294
   287   1      28.946019711232889      5.7613894678275512      2.7108272155675888
   288   1      24.825138519231437       3.990060671341447      7.0229918375115643
   289   1      26.880253742598192      7.5197750353355843       0.247567653401427
   290   1       28.89215320945182      7.8091660096641489       1.381959580483362
   291   1      28.637755864217624      9.9529890032830028      2.6847865684916434
   292   1       26.79902749685478      9.6764815218801097      3.8911332536188854
   293   1      27.270724543921865       11.38804583350405    0.060550215306170843
   294   1      29.109973437823967       11.92168243728163      1.2327188960098636
   295   1      28.933353956672491      13.528985754162052      2.8274936721164967
   296   1      27.008975719735012      13.522889195518292      4.1573370933274658
   297   1      27.008948067136558      15.110549558649874     0.11468122000338775
   298   1      29.214819874780343      15.279205407651606      1.2970361016241199
   299   1      29.060867614841733      17.133726786142315      2.9355523956096943
   300   1      27.094401387615729      17.264159333097655       4.064248354098889
   301   1       27.23169022776192      19.064303993776527   0.0020025113559427161
   302   1      29.185048499915304      18.803537902686031      1.4364883898913616
   303   1      29.098454338538129      20.832703366369316      2.5728180721218101
   304   1       27.09633253444413      21.300779587138855      3.9599330559877535
   305   1       27.29570108682239      22.905732167786581      0.2804666388144938
   306   1      29.517656220740616      22.643628178905235      1.2004183786626048
   307   1      29.223816649815145      24.629320388444988      2.5629752592855071
   308   1        27.2127293835503      25.087102466515127       3.807343065655278
   309   1      27.004039124332401       27.01620539798861       54.29886136805581
   310   1      28.922326878660286      26.405463409744577      1.1035032427885758
   311   1      28.926758046616403      28.615770693096689       2.145978220410711
   312   1      26.907608973492561      28.512378644655161      3.4004454323124951
   313   1      26.665894297722403      30.654088366963855      54.058046334509704
   314   1      28.619438265958959       30.57127842041784      1.0696024116789655
   315   1       28.74177107152002      32.394025201041266      2.7904488717228926
   316   1      26.935739198368832      32.767738871756542      4.0810060472223748
   317   1      26.693866990621725      34.860502789701187      0.0617682470239743
   318   1      28.475523134158006      34.390632824139082      1.5203783638652317
   319   1      28.929296485066182      36.288773899987248      2.8326016827800236
   320   1      26.639771227890254      36.320350031263054      3.8565156945104588
   321   1      30.364006106142249      38.199980418524987      54.288831635221356
   322   1       32.17353718213726      38.211947497060592      1.3003145567577588
   323   1      32.617473449856917      1.7771848772481209      2.7732576510581897
   324   1       30.75055270479265      1.8850534138845036      4.0838999725831533
   325   1      30.852234755750882      3.9398441055946738      54.225506009066905
   326   1      32.488917790241302      3.7542425926115941      1.6511705094512781
   327   1      32.948662778859131       6.028837192545665      2.8100595638484256
   328   1      30.780684124576716      5.5515886718319747      3.9419410821729448
   329   1      30.622683706981128      7.4521847805747816       54.19710241350996
   330   1      32.645313557962233      7.6329478514206635      1.1706376493849329
   331   1      32.523904729535531      9.3925682798495931      2.6136315299010655
   332   1      30.415691935985009      9.6428569464858338      4.0222606688177729
   333   1      30.799541655349508      11.269433561336484      54.163548684707493
   334   1       32.79762719238942      11.351564642253388       1.249113409430471
   335   1       32.63854367253149      13.242918374110518      2.6960582322885647
   336   1        30.8014053506046      13.814711166700729      4.2699146366752769
   337   1      30.886853695087368      15.037480874745134      54.150483806583175
   338   1      32.723875212418299      15.129932845955068      1.0503643783828696
   339   1      32.878596949060189      17.291716663531865      2.5338942823801425
   340   1      31.156952001961795      17.774920653921541      3.8977042802429422
   341   1      30.908201619649962      18.710932616769892      54.003386307999094
   342   1      32.824783457577119      19.055784497002065      1.2457579979726912
   343   1      33.031263093448224      20.990018760907976       2.671638555393872
   344   1      30.894612094433484      20.884928863863976      3.9236755897486537
   345   1      31.116725872958654      22.252784913261781      54.147756403421489
   346   1      32.710043283272796      23.117359009703559      1.2822887842419279
   347   1      32.473012499869981      25.269037781476342      2.1094934675414518
   348   1      31.097861196887795      24.920145933529909       3.983632057112902
   349   1      30.890786571968402      26.245787994012627      53.963135925443375
   350   1      32.768121813073805      27.148858247499227     0.92069347923286304
   351   1      32.920595141481158      28.979476174674666      2.1005035095062015
   352   1      31.132664236650832      29.028030114545285      3.3984706517523051
   353   1      30.503713800816769      30.228997162203143      53.992015867268577
   354   1       32.47438971335712      31.229468071251311      1.0378548464965065
   355   1      32.822790651857389      32.385373365084376      2.8960271766685852
   356   1      30.843678149248625      32.684610468131439      4.0421573165411822
   357   1        30.7347790159223      34.710456310868793    0.068541379975112962
   358   1      32.502022911346003      34.222041719527269      1.6038993405108184
   359   1      32.770529046509708      36.435832376483148      2.7744430187329594