dump/Si_1400_0/steps_71 (written by ASE) 

4000 	 atoms 
1  atom types
0.0      38.395898218429522  xlo xhi
0.0      38.395898217999999  ylo yhi
0.0      54.299999999999997  zlo zhi


Atoms 

     1   1    0.022954376231715517    0.011608004226802592     0.14090246349388733
     2   1      1.8843238999036391    0.055247722157598281      1.5796529550973231
     3   1      1.8420460886573975      1.8010394806972809      2.9137708942681457
     4   1      38.340114041480398      1.9966508412401585      4.0833245312333375
     5   1      38.290808921372836       3.848235751901635     0.33705224805911504
     6   1      2.0294619203470914      3.7740636505207581      1.4452167363799135
     7   1      1.8738499068608612      5.7829697595470018      2.6198151339620823
     8   1      36.494600789696904      3.5303078546535316      6.8118510883367582
     9   1      38.184310590021433      7.5958872268440931     0.15447024471023924
    10   1      2.1496387560257739      7.4503644393347752      1.1286008294695526
    11   1      2.0653246605513709      9.4857437010225549      2.6681993581257526
    12   1      38.095402591577354      9.5366411384973748      4.3351461229887942
    13   1      38.308962743428332      11.807356135169266      54.169832874423633
    14   1      1.7045859771334089      11.464566451569167      1.3178936203554015
    15   1      1.7596554966021041      13.599361855767285      2.4203661590990473
    16   1      38.258843064146134      13.779219855744779      3.5696535507804126
    17   1      38.175818428163687        15.6078450578502       54.18862028613777
    18   1      1.5672305635907187      15.796806141079703      1.2561574310864305
    19   1      1.7966827782124026       17.34405152760457       2.704839422958512
    20   1       38.26049902871214        17.0940408935482       4.064326962475036
    21   1      38.135417959823158      19.349474069037253        54.1014418991724
    22   1      1.7962706550027543      19.354298235000595      1.4581279277671242
    23   1      1.9157709719571507      21.130987999077217      2.9572323183870495
    24   1      38.369391622689434      21.131019500863054      4.1557408590841778
    25   1     0.24214004881630413      23.388419520542488      0.1522827645272514
    26   1      2.2672275775591708       23.13736491751968      1.4854475000641951
    27   1      1.9131602556870373      25.163466128182126      2.9613382213018884
    28   1      38.197188310886062      25.027078694838355      4.0777807619308737
    29   1     0.49607999691149579      26.955408115947311      54.074544691044771
    30   1      2.1544645214259592      26.748712876700626      1.5423513165062017
    31   1      1.8760633305861316       28.61061377265721      2.9953580070141728
    32   1      38.340029655580928      28.682929309370707       4.201662432113233
    33   1    0.076663989919877801       30.99171366379014     0.75765923927779333
    34   1      2.1693301967076146      30.598979169517367      1.8693263976483221
    35   1      2.0933024544681622      32.719461222525723      2.8713271344735158
    36   1      38.281772012825662      32.810774568051542      3.8653738564683726
    37   1     0.37541292899003248      34.748161087559822      54.233829238565228
    38   1      2.4420169824062254      34.385244514300624      1.2247873030643619
    39   1      2.0986405656884144      36.406686846298633      2.4644907298076988
    40   1     0.38999350620100182      36.326634144417348      4.1520592825567952
    41   1      3.6870327177725852     0.03287975132951889     0.15147615736691483
    42   1      5.9459102905335595      38.349290852166995      1.5693924310819765
    43   1      5.6768327726261552      1.9053568029547971       2.756737167365146
    44   1      3.6185969100967807      2.1094632522760834      4.3398363522346584
    45   1      3.8889213570874879      3.9135817521034051    0.040244454090589001
    46   1      5.9039629611134687      3.8051925230972943      1.3608231571902139
    47   1       5.864815611505545      5.7717397084362636      2.8119259068503517
    48   1      3.9041021647199203      5.9689140126409042      3.8745497998460472
    49   1      3.8593468465965701      8.0644023494703063      54.179311599483107
    50   1      6.0734780634430425      7.4058700102132589      1.0473923346371503
    51   1      5.7513838783031437      9.2300146365404405      2.5102344044357223
    52   1      3.9827643553670886      9.7626567417650492      4.0467152747008521
    53   1       3.808132224558368      11.485366703909476     0.12822074539373018
    54   1      5.9735495884905854       11.48324202167383      1.3771036886033821
    55   1      5.9576533727166145       13.93538209118528      2.4884731456250151
    56   1       3.922106563694217      13.527555403583651       3.647541087066601
    57   1      3.5072860605997205      15.685425043482171      54.190540143335006
    58   1      5.2771569706168524      15.669763985636283      1.1797966825410955
    59   1      5.2682116917637227      17.474550020314926      2.3338895459619935
    60   1      3.7340230470196292      17.614972873589284       3.979782577680318
    61   1      3.7803955584574092      19.393568183592738    0.058279045182564729
    62   1      5.6833444305755236      19.390701956339804      1.3476531718014146
    63   1      5.9141488669991276      20.932792741759986       2.835013326666274
    64   1      3.9190442836979091      21.077191447296517      3.9217798230324181
    65   1       4.304848127947233      23.465951804882597     0.14816887888690633
    66   1      6.2555526541473574      22.997605564527504      1.7104848843959866
    67   1      5.8121778898488179       24.74561753693655       3.055478183294996
    68   1      3.7667285418793592      25.182744542945365      4.4627680503953124
    69   1      3.9186196719528383      26.657401595831754     0.12618483303870123
    70   1      6.0028288632612341      26.569512792779101      1.7368033899426472
    71   1      5.8294845097910635      28.532528728098704      2.9837555556528423
    72   1      3.9146782450556801       28.82165508871832       4.192986026433017
    73   1      3.8314463574329745      30.824589519906521      54.195875277770547
    74   1      5.9532814058951029      30.589827757332024     0.95355543222767469
    75   1      5.8226997096890551       32.42985580832142      2.3020416203472798
    76   1      4.2079059911512449      32.664621827251857      3.8662583057755104
    77   1      4.2907128455209547      34.101678456283757    0.021153434569862361
    78   1      5.8599794140553998      34.626259482299886      1.3048859116957052
    79   1      6.3015131371768973      36.478759689632753      2.6823290306578991
    80   1      4.1120369965755135       36.66823084315574      3.8630098606739245
    81   1      7.9931781864562064      38.125213749466283      54.154344768797927
    82   1      9.9589478788806378     0.14107943297422024      1.0913534735254433
    83   1      9.5948736187146633      1.8441406715347681      2.6155229967707219
    84   1      7.7290039395975727      1.7132411215308327        3.78563625535917
    85   1      7.6031206194106433      3.8263061705625661      53.944892678606728
    86   1      9.5705385633574043      4.0013723021523155      1.1182548689314469
    87   1      9.6841422948678524      5.6760130409617462      2.9699150843377198
    88   1      7.5701824311456489      6.1260237258542114      4.1745837189507693
    89   1      8.0030181851790818        7.89217238629963       54.14577917024463
    90   1      9.7366876078027786      7.6953683693389152      1.6443822857723829
    91   1      10.021753006797436       9.486776522196589      2.9918090116155431
    92   1      7.7726934955586433      9.6677497314576097      3.9563583999250329
    93   1      7.8209854385334472      11.638529527122467      54.248083964764511
    94   1      9.8074179422210754      11.102723812500559      1.1902520603297351
    95   1       9.858292715753274      13.184602071481637      2.5441352994193833
    96   1      7.7938786840884227      13.631525928432033      3.6147395700549172
    97   1      7.4890364662382458      15.641645085579722      54.012132286016154
    98   1      9.3724571531202816      15.219081742960677      1.2934437407632364
    99   1      9.6742510520002707      17.189548504320392      2.4599912414314202
   100   1      7.5795114887010486      17.224699954338544      3.9885635447571302
   101   1      7.8240891912529795      19.250850929854131    0.065521420720949519
   102   1      9.7030832621574632      19.356802358749484      1.3984487989238703
   103   1      9.9559289754582672      21.041386503723125      2.8476508794432549
   104   1      7.6808914339395482      21.277949910561105      4.2012875387105595
   105   1      7.9347521651633173      23.087976756149832      0.1719243854538379
   106   1      9.9427730718365659      23.165652690401235      1.5573248405612523
   107   1       9.516904418846412      24.894296660407417      2.8781620781968971
   108   1      7.6382460130678949      25.178517232083514      4.2637707575580635
   109   1      7.7828033789678184      26.791121182167871     0.35277673685776545
   110   1      9.8293026127993013      26.821954922612477      1.3698593631007603
   111   1      9.6271356657542793      28.752063650097842      2.7869718021300827
   112   1      7.8305111241316325      29.199509204711148      4.3343029053295812
   113   1      7.8968576722986086       30.61659308241185      53.887953715935424
   114   1      9.7309505445326234      31.069610297914654       1.234924040784994
   115   1      9.7882064870526815      32.702389750209917      2.5740962638685705
   116   1      7.7398946406846942      32.991385334726886      3.5401375604889394
   117   1      7.7566571519177261      34.425172345616716      53.956802720186261
   118   1      9.6479663027883191      34.708080884741364      1.0088971182869741
   119   1      10.127084819241837      36.715126316963079      2.3909780543508865
   120   1      8.2571275659069681      36.514785593999228      4.0106877441643425
   121   1       11.77973537776621     0.46255056274758249      53.795071116170689
   122   1      13.224753680848684      0.2057609276268447      1.2137136321846145
   123   1       13.52035979915741      1.9739018753917497      2.4966048334359936
   124   1      11.521485392272773      1.8892884630051103      3.7452623518264869
   125   1      11.514001126779544      4.1864486426673588      53.853483642324001
   126   1      13.209630606059378      3.8095954961120224      1.1386959853801029
   127   1      13.466405758391138      5.5391307690554168      2.9025080711103652
   128   1       11.72892657458206      5.6622785150907031      4.3279671936502355
   129   1      11.943688754275584      7.9001112793797272     0.38021831583464522
   130   1        14.0772148202231       7.427502757809533      1.3782163354697197
   131   1      13.918232475568795      9.2871109243176946       2.874858177312785
   132   1      11.874903417562685      9.5658868719373995       4.143271141288734
   133   1      11.515413711472146      11.691420411669336    0.098405707725169378
   134   1      13.365340954966975      11.309646829176305      1.4453784689109845
   135   1      13.383871141553421      13.439571214556569      2.8027786220256057
   136   1      11.671990191151995      13.473813657640212      4.2539282537580911
   137   1      11.489146432217879      15.545591880817847     0.34473671684843316
   138   1      13.332138577495439      15.229272876486737      1.3791179941822749
   139   1      13.580034628245674      17.088915914923685       2.628505397663206
   140   1      11.723585993731973      17.057380702325357       3.788619579946396
   141   1      11.779943824854662       19.13763986019967      54.082955924698389
   142   1      13.695196890620842      19.154683635820664     0.94083561006108196
   143   1      13.464288941875363      21.122606353320517      2.4897819552536715
   144   1      11.890826596885326      20.771041262293863      4.3103589276349918
   145   1      11.918431014938546      23.070639773256879      0.1304953625369879
   146   1      13.898483591079458      23.057826832768299      1.4815331038346815
   147   1      13.574705277068707      25.523086997600043      2.3301036428416739
   148   1      11.904536859751907      25.196791946222092      3.9446963446038366
   149   1      11.775793952025802      26.689140919080295    0.053367064045278335
   150   1      13.941112018532335      27.192188287076828     0.77526446506226576
   151   1      13.464943563950799      28.551311196544045      2.6093492573461403
   152   1      11.627130343291682      28.943673120106201      3.9705958074008767
   153   1      11.529146227001499      30.583950228265813      54.199830721109578
   154   1      13.495172587027142      30.691416917554609      1.2715292104029208
   155   1      13.679441941640372       32.74627534193359      2.3297464017032783
   156   1      11.832382844046917      32.984691258153049      3.9607248597887494
   157   1      11.442009470036256      34.594715437162577      53.837613751805847
   158   1      13.243986969563892      34.661478139266343        1.15196157572956
   159   1      13.688645789906904      36.586265874757089      2.2488213566267956
   160   1      11.929660989227857      36.756761346441543      3.8181325788802836
   161   1      15.435948960549592     0.12267859389983685     0.10335963031054711
   162   1      17.511836766761053      38.050046787411731      1.4417273207792747
   163   1      17.201755241715031       1.755311492120593      2.5280641432707487
   164   1       15.36427218008671      1.8122775004658997      4.0161620089918877
   165   1      15.243568015083254      3.5616232351360555     0.34948978674070769
   166   1      17.543455379977889      3.8910154380112605      1.0252899926933636
   167   1      17.143206141044249      5.6634557993695145       2.710681437900496
   168   1      15.142482718746113      5.6279479735371858      4.2857676444364632
   169   1      15.624966694269581      7.7211035201939611      54.000095590634047
   170   1      17.279326464842661      7.4682142969199514      1.1741581556786751
   171   1       17.32354690999648       9.419170849170678      2.5814862512600039
   172   1      15.897902423750402       9.355784788959264      4.2887275163263539
   173   1      15.724598924258132      11.490108395482602      54.173764831514006
   174   1       17.30967179503229      11.406774641651838      1.4277047085470027
   175   1      17.449975522033395      13.219432644976454      2.8148088372441196
   176   1      15.346363641866594      13.287612274344022      4.0766871236909283
   177   1      15.536104973330314      15.380312590518187     0.23637816398246497
   178   1      17.560115742479013      15.242399612459327      1.5803101841423188
   179   1      17.528678744999308      17.265224331915991      2.6186004962423559
   180   1      15.553769040773204      16.947381897415568      3.7866631888164215
   181   1      15.648995088999561      19.391306696874068     0.11410857803095931
   182   1      17.531917788683554      19.309731296716748      1.2272217256399711
   183   1      17.293603827399949      21.244771215923659      2.5314176516126743
   184   1      15.446358513044535      20.978861354574768      3.8570579536268856
   185   1      15.456573140225007      23.136383741726643      54.002541207629527
   186   1      17.132785964072259      23.249866819247302      1.2613153429654382
   187   1      17.535644824323509      25.026175125602133      2.6629663370105399
   188   1      15.288991190547813      24.653672050664255      3.6570907797748311
   189   1      16.104652425661392      26.993592990064467       53.98854360370585
   190   1      17.717980473705286      26.927640421081435      1.2756011146731248
   191   1      17.178403777046594      28.805094012900568      2.7262425358688027
   192   1      15.218382945640576      28.741050407636855      3.9868485386439274
   193   1      15.493077846375312       30.64547716551591      54.138031145536203
   194   1      17.380242216791626      30.734148385045966      1.3764586022026488
   195   1      17.259323797486285      32.565906931917517      2.6212658487074822
   196   1      15.382458753942245      32.063082406420548      3.9217620681079097
   197   1      15.092241509618638      34.778959317608724      53.978365283057784
   198   1      16.964014519118777       34.54215348918045      1.1997801537869603
   199   1      17.444088566952377      36.118915172928936      2.7878309019021663
   200   1      15.401202782655286      36.494571535049026      3.9460234319772542
   201   1      19.140887962522594       37.96486447230896      54.152067067946078
   202   1      20.856311893010787      38.380099103293141      1.5877851626481261
   203   1      20.976463395482519      1.8988784984353499      2.5751260120806352
   204   1      19.268309336467311      1.6142979110341127      4.1230990618641066
   205   1      19.537929207367519      3.6961006280105417      54.178013435588383
   206   1       21.44308382827678      3.9098592944624202      1.2951562734067223
   207   1      21.078311567894382      5.9400378966887653      2.6732233107533725
   208   1      19.251239460458326      5.5747826068105377      3.5895609416600229
   209   1      19.270871922468956      7.7888022528404228      54.265472484241577
   210   1      21.185064105648365      7.6619672112547663       1.281096532645724
   211   1      21.173226965636147      9.5300144893840226      2.3850305743491171
   212   1      19.173945713302587      9.5756370606619488      3.7142186184983657
   213   1      19.041517265637669      11.750579583351824      54.260469998483877
   214   1      20.997341636824409      11.459294428018053      1.1750806588888614
   215   1      21.149731841688894      13.212310714049996      2.8451130593159042
   216   1      19.264895938866267      13.257850726939958      4.2584186613640984
   217   1      19.185501163625386      15.657802025362491      54.256136945394275
   218   1      21.089892428132153      15.287355041051613      1.6037032432028919
   219   1      21.235215470367418      17.159879233488851      3.1139279130554312
   220   1      19.236404239960741       17.14442028539742       4.423384804945262
   221   1      19.468456628649037      19.468215928797633     0.29268661064215873
   222   1      21.385812464025733      18.693357779804991      1.4035388763810019
   223   1      21.511525172455098      20.733825955427065      2.4773383009665255
   224   1      19.783618704854643      20.907453492503691      3.9048660314865278
   225   1       19.41233611242885      23.117587465579604     0.42805497553291633
   226   1      21.437053819191611      23.040331499868351      1.3136410926505735
   227   1      21.407334742417842      24.838877165329848      2.7520165843822388
   228   1      19.367412712241684      24.759973505760705       3.924949659023254
   229   1      19.478212895359153      26.679276899306476      54.157852856783364
   230   1      21.034354917712307      26.474959104626372      1.2603616111776643
   231   1      21.161378990958173      28.564699924187966      2.2353323065776176
   232   1      19.278190142505096      28.749304876863881      4.0057147080452848
   233   1      19.189655118031258      30.651034959093764    0.087636817373913767
   234   1      21.122813556166012      30.544954034373269      1.1903753345579049
   235   1      22.881987609107714      32.303163364136502      4.0936102531515424
   236   1      20.897081584137371       32.02800352306631      2.8802407103164782
   237   1      19.143689918148674      34.508524387116537     0.46984704095337981
   238   1      21.009911101239322      34.187891502215031      1.7116068170197209
   239   1      20.998511241734196      36.377117975929465      2.5627379332310611
   240   1      19.291137034621098      35.997971992714284      4.1486327858292977
   241   1      22.863088327907835      38.276268862951405     0.38374122347665868
   242   1      25.087551416677702      38.360581838604361      1.3875871061006386
   243   1      25.121693607245923       3.307784854007064      1.2260875221423562
   244   1      24.923889104172105      1.7689255046644148      2.8048029464597013
   245   1      23.292438249262435      4.0380732177311129    0.081198280589399222
   246   1      25.100956273488425      5.5982555561560412      2.4800797337979019
   247   1      26.820836567756562      5.6315400904164985      3.9948055273864056
   248   1      23.285534211505514      5.8992244267177485      4.1459272735064117
   249   1      23.193212999211809        7.89536936812378     0.13838218027848395
   250   1       25.19066823918725      7.7796590535670047      1.1636175492804886
   251   1      25.319777745051518      9.1993730559614484      2.9180992613994161
   252   1      23.291690536321017      9.4233812491448443      4.1112257089762272
   253   1      22.961726297761206      11.238181792947922      54.263908526367743
   254   1      25.091612717941889      11.279805046874625      1.5705498764005734
   255   1      25.072241485066193      13.263539999027518      2.7644594812244905
   256   1      22.950235881540564      13.234676723896863      4.1514596915867603
   257   1      22.760571343095307      15.168057844039478     0.21735638855127504
   258   1      24.583691203918967      15.198037096490074      1.3773012608111233
   259   1      24.729580540080825      17.136857797382671      2.8185910394103972
   260   1      23.077553548920449      17.109469799201154      4.6023104833517223
   261   1      23.174446533824931      19.619304539497062    0.059548992861596206
   262   1      25.179455351092734      19.118499787424067      1.2166146504788686
   263   1      25.003769074250965      21.094035114866379      2.5381778102296364
   264   1       23.35381440180635      20.996976609912164      3.9357475247172924
   265   1      23.149667252326932      22.928907717911347          53.99874856217
   266   1      24.869375286319475      22.817117884860288      1.2122884889808891
   267   1      24.685707478369384      24.935510726764559      2.2969780124712322
   268   1      23.524441041219774      24.917726456751083      4.1656030103621786
   269   1       23.11590285706739      26.713835261673854      53.861871596919926
   270   1      25.074819590158228      27.108716333547832      1.2164614270678398
   271   1      25.044630808936247      29.058866388280489      2.3280002973471601
   272   1      23.126691042810279      28.772028796576716      3.9554821412381003
   273   1      23.167756200265863      30.590541870001093    0.069295244922898416
   274   1      25.176329575428635      30.829793381157405      1.1028037634566992
   275   1      24.767903459686099      32.566097806965907      2.2333830871449201
   276   1      22.947539368138038      30.658986871729063       5.642040323570952
   277   1      23.114543691229461      34.498050721718897      54.295434008877358
   278   1      25.098435360044697      34.508840031468331      1.1912576071161329
   279   1       25.09586578536944      36.274253665181682      2.7439839365817429
   280   1      22.835576916482726      34.181229529964732      5.4294422616470106
   281   1      26.742627534733039      38.320431287048791      54.185694819699911
   282   1      28.705156865555399       0.128058346554703       1.177396622328625
   283   1      29.149683989578534      1.5910313446003184      3.0125752523145568
   284   1      26.799392041165852      2.0908150445425866      4.0150476319085415
   285   1      27.212491577188981      3.8543176223271498     0.34605894633076539
   286   1      29.254317862433485      3.5296060853669258      1.3584734133159153
   287   1      29.063990417753633      5.5501858283105774      2.8798355114943672
   288   1      24.991821006257108      3.8023879460753478      6.9614328477700456
   289   1      27.186328758890603      7.3943715007197186     0.14108215198574497
   290   1      29.170842930542172      7.4131300687656303      1.3538374618340656
   291   1       28.96840970176687      9.2024785656239185      2.8623883307568327
   292   1      27.042660740586378      9.3309403038447929      4.3186520217051463
   293   1      26.784357086632685      11.625440362094944      54.181228006391997
   294   1      28.440534558738268      11.366604186012392      1.5755555905696406
   295   1       28.92061968296856      13.394436865995836       2.722490957239061
   296   1      27.058529357714647      13.286236791137801      4.0116164736963329
   297   1      26.711776072411308      15.414211732229713     0.20012986290121285
   298   1      28.966902779769043      15.362040383173939      1.3359372050953433
   299   1      28.251447528483947      17.529803238174384      2.4466213583551757
   300   1      26.543260829703538      17.159489228287075      4.2280943855377808
   301   1      27.136756489869438      19.209291641481645      53.920735273475785
   302   1      28.831293991849218      19.452724803786545      1.3363720386933104
   303   1      29.215352541536888      21.371932709179415      2.5709777121173705
   304   1      27.138531654587496      21.135337273425112      3.8543445306752466
   305   1       26.76947257881611      22.872551857557088    0.013415146079967147
   306   1      28.927287772468539      23.192264277865728      1.1492132198942497
   307   1      28.694004787281948      25.079972296451231      2.5858246163872445
   308   1      26.779003890811843      25.038800087863514      3.8977333474490479
   309   1      27.000686294642414      27.062694687320441       53.98801083521974
   310   1      28.601606299289191       26.96146998559523      1.4432007562292031
   311   1      28.642789971088117      28.861645603674223      2.8014132747187421
   312   1      26.692230476993334      28.882991618833476      4.1157474651914319
   313   1      26.986090423720352      30.854175602054664      53.854023372430468
   314   1      28.554872888981905      30.903247677886835      1.2967830408788814
   315   1      28.917785507718992      32.647165557430647      2.8402210836711115
   316   1      26.868824802357747      32.666215634542446      3.8972540963034934
   317   1      26.963974748400769      34.405069055897926      54.175973328914452
   318   1      28.922759227197432      34.417927407236206      1.3150031893318228
   319   1      28.641384055259469      36.513456418384372      2.6495686591472016
   320   1      26.966792959083211      36.504957501083034      4.2766846433227803
   321   1      30.754999817127299      38.343899302344383      54.244676523058054
   322   1      32.469602966764718      38.199513371513213      1.5123000262648139
   323   1      32.942290240074421      1.7130038028656072      2.9950357518304047
   324   1      31.068930188804245      1.5923021473816994      4.6268102728635778
   325   1      31.021346030104272      3.8998473834373799   0.0042524348291067358
   326   1      32.969173727547961      3.4943338726254503      1.6379789970810654
   327   1      33.056107271324869      5.5106276842978987      2.7877014152110187
   328   1      31.022732712484618      5.5487164257146331      4.1218035965724322
   329   1      30.959338247038282      7.9613263282965629     0.12307865490187146
   330   1      32.881499362405805      7.3860723209722172       1.273087800242072
   331   1      32.585776613083979      9.3896957680062965      2.9146623613254201
   332   1      30.799531779789707      9.6039256426206805      4.4195895823495546
   333   1      30.459738335533991      11.432499534755662     0.34675458744760584
   334   1      32.688268358102903      11.234622948643544      1.3966981922835777
   335   1      32.993776510036334       13.56648886254203      2.6193910079503686
   336   1      30.989127878510285      13.309203063703549      4.0237774478027744
   337   1      30.649979570107273       15.33661070042479      54.116353345618855
   338   1      32.985345275938322      15.313672224907672      1.3148206786773118
   339   1      32.816667081635622      17.241010481995978       2.821706568296019
   340   1      30.490468586796506      17.053351305030688       3.483945237046508
   341   1      30.807949507387253      19.200298391193311      54.120587367034872
   342   1      32.615945286797107      19.375377798290742      1.4524269217297392
   343   1      32.512490973847967       21.22113696256276      2.9506902210907788
   344   1      30.490622365675218      21.025685178631015       4.508455017897087
   345   1      30.880402640026716      23.140472077826004      54.174021343066144
   346   1      32.689916642965912       23.14059088767846      1.5514221345658818
   347   1      32.645118242049122      24.899413140820933      3.1181071514499292
   348   1      30.443671177738374        24.8682773929152      4.1853643595780001
   349   1      30.757022000811297        27.0737838713986     0.16525186604831107
   350   1      32.707860482423193        26.8574152819434      1.5781286277698772
   351   1       32.59421152953059      28.882784478400858      2.7860385855740586
   352   1      30.625398096099989      28.882245661756833      4.1312743783438686
   353   1      30.702858398836845      30.903586280521086    0.084771495674010447
   354   1      32.521565512177446      30.816479004188405      1.5665444273184317
   355   1       32.51198735274437      32.323147018879546      3.2155434214821401
   356   1      30.526268867989479      32.640061313224379      4.3977822581740726
   357   1      30.795269306675703      34.480741563043011     0.15372226543499895
   358   1      32.605088146342794       34.33689498326077      1.9913674192787403
   359   1      32.620925594131847      36.364967078326899      2.8454993096015051