dump/Si_1400_0/steps_21 (written by ASE) 

4000 	 atoms 
1  atom types
0.0      38.395898218429522  xlo xhi
0.0      38.395898217999999  ylo yhi
0.0      54.299999999999997  zlo zhi


Atoms 

     1   1     0.10710140414147239      38.345476219337492     0.15522382448726832
     2   1      2.0648569125970551      38.058294681050633      1.4939768343422648
     3   1      2.1735673777645976      1.5442830676777315      3.0511463380373471
     4   1     0.04455765976661271      1.6176319176613865      4.1750944464351027
     5   1     0.11337955196944433       3.960799510081078     0.26998333191620544
     6   1       1.715127224420429      3.5548346127488868      1.7655012270750148
     7   1      1.8808226426564998      5.6303979860641249       2.787835972496874
     8   1      38.100285354638238      5.7369926850688877      4.0729192865315662
     9   1     0.57623558577888012      7.7054086537421975     0.20385926570967258
    10   1      2.4602526125137771      7.6043352876616943      1.6647289123061355
    11   1       1.883187541090062      9.4449245798427182      2.9383916618449701
    12   1    0.016376223881246696      9.3832614758562602      4.1242872028962436
    13   1     0.11510008018153539      11.654583604111531      54.062170724508526
    14   1      2.1162293906516338      11.168961971388462      1.5249921907818469
    15   1         2.2746075930709       12.93338723582864      3.1229767320879751
    16   1      38.340334670625666      13.233796266682205      3.9217616630845682
    17   1     0.33113065871279002      15.160576611214019    0.088760032670336247
    18   1      1.9484706649157892      15.169298028489266      1.7008028335409926
    19   1      1.7379427013318289      17.211675518279012      2.8483838703917064
    20   1       38.21986869781545      17.516137907881461      4.2024382587588409
    21   1       38.31412716392483      19.333245858909809    0.048213155403163899
    22   1       1.908570109453932      19.160360542481943      1.4594431677972448
    23   1      2.1084830640905512      21.170127234886955      2.8283554109419122
    24   1      0.2564752924427407      21.443175559577661      4.1251905292295978
    25   1      37.965349289564223      22.889632542743758     0.28252081062311185
    26   1       1.628901768027111      23.313712774072574        1.55662968172529
    27   1      2.1723622861267557      25.076310259473139      2.8990666902843021
    28   1     0.13832164023681662      25.101986840213616       4.314297363324056
    29   1      38.352351102430646      26.763560897109741    0.017553472980796427
    30   1      1.9727976751035332      26.850593949098108      1.2996335987772807
    31   1      2.0175810583979321      28.595808734766269      2.5964209523985469
    32   1    0.085766249685604215      28.677301196727548      3.8588901158687325
    33   1     0.14235856650518341      30.564916083511026      54.181813573356244
    34   1      1.8796615419248368      30.584965736460223      1.3922239679127302
    35   1      1.8300849927884288      32.865558492031745      2.2611258937418257
    36   1      38.378568257886798      32.396126718481149      3.8115585133156489
    37   1      38.017714029708621      34.644710473892644      54.208007468323025
    38   1      1.6962228224247673      35.004320075883633      1.3009518979096346
    39   1      1.8424046907509832      36.471475994739414      3.1806223551470012
    40   1      38.376630189864969       36.55396362572997       4.302879507268246
    41   1       3.840551989982536      38.357991626507058    0.075355368824125205
    42   1      5.8745726127062277     0.07376357913672961      1.2913221636068566
    43   1      5.9106400365161207      1.6353276452472827      3.0702150366173231
    44   1      3.9946180327097629      1.7094881024007107      4.3876016232630031
    45   1      3.6441149636682946      3.5252850387248742     0.01851851457471413
    46   1      5.5196198991744936      3.9810828806295948       1.277184597872884
    47   1      5.7980013173747436      5.5784234323002533      2.8356943397178278
    48   1      4.0127969007000432      5.6651153854584599      4.1324843053723495
    49   1      4.2132541786084321      7.5113636968248558      54.236217383970633
    50   1      5.9144627731516808      7.5709254884441917      1.8987899490595399
    51   1      5.5637419947029025      9.6116272927832611       2.769862730014697
    52   1       3.732323541278002      9.6377300482613055      4.1818627177727183
    53   1      4.0914604568272583      11.263045014412167     0.24014547340153752
    54   1      6.0894269190089991      11.335772696069142      1.4960887527814868
    55   1      5.8981979001481628      13.292615471389704      2.7895484705581222
    56   1      4.1584516823011155      13.210283694952276        4.31038320757136
    57   1      3.9486135403576283      15.176461738491035     0.46237685026054559
    58   1      6.1838485665581349      15.124660441666117      1.2695738556721821
    59   1      5.8638937639809106      17.035792674892065      2.8502719795925398
    60   1       3.829604819751089      16.976102592413852      3.9751275408145621
    61   1      3.7737881280862191      18.950413994037735      54.299487174518205
    62   1      5.8009236752840385      19.108101633353098      1.2323260651227756
    63   1      5.7120680656229235      21.093483895033543       2.284866784756534
    64   1      4.1633776286336541      20.795568033183351      3.8302912853992415
    65   1      3.3771554287994801      22.971345624914907      54.285405497921978
    66   1        5.48412944682181      23.197721484682742     0.62402846835761039
    67   1      5.8478718438493091      24.457439892903093      2.3547225041111033
    68   1      4.1797860744126405      24.553957364960525      4.0915839719812181
    69   1      3.8132291224939698      26.603002936676695      54.003645152380138
    70   1      5.6544251404068371      26.437652290581031      1.1869598690278971
    71   1      5.6779416715040822       28.25361058992814      2.7504480375680025
    72   1      3.9358751843128412      28.438868177005627       4.465476581151413
    73   1      3.7685466557268761      30.538716298630249     0.09807722838638705
    74   1      5.7955678697090143      30.152914676561451      1.5393958128371992
    75   1      5.4954193874055601       32.64098907176912      2.6381327411677011
    76   1      3.7238998292480039      32.619042593890448      4.0512963408342877
    77   1      3.5887968545018505      34.780505343542664    0.091103311814026811
    78   1      5.5530850608289395      34.622786739332348      1.4170671114724984
    79   1      5.7041342000300004      36.528516193184771      2.5527069876075865
    80   1       3.993093490520351      36.379401584130669      4.3396442289150263
    81   1      7.4956514399093583     0.13191322174057765      54.098578729593441
    82   1      9.5879007649781762     0.26019562657355139      1.1120891583090962
    83   1      9.8765966754494769      1.8816401934021041      2.6866902883761221
    84   1      7.9603833924730116      2.0425595028040626      4.2661533772098208
    85   1      7.5193416718377275      3.9884717330235411     0.19680434659849211
    86   1      9.6201375787281744       3.697499838819005      1.4736130020267624
    87   1      9.6668244797193754      5.6942033821281548      2.8308286002085641
    88   1      7.8223954299763356      5.7450883667654367      4.3001965103788073
    89   1      7.9255129682457932      7.5665795452326252     0.38914084910743429
    90   1      9.8510565374945092      7.6374097539249419      1.2426187603564605
    91   1      9.6157737879596006      9.7990535521601085      2.7088136111155197
    92   1      7.6328555052969547      9.5233044639487048       3.920272383443705
    93   1        7.76446702396996       11.11332773869546      53.920351474340706
    94   1      9.6026800854935459      11.547289627314793       1.344425513163255
    95   1      9.5428442448434208       13.20734895483727      2.8154374075756916
    96   1      7.8570149558917244      13.133122361858904      4.1904883472734475
    97   1      8.0148497901118425      15.083653912508057      54.225168705873905
    98   1      9.7617022291358211      15.342567034785082      1.5409578247809792
    99   1      9.5760408211166332      17.518848719497214      3.1099664795038868
   100   1      7.6876210883980995       16.97598442568589      4.3764820869559236
   101   1      8.1810361715716997      19.337505865838029     0.24163719389294983
   102   1      9.9968610529332427      19.509025926242074      1.6756327804242663
   103   1      9.6050381286642796      21.394908546304094      2.9089400589310208
   104   1      7.5040560367418179        21.0464973992251       3.842818448240009
   105   1      7.6296401753775855      22.740478653983669     0.22321286200556162
   106   1      9.4851249368460469      23.246113998345479      1.3255138509918438
   107   1      9.1919810381636964      25.103386854664688      2.7396689459498025
   108   1       7.533434890051125      25.222252238262701      4.0746420390541855
   109   1      7.6254800999026555       26.75835914126845      54.154408026289339
   110   1      9.5339384686572259      26.895965017575271      1.3346666251453019
   111   1      9.2440989052022502      29.018281682165725      2.3159881863387244
   112   1      7.7127607903060573      28.759836564127212      3.9734337387320564
   113   1      7.5806402354249665      30.468293069788551     0.16968987155396445
   114   1      9.4854638646765181      31.075834762803193      1.2766342114115103
   115   1       9.161287160283095      32.572332603227579       2.837373667534032
   116   1      7.2270333606453319      33.148922496433812      4.1324039581367309
   117   1      7.5932251785093667      34.721421530119919    0.083120430350868441
   118   1      9.4450073720136647      34.404218779888531      1.3321483795349869
   119   1      9.6093976728329569      36.522206613775097      2.1565164843096891
   120   1      7.6319401187828895      36.441654131932651      3.7275933725343524
   121   1      11.635929556434219    0.028245153614624288      54.049388641815376
   122   1        13.5962176995702      38.189690352037893     0.99121946127248861
   123   1       13.58528130805694      1.6932308235726041      2.5762239169368515
   124   1      11.497945810815477      1.8508473517475665      4.0589634540986586
   125   1      11.731815823586144      3.5305470246921193      0.2062541240420957
   126   1      13.752794825753123      3.7856487562801631      1.4015141327992995
   127   1      13.615065546573003      5.9111370586623204      3.2087183105415065
   128   1      11.478697492530554      5.8781822362011082      4.5153013823774479
   129   1      11.556780139650286      7.7051867542413195      54.089033716383312
   130   1       13.45990471803942      7.5781871186843546      1.4881560551612105
   131   1      13.089479128119544      9.5543946869444891        2.91211866256914
   132   1      11.317923294314792      9.9152719875268645      4.2957701101592862
   133   1      11.635970809404816      11.735950166346019     0.32746441173278518
   134   1      13.800890399047141      11.539786148863154       1.627523214009807
   135   1      13.666432555242951      13.500072234553313      2.8860142265575628
   136   1      11.639762452558013      13.611159872964137      3.9736425481121258
   137   1      11.450188261303076      15.705514251977247   0.0057303810143139317
   138   1      13.202215681742469      15.316587100794425      1.3964481773435069
   139   1      12.983771238232968      17.224963023759503      2.7364322994047496
   140   1      11.591123342183202       17.65344926773308      4.4357073123552393
   141   1       11.76702885545189      19.497652786786897     0.16559090558213244
   142   1      13.943348952634569       19.15674454553152      1.6481643218303235
   143   1      13.494665386377623      21.211528266207459      2.8056739775737487
   144   1      11.667460604034305      21.254476056210805      4.3385836923235832
   145   1      11.453615734815564      23.392150882921367     0.22793870502001712
   146   1      13.292702043556087      23.122290738324743      1.5620107286062976
   147   1      13.121864586272244      25.069900459434773      2.7439847665678472
   148   1      11.111188750373993      24.988413701391007      4.0824981148510835
   149   1       11.36144449405271      27.394891608494301      54.091103633914216
   150   1      13.095126375035811      26.734327563506138      1.2305684199410289
   151   1      13.230417621623802       28.77406512413684      2.6121248843087321
   152   1      11.253961335047775      28.749780975846502      3.7365017738074786
   153   1      11.543504217857441      31.000004407909245      54.237074766693141
   154   1      13.486536226282483      30.772255805690644      1.2889790322556356
   155   1      13.200481551922893      32.733792133184025      2.7985451213309465
   156   1       11.19636845922436      32.623447306234972      3.8159285108153513
   157   1      11.575216270114375      34.510934319555609     0.15794788818179745
   158   1      13.647441015904421      34.792548441221996      1.4037357944707978
   159   1      13.233549112834043        36.6265562026989      3.0027692434389004
   160   1      11.243348638363734      36.385511092156129      4.0739136849532205
   161   1      15.650279631753628      38.163504880111333      54.243107818972419
   162   1      17.433347780326706      0.1030409084917842       1.573065571055223
   163   1      17.045655463079758      2.2593047152919392      2.6033938540975994
   164   1       15.29022133243752      2.0408141523471852      4.4042087464123387
   165   1        15.3387741742439      3.7115512797815882      54.111537446824663
   166   1      17.051587739124155      4.0635442273608957      1.2954000644263624
   167   1      17.257471701580968      6.0355903943448777      2.7024682382250491
   168   1      15.544160013367968      6.2395986667331629      4.2524448815749771
   169   1      15.358762504271242      7.8156126194294027      54.238037901945717
   170   1      17.373695274209972       8.054465444589189      1.2982956920642572
   171   1      17.263784114491624      9.6682246694349168      2.8285621028048804
   172   1      15.171467567676789      9.8237234650106782      4.0017852343603844
   173   1      15.505386526010202      11.319048387918878   0.0090525990466972222
   174   1      17.373272848480571      11.428229628277013      1.1743643204310179
   175   1      17.496856012201249      13.153142025938266      2.9269473102127455
   176   1      15.616536184962841      13.411395457096795      4.0600767118150181
   177   1      15.171976940818842      15.212801771936187     0.18537485729196976
   178   1      17.270212520066252      15.102878979786112      1.4765437801719825
   179   1      17.327770771366541      17.147203775856006        2.85540957718348
   180   1      15.279566041254157      17.366419366086923      3.9475011267776039
   181   1      15.785501589847849      19.206013442876809      54.278454815799819
   182   1      17.590361431970784      18.950829125138714      1.3432596413775288
   183   1      17.144396421551157      21.020284636633022      2.6481461841404657
   184   1      15.316862534520919      21.436303447995552      4.2136282958266502
   185   1      14.914739071481581      23.021784064705276      54.229643604675587
   186   1      16.734799451408385      22.731652130733529      1.3269074395868434
   187   1       16.91974266287669      24.804665023959025      2.7436684758204271
   188   1      14.947727240868954      25.164452225608546      4.1068376227364727
   189   1      15.020993146965264      26.922223590948274      0.1095188540899016
   190   1      17.019438213374357       26.75223433496156       1.581731931298465
   191   1      17.138051415141053      28.850490159780218      2.8734853595815486
   192   1      15.191698150556816      28.874864854266157      4.0491281993152368
   193   1      15.335769425112785      30.757753838496427      54.290880654365736
   194   1      17.438086823252611      30.550557715575387      1.0872014472671683
   195   1      17.101682426051099      32.561444176086972      2.2731120178451403
   196   1      15.196123647656743      32.673645128499345      3.8525544289871152
   197   1      15.483059232346681      34.686261091929204      54.278058723237095
   198   1      17.351720145388708      34.543148863221411      1.1614330128782715
   199   1      17.415986986427153      36.377540516085823      2.6479916064908959
   200   1      15.396997092410258      37.013392441983022      4.0337493827660094
   201   1      19.385862772407833      0.1050309430225473     0.38671675129971839
   202   1      21.402932242283974      0.1014090914056246      1.6066811710099516
   203   1      21.092804656249051      2.2365464710392788      2.8298089189841003
   204   1      18.951648496507215      1.9913396204530669      4.3516968742719424
   205   1      19.236198284541551       4.092227397841433      54.072093616129798
   206   1      21.171368693696312      3.9741328952980699      1.5522234577735414
   207   1       21.76373707549957      6.1801925960815636      2.7033906759870225
   208   1      19.379597091320289      5.6195791090750058      3.7678380594531728
   209   1      19.553520195155901      7.7980522259573108     0.21209393596822104
   210   1      21.512204282285843      8.0534956062787284      1.2773388079210217
   211   1       21.43644841196129      9.9065802643805938      2.9268169816088729
   212   1      19.401790166727011      9.7530266911517511      4.1793037023991229
   213   1      19.423308986408156      11.659321087881816   0.0055629102512966917
   214   1      21.495104881688608      11.522182663705902      1.2505108064548398
   215   1      20.870884484251835      13.307581444732504      2.9084708445058944
   216   1      19.165227552083646      13.296968987278337       4.451858431680316
   217   1      19.236413097184446      15.638606211014514     0.28390394887508164
   218   1      21.186641476285367      15.152853593231058      1.6844788042505241
   219   1      21.158861934013387      17.308613373649134      2.4716779837680067
   220   1      19.196093692260881      17.542830789450175      4.2542291602855373
   221   1      19.444558843562675      19.210578006995757     0.18717473086427369
   222   1      21.606253453109456      19.413265521732022       1.645517377808857
   223   1      20.722067745612726      21.274477236409503      2.8054364374760983
   224   1      18.939574867798353      21.330063351405514      4.0991785865302042
   225   1      19.209404765109362      23.029257074029104      0.1917556702620116
   226   1      21.128350069644778      23.521819505220115      1.6360368713905344
   227   1       21.34396874488052      25.200752573484337      2.9310960448183465
   228   1      18.938422982984399      24.894347996843532      3.9367969414147748
   229   1      19.065364003319182      26.906877465369689    0.050872089763822695
   230   1      21.249606936413496       27.17993654517641      1.2383381021167901
   231   1      21.056970070704864      28.555428647160273      2.8856345332424569
   232   1      19.067139466663029      28.628642329921316      4.0868597251760423
   233   1      19.393998412283572      30.648460424939703      54.211768075216931
   234   1      21.397374188100382      30.352625308664152      1.4772536994697496
   235   1      23.035837086518161      32.744872272378153      3.5175120379789071
   236   1      21.256884280886297      32.896311617081032      2.4221693459919367
   237   1      19.293397975723103      34.777120862893703      54.074512330929743
   238   1       21.18226663646309      34.770516856334538      1.2847241079558913
   239   1      20.957392570364984       36.54992232911092      2.4452513907573357
   240   1      19.311737197082429      36.422762064825193      4.2410293507272492
   241   1      23.275499889224527    0.067103617263237145     0.25078246670050253
   242   1      25.141586221619676     0.40309444249810755      1.6104588517489808
   243   1      25.345422398993296      4.4184201155553238      1.2296123183870458
   244   1      25.260697348429677      2.7531298903621888       2.830053883534331
   245   1      23.330423111142995      3.9763263757603999     0.28006854299434258
   246   1      25.113163385116668      6.1437122873684888      2.8632570048214592
   247   1       26.97145359293156      5.8947553768419736       4.150286032278145
   248   1      23.258074439904703       5.591874457904825       4.285249412741857
   249   1      23.438055937814905      7.2070387937885219      0.3923684151168006
   250   1      25.254529085628036      8.1079727684659524      1.4766439328083132
   251   1      25.126152925322458      9.7484251268911777      2.8706033233689476
   252   1      23.426649640416723      9.6880012465155829      4.4341322425848144
   253   1      23.333210334205681      11.497785711620292      54.213145783918321
   254   1      25.232007298328703      11.757578960690742      1.4292753994971554
   255   1      24.848116196332427      13.310851057291575      3.1807692869917239
   256   1      22.985846490813735      13.666774569907636      4.3585188049984227
   257   1      22.896001423976621      15.312054635966073     0.37638591623828005
   258   1       24.82965201456091      15.303391757817435      1.6401581757238772
   259   1      24.918184238542793      17.317501825571785      2.5605638488077735
   260   1      23.061179755548956      17.627321728938284      4.1976471879665738
   261   1      23.076654791954141      19.346065984471355    0.022573873638270903
   262   1      25.128690384826836      19.234023437577005      1.2511148718926306
   263   1      24.891477697825469      21.133462624437254       2.713593329525124
   264   1      22.831740792863378      21.118497716599904      4.1033056065016007
   265   1      22.919228386433932      22.986364315172416     0.34217025202080997
   266   1      24.831929688257777      22.994420356107458      1.6556127584175424
   267   1       24.82985009142681      24.897796512940829      2.8482238655342806
   268   1      23.235126901309503      24.841312884004221      4.2546846343014781
   269   1      23.332740949623865      26.683080899173156     0.21549090195055687
   270   1       25.43510708263025      26.901617075975693      1.1102283339462127
   271   1      24.927097906897096      28.586302129780975      2.6131752932856198
   272   1      23.118008812534708       28.74089057517801      4.2923041785355611
   273   1      23.094308314378036      30.216585444742531      54.220222010624816
   274   1      25.108322320182335      30.262710204124513     0.98275911379752356
   275   1      24.987789374550765      32.377453734602788      2.4027523450973844
   276   1      23.259851121519727      30.928824590713017      5.0943545105862791
   277   1       22.80024940809918      34.665538028295707      54.014519649808626
   278   1      25.001734664797979      34.701694348294247      1.2258636334364279
   279   1      25.015442815200995      36.928815990194508      2.8430158371310874
   280   1       22.85990066356436      34.328585790496199      5.3206191041030708
   281   1      27.065841477110421      38.236244745313627      54.206284042317151
   282   1      28.776021426266691      38.022982451635428       1.452884211288588
   283   1      29.266059632093999      1.5518403141752466      2.8965880720072299
   284   1      27.142495468518518      1.9647355033213254      3.6988156273706831
   285   1      27.193983743867932      3.9029605396869833     0.11332676320689633
   286   1      29.012657078062801      3.7450329334737757      1.7282502114384994
   287   1      29.005166365876484      5.9607458174518078      2.7921063413657525
   288   1      25.007618585137887      3.1328048703080138      6.9375477882488914
   289   1      27.033952530949989        7.93698898615978      54.280867680626798
   290   1      28.685655600208189      7.8623716449771113      1.7318452792516938
   291   1      29.148542246255523      9.7511771027916083      2.8790768727961473
   292   1       27.09188394635369      9.5644545775326311      4.3326864814906001
   293   1      27.128493970732293      11.994589514175745     0.03389090659318296
   294   1      28.981056410159571      11.668219206616046      1.3918779964176664
   295   1      28.937924281555784      13.485348680299543      2.8608110840769982
   296   1      26.819923805637263      12.949902383714711       4.320960015660912
   297   1      26.872240938025346      15.455989426401445     0.29911910154119126
   298   1      28.642118934795761      15.547231437385003      1.5871269157173054
   299   1       28.64993882449637      17.424172761842527      2.5717141166391011
   300   1      26.963625840802305      17.694432709741914      4.0731425363735161
   301   1      27.274564458349627      19.052090165565044      54.277669803850138
   302   1      28.960459970939162      19.543968817228574      1.3466104872203222
   303   1      28.334427510402033      21.215229897515385      2.6522486556908795
   304   1      26.721720223708317      21.234325205612613      4.0413478319680944
   305   1      26.918089560271472      22.789654826486036    0.020577550003145019
   306   1      28.832910092415538      23.326276705158257      1.3115148150998361
   307   1      28.805695392274469      25.203984812737389      2.7182723775586757
   308   1      26.828416654089441      25.199267156292755      4.2207367720677214
   309   1      26.988868408258416      26.668695107152484      53.796791170469909
   310   1      28.671890982337079      26.597922147243384       1.007128331716193
   311   1      28.763142286213704      28.502275372673981      2.7971903238358107
   312   1      26.930836061551499      28.437536425985595      4.1240658096859857
   313   1      26.999607770317905      30.619004815296595      54.122944395918537
   314   1      28.832895058323587      30.367109626608229      1.4231405700558317
   315   1      28.953605424225209      32.528080049036362      2.2493631792550999
   316   1       27.00772179502442      32.544091265027468      3.6362422284677813
   317   1      26.972984570979854      34.451963809165569       54.10078603456715
   318   1      28.911440066871513      34.725849398735122      1.0495852356387319
   319   1      29.028432151322843      36.398928929414922      2.9854785254781047
   320   1      26.992231532977588      36.441065939501996       3.922288482971668
   321   1      30.833238065837786      38.285098603482759      54.107870964673396
   322   1      32.594785189162728     0.21370659992520719      1.2722249534947745
   323   1      32.853474598392076      2.0523292385706378      2.5667019782664537
   324   1      31.005355270101518       1.764672874476678      4.3411513338795222
   325   1      30.885090250689291      3.6998738045732531    0.027337906051241149
   326   1       32.80282054991094      3.9452369518500685      1.2197133348196099
   327   1      32.529897157216901      6.0286945361286621      2.3643118929219673
   328   1        30.9686141139425      5.3581531447187922      3.6847711136786279
   329   1      30.678197462154507      7.6219970230540177     0.19023884873134858
   330   1      32.762382978464593      8.1630786448769985      1.0423784591335195
   331   1      32.875658486376516      9.6123562520803389      2.5323558615922948
   332   1      31.143799279740136      9.4744949896589823      3.9669718819430377
   333   1      30.666194078404509      11.317680894218318      53.941994354251683
   334   1      32.409100912612054      11.529424112182351      1.0521661739918737
   335   1      32.271440562380498       13.54094410689647      2.2622629371253304
   336   1      30.793976723872383      13.501446105367103      4.1230730395927493
   337   1       30.25260973125819      15.736763541970827      54.259332977215848
   338   1      32.516916659769393      15.624915413078041     0.94271593378851937
   339   1      32.221310873889827      17.241742720908032      2.5403179640677629
   340   1      30.527024707422367       17.40051905624102       3.975000327347014
   341   1      30.750045697172602      19.426083917457905      53.984766037816037
   342   1      32.509028147349973       19.35051287335607      1.2294877776414423
   343   1      32.433463566811447       21.17082704591612      2.5362835441184068
   344   1      30.252263713701865      21.058484694242296      3.7798787561461364
   345   1      30.568311925141437      23.074813813132121       54.18367021963266
   346   1      32.561615680912688      23.230315957509816      1.1546914079355597
   347   1      32.728474070503921      24.997188003755515      2.5382011082081837
   348   1      31.001566341434501      25.008092111600305      4.0001107164078116
   349   1      30.850295616073154      26.336841002400245    0.014304424362944688
   350   1      32.536180243112845      27.106027776847174      1.2756039646830593
   351   1      32.592254473663267      28.917190314304605      2.7414809634997814
   352   1      30.663324196381755      28.696905538239168      4.1061586391722606
   353   1      30.760805005616081      30.471533620849382      54.242639926478404
   354   1      32.751126488547825      30.884306060912188       1.253169841080535
   355   1      32.576809582328963        32.8947586485952      2.4476060731693443
   356   1       30.67758111761729      32.601079754675517      3.8283072775541647
   357   1      30.961505965762328      34.406396577726035      54.035185165075944
   358   1      32.743311570792777      34.975800130559378        1.08928540973717
   359   1      32.219508885319613      36.649484028953886      2.5681205489802656