dump/Si_1400_0/steps_91 (written by ASE) 

4000 	 atoms 
1  atom types
0.0      38.395898218429522  xlo xhi
0.0      38.395898217999999  ylo yhi
0.0      54.299999999999997  zlo zhi


Atoms 

     1   1    0.025591167589457349      38.244190384851848      54.131062996749968
     2   1       1.814521365223589     0.17175423049485922      1.4465508608564379
     3   1      2.1597339187359554      2.1148919513655504      2.5901997800365413
     4   1     0.12371772948374124      1.9661419343025675      4.0663073787242308
     5   1      38.252814383411398      3.7827543570856688    0.010850318229404356
     6   1      1.8246939298150062      4.1643855679064297       1.374228055747484
     7   1        2.36978464761473      5.9830215773716988      2.7535681988872751
     8   1      36.458705687014387      3.9884939052154933      6.3969120078344979
     9   1     0.20482187105806593      7.9943356537351011    0.017763592652431697
    10   1      2.2808412315531545      7.6557812575905126      1.1765234086196537
    11   1      2.0714386220349494      9.6273801829122192      2.5800440489990364
    12   1    0.071941858030059536      9.3901442758642375       4.056707171987421
    13   1     0.14106594664211272      11.442405272977746    0.042214249178266536
    14   1      1.8923645975138306      11.763877983173467      1.4564333247248773
    15   1      1.8680650133274115      13.898013292249216      2.6642358972783553
    16   1     0.22340823423491171      13.394281462620272      4.1034089159124632
    17   1     0.20795992195655708      15.393600326227594       54.15990368655369
    18   1      1.8490618992408518      15.820591237718521      1.4092728614301919
    19   1      1.7690370118546128      17.610134985724795      2.9476132059495308
    20   1      38.205027560428903      17.545720890951127      4.1892201122980595
    21   1      38.353388440732239      19.457019269389985  1.6741810566145431e-05
    22   1      1.8352241750693061      19.608327714736987      1.3252813136578301
    23   1      1.7753162002327239      21.259234172944261      3.1006468788220674
    24   1      38.218391549919815      21.471634860029553      4.2725990524798245
    25   1     0.18448114220554196      22.873168563507793     0.21560703514987811
    26   1      2.1284132708202148      23.001903651110496      1.7127706336129236
    27   1      2.4420155598130804      25.159348526004955      2.5718617348937514
    28   1     0.33737370857795884      25.324081122696185      3.8004149109425471
    29   1    0.063345722146403383      26.747117224514511      53.949793856778804
    30   1      2.1729400036813828      26.921196969262436      1.3038521000333985
    31   1      1.6041958057464443      28.719740964393427      2.5752356506649083
    32   1      38.041130951643758      29.189212956549817      3.9781475588375441
    33   1    0.078759137750188821      30.877980140383631    0.090188345976514595
    34   1      1.9169961870801366      30.852951268766486      1.4051539789216141
    35   1      1.9273528599684095      32.648684970648389      2.7366990589950544
    36   1       38.31529824504873       32.81134895003489      4.1757213733139311
    37   1      38.124118674679764      34.717996333548356    0.017865268567913952
    38   1      1.4967879399480839      34.557703857506191      1.4519255811629472
    39   1      1.4634604791603698      36.579672489745974      2.6417068872195495
    40   1      38.087860091292811      36.788625757633277      3.9475999333301841
    41   1      3.6217189914824508     0.13673684091301161    0.073698252899180222
    42   1      5.4751127089029428     0.22637562952144241      1.4354039217725156
    43   1      5.7591397081763214      2.2922762752631018      2.8109959043375872
    44   1      3.7844321023510181      1.9249654688962172      3.9469087090234543
    45   1      3.8360731069364626      3.7776767733180159    0.039804745835135692
    46   1      5.8414061942631239      4.0542931189579239      1.2039669998729998
    47   1      5.9927000715519263      6.0163508997947357      2.6506101642282127
    48   1      4.1659508623478132      5.4673980809896516      4.1046618927430361
    49   1      3.9961596329303091      7.8702642614755698       54.23771683516069
    50   1      5.9800421855443888      7.7678359118328482      1.1234528761830096
    51   1      5.6628730814634229      9.5077286529522276      2.6608788372872909
    52   1      3.8340928622958574      9.4086947568383437      4.0197014542289953
    53   1      3.7964298242937011       11.72703835043464       0.277944289498532
    54   1      6.0150944204937069      11.548954096955919      1.6240613982158811
    55   1      5.8280575337468914      13.692038124974145       2.653828032468788
    56   1      3.6659062943292833      13.623218463346772      3.8329551291230941
    57   1      3.8749911716862679      15.692910995138062   0.0088073407820047842
    58   1      5.9881036238180041      15.498001873139648      1.3391483475902664
    59   1      6.0582874685831554      17.532468820633696      2.6906524590627421
    60   1      3.7572406994081797      17.438159729370529      3.8993576649713666
    61   1      3.9078783922925453      19.603848637989298      54.257393448996005
    62   1      5.8329198394289241       19.12185132328721      1.5575128757378587
    63   1       5.798456100534124      21.005936381697218      2.9393883632944142
    64   1      3.8888143488508344      21.705211082072218      4.1959547622226543
    65   1      3.9175683799366841      23.128372572633353     0.15234090632877748
    66   1      6.0776021423059881      22.891285308272497      1.1232394310234208
    67   1      6.3389588566628188      25.195811761164592      2.4742106744824448
    68   1      4.3715319628342222      24.963668696661387      3.7540495981787783
    69   1      3.7757636460391995      27.252253445156857       54.09482697359546
    70   1      5.9822608640480821        27.1726484019628       1.199974166289544
    71   1      5.7857752665152162      28.908380438311415      2.6407142060203217
    72   1      3.6772886969153475      28.625457206821686      4.0948868470407769
    73   1      3.9587139465929879      30.989954505828035      53.910568469062426
    74   1      5.5182191474871498      30.787715786859124      1.2650337873151696
    75   1      5.8967941295912301      32.519438979073321      2.5695363167732825
    76   1      3.7903879214845659      32.573624049902321      4.1482102762440691
    77   1      3.6355413165255093      34.785224879472018      0.3584113160852665
    78   1      5.9269658012083291      34.658078199957529       1.475209522928548
    79   1      5.4321835343877511      36.518334082538253      2.7613682233981871
    80   1      3.3698246325547148      36.378869019316895      3.8206482252790721
    81   1      7.7170767151964119      38.326474523721444     0.20160715330171139
    82   1      9.2773411820985157     0.45650594430863789      1.7698423238288228
    83   1      9.6253238912356291       2.312321737677832      3.0393274792654563
    84   1      7.6893590749653944      1.7529684102274519      4.1692048654492622
    85   1      7.8740092600998448      3.8192905309342899      54.293141215896448
    86   1      9.6458431261265076      4.2848860883558064      1.5398025678724616
    87   1      9.7427489105366831      6.3152156661839722      2.9146394729877669
    88   1      7.8521496594208307      5.9080335985054724      4.1193239667864407
    89   1      7.7178676943923641      7.7025510397077994      54.026676692941585
    90   1      9.5474185597717529      7.7788896616777601         1.1049093010899
    91   1      9.7453802681072776      9.5811557098958442      2.6386631387733481
    92   1       7.688403232837592      9.6436936092023355      4.1577004540469469
    93   1      7.8330409682157933       11.54041205632236     0.12368606032845268
    94   1      9.7651459731352919      11.469885416673772      1.4354398046924188
    95   1      9.6816187510840823      13.436353282260091       2.797327381191677
    96   1      7.7350554495560058      12.862328579741716      4.0750833327158293
    97   1      7.7880070050616652      15.408815645881074    0.010793350680739859
    98   1      9.7431146071490584      15.244102748229347      1.2465212097245966
    99   1      9.6888146389397143       17.34869933894737      2.5413538123783175
   100   1      7.7810355847219634      16.848232721315849      4.0892213410370353
   101   1      7.5656625525830998      19.218045729977081     0.15105266003340589
   102   1       9.565382437511655      19.257497985730705      1.4670227383372227
   103   1       9.648668315665418      21.303099923740614      2.5898561088345451
   104   1      7.8415170430410939      21.122588863143669      4.2167876015439241
   105   1      7.8822105949289325      22.954020416272893      53.791854523265961
   106   1      9.7578736198058564      23.033678854435752      1.0611271645675067
   107   1      10.115973925389293      24.701393673685221       2.546748975350658
   108   1      8.0086072887443134      24.880718002149916       3.845192834003639
   109   1      8.0513421011051172      27.283492806148619     0.17743823777282158
   110   1      10.033444942077358      26.685681786315097      1.3071652646180731
   111   1      9.4399614394669218      28.620274969657959      2.4002544797665899
   112   1      7.5979528158483109      28.546878429757928      3.9392579627949664
   113   1      7.6021332202434682      30.846131336566586      54.041974196282865
   114   1      9.4798376684424213      30.413781389704681      1.1441948235189574
   115   1      9.6126879651229764      32.381070145055524      2.5753108473382533
   116   1      7.8758374260583182      32.284340831099449      3.8169101259940912
   117   1       7.791917748399408      34.738013708124043   0.0059772145549800452
   118   1      9.5644174670563871      34.600809574812523      1.6193699665859054
   119   1      9.5764691438671967      36.732336618539193      2.7390652214884548
   120   1      7.6341736834275418      36.345529953906727      3.9511432834096238
   121   1      11.106858065193103     0.37745740408159695     0.16571475078147824
   122   1      13.112825704495336      38.358620037763991      1.0970290284416724
   123   1      13.522900901720057      1.9792143129353073      2.7218671871718016
   124   1      11.815332275099429      1.8613616262186843      4.0225727010234689
   125   1      11.463233213122709       3.736032592228602      54.258785857732882
   126   1      13.478243979854549      4.0444496439065825      1.4340490223826097
   127   1      13.614646628212418      6.0654524016859455      2.7188133050983563
   128   1      11.623225813253367      5.7855841690740615       4.048388400770742
   129   1      11.477667797516055      7.3334315470359517    0.035300597647085409
   130   1      13.434204052582521      7.9183607122736666      1.1907633354814353
   131   1      13.450546467128932      10.009289341773812      2.5798491730392792
   132   1      11.569506009394622      9.5480886959549505      3.8004750410129846
   133   1      11.582824218391909      11.466585500219304      54.198490800978036
   134   1      13.616311982403449      11.680080528153619     0.99934555608210585
   135   1      13.726611874322701      13.451222447951988      2.5067177849153732
   136   1      12.006019187059179      13.305491833972159      4.0358479480776159
   137   1      11.576228208209001      15.528624770815266      54.112254890019024
   138   1      13.297113632827486      15.508680413614019      1.5324265324703112
   139   1      13.333793389784176      17.554057471906454      2.7418991324706457
   140   1      11.418515945386053      17.121377528670813      4.0541854828144421
   141   1      11.533651696664753      19.126685639855825      53.938122230507851
   142   1      13.404844077755282      19.543703270639259      1.2660035066107731
   143   1      13.560312448440973      21.341614911879859      2.7018035656522899
   144   1      11.527181975449661      20.981127338380762      3.8180778904135884
   145   1      11.689913520213992      23.241091708683001     0.10553833755582206
   146   1        13.4953841570712      23.384061355660794      1.5783945723564199
   147   1      13.631005559551472       24.97421606430148      3.0727035650272803
   148   1      11.695020201435376      25.183322279090977       4.224714606978111
   149   1      12.154769827203737       26.89308013555647      54.262999438001685
   150   1      13.239893238670843      26.971102752074124      1.9046691301805718
   151   1      13.280066386971423      28.918643424360997      2.8250097380639225
   152   1      11.368555816557059      28.914103536037505      4.0654447375011298
   153   1      11.712319997163819      31.195843337538925        0.34123187793914
   154   1      13.733724693958804      31.014690243197112      1.5943833468805793
   155   1      13.405045690961231      32.842895349711576      3.4406587975557712
   156   1       11.27086246705918      32.754969558813812      4.4798056074137342
   157   1       11.23544196455353      34.595538176179026      54.202753988112029
   158   1      13.213409137911535      34.478190405523371      1.4949209191049142
   159   1      13.823459920149645       36.57774732801353      2.6311233439455339
   160   1      11.645711840791495       36.43672121513778      3.9318438337529078
   161   1      15.081520933679887      38.060312022183915      54.254991730373135
   162   1      17.171257087959368     0.23697319268060227      1.1148428297408819
   163   1      17.053885772008925      2.1855552644260814      2.7084622476739013
   164   1      15.347518283399179      2.1990061426427916      4.1130139419393705
   165   1      15.265715995185206      3.6811022474144055      54.116068273960806
   166   1      17.307207534303114      3.6977423101715021      1.1283975923118639
   167   1      17.347718177862394      5.6369763680497575      2.4651465057627791
   168   1      15.398601155064348      5.4087416516489819      4.2732648923297365
   169   1      15.219648372782428      7.7553872973737041      54.228233472420335
   170   1      19.281470268244139      9.5515641213120777      52.991720909101936
   171   1       17.31242750724283      9.6562235807891188      2.4186085940021607
   172   1      15.457895474720008      9.9765871598308209      3.8798687317397471
   173   1      15.464253583129063      11.555789212285674      54.040290836718867
   174   1      17.133685940684735      11.587606737194935      1.4602359078867719
   175   1      17.525330742782945      13.617310123574311      2.7590498018414449
   176   1      15.380231765167299      13.715347339035009      3.8705232631534936
   177   1      15.483057980420542       15.57070503575223     0.15666408962424636
   178   1      17.348557712270139      15.418655135540581      1.3287210052260436
   179   1      17.378056132407195      16.941895579538887      2.8983696928300304
   180   1      15.406553753545548      17.527718464486522      4.1242973717415667
   181   1      15.494099840020594      19.395543403696884    0.094494179062155653
   182   1      17.122368408648946       18.88089322258686      1.6402921677364155
   183   1      17.057288263679506      20.866685744688802      2.6825022212752612
   184   1      15.349164937697829      21.294640967678291      4.2848902012553349
   185   1      15.292921732772518      22.957530136094238     0.25714411561543782
   186   1      17.452080760697552      22.818480238012945      1.5680486102688418
   187   1      17.084792259824553      24.814974171504112      2.6397097715634672
   188   1      15.426014558516671      24.819537574696316      4.5447993331662797
   189   1      14.881351054494317      26.774523341876254     0.16023337214887745
   190   1      17.551948854351629      26.434432225824434      1.2195912935205233
   191   1      17.351014196222831      28.513761828623824      2.7054828319292392
   192   1      15.463445101769677      28.975145727348586      4.2350279087512712
   193   1      15.464823766310452      30.739253542556366     0.27127720646805065
   194   1      17.665763764080914      30.440595785554855      1.6681813427381615
   195   1      17.626785190135088      32.770000557711882      2.5543235165020057
   196   1      15.596968599417249      32.916135562256102      4.0229483698350226
   197   1      14.829352838014985      34.201126849667432      54.058031393222656
   198   1      16.867789459306334      34.585970354553297      1.2078638910010431
   199   1      17.489987647584357      36.612267547611076      2.1289292253627079
   200   1      15.596326666877395      36.612838967641494      3.9301565768994791
   201   1       19.17751185227031       38.27772165198683       54.11244949142592
   202   1      21.171920957305129      37.876471246092471      1.2195568821236971
   203   1      20.858409230925009      1.4907108060062029      2.5620242670198192
   204   1      19.013710353966729      2.1663584893221293      4.1343580782716218
   205   1      19.450371074773852      3.6803654130691794      54.119442549709511
   206   1      21.242041043548777      3.6871587766972409      1.3073753134955057
   207   1      21.134584646878466      5.5327609971339209      2.9278882525597165
   208   1      19.088598892175767      5.5579744607019359      3.9704955956315096
   209   1       17.32595102380305      7.6192404929532067      1.2056335824114373
   210   1      21.335416150947296      7.1216328511039739      1.4046227156549689
   211   1      21.484996909721051      9.2157566157517454      2.6555697907102309
   212   1      19.274149327597517      9.3170997332954091      3.9053588602355935
   213   1      18.887782933056233      11.403308724574313    0.011185174917216038
   214   1      20.840047457866863       11.46403523905286      1.5737506627554263
   215   1      20.828414752679663      13.733141241860235      2.7342391221218132
   216   1      19.211609033648656      13.568855361394474      4.5070574034959936
   217   1      19.093291511813135      15.411108664932629   0.0099922139900059138
   218   1      21.184413874269449      15.482930688566105      1.3706110826039097
   219   1      21.287974922400284      17.408175056258671      2.6370123558368515
   220   1      19.395178360094718      17.381800717573984      4.2032419950685354
   221   1      19.023252061790746      19.088181315453401    0.017912560404613465
   222   1      21.105504394709335      19.328118066143677      1.4227394290416564
   223   1      21.079184968121464      21.326836203723865      2.5305940156684406
   224   1      19.068690765704506      21.229364289996351      4.0709240110988301
   225   1      19.051614924190172      23.371831561934965      54.086734854484725
   226   1      20.651413173898934      23.084865489511976      1.2748999822336282
   227   1      20.967807919797878      25.064558495543874      2.6164556273485351
   228   1      19.151830093000839      24.960968824923597      4.1891785078693937
   229   1      19.244134450105644      26.975860152096079      54.189473892800052
   230   1      21.208164378774466      27.015055563994196      1.1063917831723291
   231   1      21.007118313039015      28.730854575656643      2.8188751968861219
   232   1      18.892196226317481      28.969629048616213      4.0520312812963315
   233   1      19.125374912537289       30.74788109490537      54.152458721401111
   234   1      20.981580592371891      30.582288699515974      1.4179876966709133
   235   1      23.212134472591465      32.861063840721883      3.9944464691062418
   236   1      21.325519305201425      32.436854019687523      2.8135440257499913
   237   1      18.925912833127089      34.690554199084765      54.166230406023416
   238   1      20.909890460863128      34.386816655738713      1.4361715514271829
   239   1      21.313795834157641      36.185079615505664       2.950637436067121
   240   1      19.171485933959431      36.375156627432204      3.6762224005985109
   241   1      23.237036812082692      38.338797911509864      53.907136981871389
   242   1      24.909199996392953      38.219858457895931      1.0660139163309839
   243   1      25.041792998551092      3.7437186063071652      1.1497176281440158
   244   1      25.149486607548234        1.81502236901417      2.5294511599437799
   245   1      22.921639597251716      3.9225596320206049      54.238990904762467
   246   1       25.07492904992699      5.5572077020467772      2.6015277182619352
   247   1      27.037520982281457      5.7684401295137961      3.8754943246217044
   248   1      23.312778966075996      5.8953648427106318       3.944579314334296
   249   1      23.307960293823943      7.6658804696936631      54.235625637292209
   250   1      24.951534889740721      7.8225123813488295      1.3602458348616231
   251   1      24.824832647073713      9.6291117438873783      2.6885453090588403
   252   1      23.113043153346489      9.5770289935254329      4.2075993460060435
   253   1      22.789441966759423      11.658032644598011     0.22081908443295772
   254   1       24.98880455179577      11.578189797238304      1.4214030057844984
   255   1      25.085911992434422      13.456194915770475      3.0249408451274453
   256   1      23.002322140887031      13.597083542149965      4.0352516518715422
   257   1      23.220050666397206      15.478146634730475      0.2860063464878066
   258   1      25.170631657999699      15.333570137776203      1.2601319927279278
   259   1      24.896018181628349      17.441147335634593      2.3557539944173986
   260   1      23.179311711809301      17.526673991157974      3.8268536844700418
   261   1      22.790315465450249      19.450996372799164       54.22030801608777
   262   1      24.989674253326971      19.451995445802311      1.1879689450917679
   263   1      25.152651678313998       21.19184397948867      2.6293987506810255
   264   1      23.088541860903881      21.386659912515238       3.775747479342987
   265   1      22.811637485526749      22.668861825638142     0.43990283783440415
   266   1      25.162188609417541      23.350792632913706      1.4699930661383633
   267   1      25.057437532240602      25.346874814434585      2.5586644133986196
   268   1       23.07924568034861      25.039150846049619      3.8722000330506705
   269   1      22.905168052021466      27.027716693325043      53.841576445639909
   270   1      24.831507835627789      27.093609920307067     0.88678538085873593
   271   1      24.585547836228088      28.918415638620754      2.7222065498662218
   272   1      22.886995797475731      28.989538495353528      4.2637217192626853
   273   1      22.907959709200405      30.595751633825575      54.118645238980015
   274   1      24.790366429927985      30.910049288985363       1.450563496482389
   275   1       24.90202287810996      32.917103636997389      2.5847771478267294
   276   1      22.827268974085904      30.967565048780379      5.3748465482040961
   277   1      23.041479410181619       34.53688655829199      54.257720497422078
   278   1      25.031399567343822      34.552418880784423      1.1424087526619022
   279   1      24.981962927657435      36.525003156173632      2.4410229182228353
   280   1      23.319707679030319      34.780338707617403       5.622128766685786
   281   1      26.846423083550576      38.211347653891906      54.073174590590497
   282   1      28.907165880251412    0.086160838023095057      1.1042917959763052
   283   1      28.854891685150214      2.2002261950212856      2.6315867335287852
   284   1      26.935918993842691      2.1239995057674026      3.9501607384797692
   285   1       27.00356111085696      4.0025510778794819      54.079339394160577
   286   1       29.00077621373029      3.7232641204203651      1.0761772487880645
   287   1      28.674759465595834       5.856290012994986      2.2314796922050966
   288   1      24.552138090653045      3.7283678721171314      6.9345155745662233
   289   1      26.584770694151437      7.4404041754062229      53.990481042475018
   290   1      28.537114757149144      7.7447923362250153      1.0586862609517083
   291   1      28.635422896044545      9.5531294363581694       2.641217903395785
   292   1      27.049530637308269      9.4971435526441912      4.2609689825452621
   293   1      27.038585679955361      11.288579821478381     0.21069619938724621
   294   1      29.019427674792265      11.566621342310878      1.2479959870481583
   295   1      28.965582505076934      13.425264562856412       2.749736264428825
   296   1      27.060238385455413      13.748418519476083      4.1642764935216414
   297   1       27.22982136016784      15.336250689575476    0.080239792508984831
   298   1      28.973364615416088      15.424273245389767      1.3296865245079854
   299   1      28.980381222740903       17.53291781095399      2.1261600605071163
   300   1      26.788500619499761      17.568547125331076      3.7133630418367365
   301   1       26.70453705053335      19.403932131060394      53.935721297137036
   302   1      28.953381469011507      19.456322071999939     0.52933749453375156
   303   1      29.185722161366286      20.718372745296634      2.4370895049652086
   304   1      26.968647909118936      21.010873397411697       4.041917139915042
   305   1      26.946368664358282      23.248084528175756      54.275977586846643
   306   1      28.835253079900113      22.884825173782435      1.2301963225636976
   307   1      29.170618631838114      24.956998991490881      2.6074758668084108
   308   1      27.062860077707249      24.829932961952135      3.8228353327986033
   309   1      26.820103535870249      27.133173340312592      54.004266230795352
   310   1      28.824047997880694      26.907678669617866      1.3784911390915322
   311   1      28.889611193499015      29.020732584694574      2.6601523688875988
   312   1      26.599062943849319      28.639271852591559        3.70104886968493
   313   1       26.70112597721711      30.926532445333521      54.290165247477013
   314   1      28.727264882458424      30.894301525274436      1.0765266437211702
   315   1      28.672521935743582      32.678138356286311      2.7320420124455733
   316   1      26.974300450736887      32.586472779167003      3.8268014678495099
   317   1      26.698893086401117       34.46504875068895      54.051219552299898
   318   1      28.608354673252549      34.393093855430209      0.9646471981441338
   319   1       29.06423917220803      36.533519038655918      2.2272519756771318
   320   1      27.206249818976836      36.538230806905645      3.8123745038007311
   321   1       30.84417345197933     0.12388762880185637      53.973952483270253
   322   1      32.611054939279889     0.17596494253497835      1.2749101573200516
   323   1      32.368033072941508      1.8434072899421527      2.5784576190985815
   324   1      30.739830043270654      2.2278056669257973      4.1247907571029581
   325   1      30.928332726776489      4.3514105623982609      54.102850353355635
   326   1      32.709242253126973      3.8591882340200852      1.4144332437293534
   327   1      32.578484501052735      6.1263257785466259      2.5309225827530226
   328   1      30.563833539268096      5.9194096538660688      3.8182591427054495
   329   1      30.639109569323768      7.9921448644667752       54.00002741042065
   330   1      32.715481333943266      7.8738824702612504      1.0238498764538577
   331   1      32.773626713111618      9.5587913101802755      2.6384825064616617
   332   1      30.714831542199409      9.7816814357199693      3.7317596126426777
   333   1      30.729987498738041      11.675205069300485      54.202538865577978
   334   1      32.768779879241457      11.410763998402189      1.2187759182622608
   335   1      32.453594973039571      13.558476681957142      2.4976567659821765
   336   1      30.861055398536795      13.479908321421014      4.1590452815971179
   337   1      30.957405269640631      15.501293745555156      54.176644343494708
   338   1      32.639106740368163      15.425129372246195      1.2498585653639802
   339   1      32.807062812761451      17.368629885469936      2.6182319095982276
   340   1      30.691600201049642      17.400020851128016      3.5695822357196687
   341   1      30.890216532534421      19.681220839335179      53.912609338360554
   342   1      32.513751635326138      19.220912032960246       1.262575133318329
   343   1      32.623514730472266      21.249620890152254      2.4761419129776083
   344   1      30.788206978997525      21.029439318821304      3.9687195321721989
   345   1       30.80405965914612      23.559145198659781    0.081491710969919764
   346   1       32.74538398884529       23.26319209798249      1.5912024609072217
   347   1      32.651651496991391      25.277290898213892      2.5586420356397777
   348   1      30.946911211744837      25.046244600486084      4.3253908895209721
   349   1       30.46285549126603      27.283719436527651      54.193973646966342
   350   1      32.684537029099609      27.132175315572749       1.016648509982665
   351   1      32.497008579502797      28.975845039751455      2.6073139523841391
   352   1      30.832493109737214      28.907845849999362      3.9710294181197248
   353   1      30.703702678597427      30.909798214772749      53.766007392080645
   354   1       32.34178381596201      31.054128808482766      1.1739494103578523
   355   1      32.698772589948547      32.740697099272815      2.8029740066936917
   356   1      30.570401124149839      32.662193318662482      3.8516088633181327
   357   1      30.689214618821275      34.762343501255721       54.25088216068832
   358   1      32.532409597933118      34.371324146329194      1.3213190260632344
   359   1      32.577445260415168      36.464691399059859      2.7285902207664119