dump/S5_s00_n130_r1024_400_5/steps_11 (written by ASE) 

1579 	 atoms 
1  atom types
0.0           114.158223526  xlo xhi
0.0      7.2199999999999998  ylo yhi
0.0      22.831644699999995  zlo zhi


Atoms 

     1   1        2.21228597825659      1.8719109795198225      4.4267557643943718
     2   1      2.2615864025339953      5.1853238938950392      4.3740588632644428
     3   1      7.9161966717510008      1.9255354353213363      4.4298574262991837
     4   1      7.8481891973914841      5.2665041000278121      4.4063289758810749
     5   1      13.740959663472173      1.7282887165710543      4.3280394814552672
     6   1      13.662199006698792      5.5200889874795909      4.4207734503332317
     7   1      19.287502932554549      1.9161408598503484      4.4928390245474565
     8   1      19.185093482336853      5.5028099277560676      4.4299565868394009
     9   1      24.928419225783038      1.8453677155380577      4.4766034760331754
    10   1      25.224031959347464      5.4152706927443175      4.5886099714184896
    11   1      30.808051252078627      1.5893425005229953      4.5734745922829019
    12   1       30.79231221556941      5.2974183969964939      4.6695571653506356
    13   1      36.518809069067181      1.7355700155817906      4.6646487372455274
    14   1      36.344860877330582       5.551382694538546      4.5694478194288628
    15   1      42.238172516336526      1.5362933641590701      4.6198322059674943
    16   1       42.26441457230608      5.3897976200965214      4.4709501710766588
    17   1      47.906196293067495      1.7707528271574671      4.6613705995706693
    18   1      47.862275507928317      5.2971957510735308      4.5981780788232411
    19   1      53.566167183650251      1.8699929419217307      4.4287516488441554
    20   1      53.662737746452372      5.3029709255580295       4.496593214690165
    21   1      1.9578552557336224      1.8241299285956836      10.018703585635873
    22   1      2.0207271917243057      5.4919160381578536      10.061614049584808
    23   1      7.9279228020980259      1.9187335663252323      10.040203004697286
    24   1      8.0182054973164814      5.3957099079621811      10.097252799852164
    25   1       13.58796522094169      1.8047683836042683       10.24624199087126
    26   1      13.700395969282665      5.4145284554183659      10.178363391144646
    27   1      19.387649373899464      1.7538723891402055       10.03702981903775
    28   1      19.456614460775121      5.3284080939572895      10.221352906906519
    29   1       24.99674241616626      1.8575782971834458      10.090599867502405
    30   1      24.922917591833034      5.3098961010075607       10.07741282834014
    31   1      30.821967099327455       1.552241827139925      10.315709493349974
    32   1      30.807587918729471      5.3003976284746397      10.282308915408919
    33   1      36.625652024825868      1.6756410743619725       10.35017437824307
    34   1      36.503891263804867      5.2216724684295075      10.324407541694336
    35   1      42.116394709360137      1.7808158708942901      10.281152958994104
    36   1       42.23259060356726      5.3427521823858433      10.232779039482937
    37   1      48.014045121091137      2.0224093419777418      10.311174781652925
    38   1      48.009395336439454      5.3477488780771472      10.112814991337313
    39   1      53.909497085685992      1.7123307657150113      10.139048414318095
    40   1      53.728975679677539      5.5635596509072496      10.215332602888081
    41   1      2.0411016898526411      1.7813357555980609      15.763002049799072
    42   1      2.2191625297448883      5.3603507098005574      15.738166954798846
    43   1       7.882416734035095      1.9064768274789636      15.893139183184998
    44   1      7.8492574334683693       5.454238399778208      15.862433844080682
    45   1      13.663593015427706       1.846206270783195      15.908604353797907
    46   1      13.649587925944511      5.5779757528594978      15.969017231164521
    47   1      19.435036111201327       2.020283142431202      15.617386738893131
    48   1      19.459048546876268      5.2928939003126594      15.915253425758655
    49   1      25.014166661053835      1.8321319664408768      15.832471078864438
    50   1      25.060594797893373      5.4941905452275028      15.837232276150514
    51   1      30.856783514381377      1.6358211106493223      15.910122713681245
    52   1      30.660496750845496       5.354645702523233      16.044406181153413
    53   1      36.405528985594835      1.8140603611202111      15.942033121710944
    54   1      36.480795245446309      5.4506633795056008       16.06044439723944
    55   1      42.440323225337117      1.7200266196083747      15.940678462277676
    56   1      42.259114612675653      5.3606649455982254      15.943385204128742
    57   1      47.816042123425824      1.8722068225209527      15.928907558474361
    58   1      47.974770022411079      5.3633252695497884       15.92412945003591
    59   1      53.778568634203275       1.712246318123519      16.031323033083392
    60   1      53.895277051740109      5.1811595624825477      16.029558668181068
    61   1      1.9665465507709947      1.7299768424855422      21.551157379943469
    62   1      2.0876447379415741      5.4137127196013042      21.550900850358794
    63   1      7.9108703463273322      1.8262987206502594      21.702162801112763
    64   1      7.9528040402965328      5.4420091564852502      21.512040187150632
    65   1      13.585319418895583      1.8409766633313751       21.59370647495173
    66   1      13.764655175986926      5.3384177164924358      21.637691094091284
    67   1      19.306441048377664      1.8197982662209558      21.806547208317824
    68   1      19.201998639035665      5.4084157362365408      21.676707456894871
    69   1       25.05851379567979      1.7952796253341485      21.717942125230962
    70   1       25.01896324554172       5.371115115815571      21.818872956179494
    71   1      30.961654413329796      1.7848738567443263      21.692197161483211
    72   1      30.831829255276151       5.358337774148251      21.628472183011084
    73   1      36.686059407705507      1.8634775896888849      21.850291984142487
    74   1      36.650170047364199      5.4420692578679226      21.693280801502183
    75   1      42.280788438850927      1.7517557239058585      21.660995648106859
    76   1      42.282796400145358      5.3463130995726669      21.789614031765023
    77   1      48.053566226765618      1.7759861192163866      21.713861172460295
    78   1      47.967500260818028      5.3207397794629188      21.699518979618819
    79   1      53.704602546921841      1.5786518795511033      21.664720961809213
    80   1      53.886508624871681      5.3136392701991824      21.771122816525249
    81   1   0.0020731035888617091      1.9050609513006016     0.12317021804219229
    82   1      114.07991061652859      5.3226883989855631      22.756967945144169
    83   1      5.7304517206028258      1.8538103614695223       22.72456769464776
    84   1      5.5674368144400379      5.5162177259264249      22.514135420021088
    85   1      11.261050763297963      1.8166353561874777    0.054690709341845167
    86   1      11.334957478392575      5.4827309141016984      22.770779109001651
    87   1      16.903366010501991       1.663840656214445      22.806010282938637
    88   1      16.921188755418328      5.2860049684784531      22.728806198750732
    89   1      22.574399515176111      1.7589021996121448      22.601548357643214
    90   1      22.671805259183888      5.3142110179086899      22.747842963025381
    91   1      28.636784641536554      1.7873545056284399      22.700845181921036
    92   1      28.608833763246505      5.4210503408621058    0.072649476071511995
    93   1      34.327450721784217      1.8202483590961325      22.778820425026783
    94   1      34.184350465615871      5.4291304522315595      22.704810294270899
    95   1       40.04675374775384      1.6588202564089924     0.13184316118474995
    96   1      40.035825668446009      5.5883382940279658      22.750235476779732
    97   1      45.880633604250725      1.7792757447795182      22.774839033413993
    98   1       45.60253895078538      5.3855274709639858    0.048616009105426745
    99   1      51.595357125201318      1.6297056038209923      22.673889986832968
   100   1      51.548846433241941      5.5258621690788337      22.687495655577415
   101   1      0.1051971560799341       1.684802805121854      5.6061710373953879
   102   1      114.09671389182819      5.4180750214851434      5.4707445594383541
   103   1      5.5899635704597399      1.6676597031156435      5.4995346979955579
   104   1      5.5093635413839932      5.4556070883709751      5.4331145591716057
   105   1      11.495886713506705      1.8926059517028255       5.735201525099634
   106   1      11.242281278633392      5.3565535195839464       5.531682923759127
   107   1      17.001253020231193      1.7917690328307865      5.5876430925794809
   108   1      17.099412644157201      5.4146589730537142      5.6314768454818172
   109   1      22.721870981469035      2.0077416554706717      5.7347525143108502
   110   1      22.854643053839347      5.3682524012119215      5.6402461884726227
   111   1      28.465705360209679      1.6845859332589488      5.5336927152978657
   112   1       28.44351502117912      5.2520061303845704      5.6778727092137968
   113   1      34.341186537279626      1.7096334096185339      5.9103719019650258
   114   1       34.04862136029022      5.2275758894507911      5.7877638787144727
   115   1      40.008954643552251      1.7767478759752862      5.7722661056935332
   116   1      40.042927748450026      5.4151893326576257       5.745659209128462
   117   1       45.73880464527376      1.6796733097157301      5.7890298853066229
   118   1      45.587482012714077      5.3699953023108362      5.6514521066697077
   119   1       51.40588286331964      1.7708748653429849      5.7725240728208176
   120   1      51.355805644361283      5.4122788701880253      5.6498820532630001
   121   1      114.11572189006399       1.705373272144644      11.244563481145807
   122   1      114.12765090505322        5.44869120098795      11.359034406495811
   123   1       5.559430512401053      2.0693721292045359      11.247619660782489
   124   1      5.5582077489951054      5.2852592156209681      11.098122264455382
   125   1      11.177836742724345      1.8169721274722386      11.463888978843791
   126   1      11.347077636839842      5.5584020123076998      11.165854296662474
   127   1      17.092828701357952      1.7105799385221971      11.156226815238366
   128   1      16.844653440906729       5.403698037010253      11.304311557144143
   129   1      22.854314008322778      1.5685773316547584      11.211350279840744
   130   1      22.897726323459018      5.4463710893067185      11.315428410911919
   131   1      28.387020991419099        1.86469425976786      11.328952808715885
   132   1      28.494232306924964       5.325799517188976      11.420515621377366
   133   1      34.175966257754268      1.7557961901129362      11.409755629380536
   134   1      34.296922810927335       5.198046269126289      11.343616299687765
   135   1      39.838547704092925      1.6738202695572144      11.359457525948978
   136   1      40.023877168498529      5.3060124640185204      11.428546458332205
   137   1      45.832861137515977      1.8330408369828808      11.489718458878656
   138   1      45.836891327110223      5.1781751681146551      11.426529234670756
   139   1       51.61929875454566      1.8731572392394007      11.482567775280732
   140   1      51.576459338472119       5.442935492157984      11.374221249703824
   141   1    0.019871627724359693      1.9649460646757293      16.850137113995782
   142   1    0.057114460788023194      5.4712290132089461      16.817931768157255
   143   1      5.6991641539837117       1.740004301588419      16.980624222229608
   144   1      5.4826910451842821       5.346442987443691      16.822600445910957
   145   1      11.100845752818968      1.8588293709849362      17.019939138777193
   146   1      11.242311790340553      5.2647428866161334      16.976910333321442
   147   1      17.117610490080612      1.8490854292726722      16.883954056915577
   148   1      17.119910304208613       5.225485060002387      17.017789967247662
   149   1      22.931568956582041      1.6772288556426791      16.989391030856758
   150   1      22.829920386095779      5.2707231969743624      17.089316156937038
   151   1      28.572909494076384      1.7532041920713113      16.977217448226472
   152   1      28.366389982643923      5.4349849140222615      17.003425954374929
   153   1      34.298260640582434      1.7261087326908875      17.072352327621282
   154   1      34.071218129161018        5.41605256591534      17.074938651566754
   155   1      40.118188243372174      1.7412520192589642      17.132774879802817
   156   1      39.958701484466289      5.5345730216868567      17.121705946012323
   157   1      45.711900845194499      1.9927912325264341      17.076419986898269
   158   1      45.772746638737743      5.4394943356754295      17.071662333728113
   159   1      51.278431218558957      1.8624469653907358      17.100059710307946
   160   1      51.450037395202422      5.3852391452068291      17.025116135580618
   161   1      1.3101455284841337      1.7144316272973956      2.0736470729473386
   162   1       1.201087087849287      5.2794058898708087      2.1537577103855616
   163   1      6.7739219139195628      1.8075215896277748      2.1057912342305389
   164   1      6.7927447350107357      5.3626410261570934      2.1125393933963919
   165   1      12.287241453816794      1.8838063628965687      2.2698659395726435
   166   1       12.39154178889882      5.3960763452590061      2.3572606695932237
   167   1       18.16375100955289      1.7754866099456514      2.1829725178529085
   168   1      18.126081408906778      5.5349815424977749       2.244795665988883
   169   1      23.848337759493766      1.8194395609739655      2.2533134816941929
   170   1      23.907963366820493      5.4928392856001835      2.2899282486650785
   171   1      29.806495747820165      1.7934488664265698      2.4719034734742587
   172   1      29.757541330759555      5.3084395068385648      2.4489089975688842
   173   1      35.502218258310926      1.8408456502258923      2.2208624457755861
   174   1      35.468235782804072      5.5206978389980756      2.1535680803580703
   175   1      41.008287420440183      1.6075855094223315      2.4640647844644428
   176   1      41.110418483770921      5.3760170947223154      2.3150837387353453
   177   1      46.842380581735853      1.7675234881603343      2.3333778851540958
   178   1      46.773289479284209      5.2937711768201012       2.422558614648529
   179   1       52.63597192953722       1.705813812723481      2.0674895293042721
   180   1       52.40333379125525      5.3141845827377603       2.119147147959012
   181   1      1.1324662444411182         1.8258139859494      7.6861001552240218
   182   1       1.076862564094927      5.4837203652790567       7.813237960836358
   183   1      6.6445172747533903      1.8918996167711697      7.7531566309093405
   184   1      6.8880146201667305      5.2833743612360138      7.9578532491965879
   185   1       12.57861497177392      1.7740216703805141      7.9749537373845412
   186   1      12.441635527516873       5.488780265323717      7.8030140243064405
   187   1      18.205949787988938      1.8731479952648291      7.8435403707807234
   188   1      18.101386003872946      5.4345436012391026      7.8460710790865003
   189   1      23.891312754687739      1.9514496906565912      8.0274291433391127
   190   1      23.915797752857504      5.3828917862724879      7.8915016882845341
   191   1      29.788187784009022       1.633967696222181      7.9334449814060601
   192   1       29.48277877407379      5.2167708301683744      7.8430500479434793
   193   1      35.486314275256923      1.7402514846993307      8.0798501209155233
   194   1      35.424066540811232      5.2630246434443544      7.9687586306867635
   195   1      41.121328235634337      1.5442994588527645      8.0721600008199381
   196   1      41.213504195039498      5.2239408613270006      7.8667450629821163
   197   1      46.764063573857527       1.805020709572023      8.0391066054300602
   198   1      46.823196160314055      5.3505167680562158      8.0327029599499866
   199   1      52.555812557653589      1.8051021544911729      7.9133302133386811
   200   1      52.750810162188891      5.6147388251459525      7.8653159591784663
   201   1       1.197982455647262      1.8442811702800221      13.506358223496012
   202   1      1.1921478836808508      5.3966542967404409       13.57857814000262
   203   1      6.7435137768610796      1.8974821284082624      13.532754456725364
   204   1      6.8612300377922626       5.495563297221369      13.493515135613221
   205   1      12.518941135937096      1.8425390156872317      13.724021553540883
   206   1      12.371296972336282      5.3005346708032519      13.535914917041692
   207   1      18.237311584792518      1.9387414038537742      13.544085155565035
   208   1      18.341672403638771        5.35805768215093      13.619424391569842
   209   1      23.882571594785784        1.74641214634359      13.597499417632887
   210   1      23.982967630440438      5.3710042283580544       13.55441213955179
   211   1      29.591798768530854      1.8539462654634067      13.603266595487579
   212   1      29.586196750188094      5.3562137658099642       13.70144057973385
   213   1      35.488383500388402      1.6122076594666235      13.710545195771113
   214   1      35.319721517540202      5.2528568442708803      13.675926657880668
   215   1      41.206772604338013      1.8246761301714916      13.734264419422155
   216   1      41.150558966857098      5.2579791067967347      13.655766493409489
   217   1      47.031369126758946      1.8443686470087031       13.63646793736077
   218   1      46.830519419212628      5.4407068093986917      13.598606529056001
   219   1      52.842856179709685      1.7264921040937178      13.716908283581258
   220   1      52.514599386847124       5.302142590778848       13.73514626805488
   221   1      1.1445351995601347      1.8284534694961507      19.136779621228015
   222   1      1.5149942656650277       3.614705396322079      17.626795659803165
   223   1      6.8398534814709739      1.7707629824183901      19.261892657034132
   224   1      6.8245968672821853      5.3566947417837678      19.210697530397969
   225   1      12.534043976069656      1.8660434546012634      19.222913754017018
   226   1      12.375610498476837       5.561625073696133      19.257872127496888
   227   1      18.052920774130005       1.722401794556873       19.47961859040776
   228   1      18.175599143614626      5.3934113094068294      19.294596529114099
   229   1      23.986121937219398      1.7067678623850462      19.465115115973116
   230   1      24.088263209880918       5.318398650272858      19.388848565321428
   231   1      29.521872483848075      1.7249936502849046      19.398349387900755
   232   1      29.719971925321808      5.2767317115875594      19.349152562344187
   233   1      35.553160641888049      1.6073877397971794      19.386480950232411
   234   1      35.504644480504361      5.5139590221048937      19.386976646246769
   235   1      41.191637009759468       1.763896717851301      19.295736617309121
   236   1      41.052079299608963      5.3958621937978313      19.467433713664228
   237   1      46.876220652828131       1.858487530056284      19.315888956090994
   238   1      46.943834032028683      5.5264605075931152      19.379789070317226
   239   1      52.787494303378466      1.6461021010097019      19.329679680666821
   240   1      52.664635537891769      5.1973639157045604      19.297554565622619
   241   1       3.369703116961198      1.7909860321163424     0.76554562675786997
   242   1      3.3713216634952481      5.2998675530850372        0.92312596133058
   243   1      9.0164211055453638      1.7863970154171616      1.0838388545992157
   244   1      9.0754974292569575      5.5502316182226803      1.0544201988454116
   245   1       14.60673739724038      1.6962360345554679      1.0292220930784615
   246   1      14.633240677622746      5.4578732554930784      1.0925839919807923
   247   1      20.512814741666801      1.8470637286289544      1.2445793723784675
   248   1       20.27641863747068      5.3995331626391492      1.2150196255842372
   249   1      26.262283846123839      1.8073858002276004      1.3123208820552379
   250   1      26.182517128225438      5.4880022031560651      1.2417006369179129
   251   1      32.071606476829139      1.6467187249557484      1.2900413338380101
   252   1      32.093837676310457      5.4838623439382532      1.0641136045628972
   253   1      37.834323173737772      1.8231864235784334      1.2179689958802795
   254   1       37.82897672923022       5.371326963429147      1.2096316015909927
   255   1      43.487095653990536      1.6852507325805581      1.0342689529002185
   256   1      43.287917231858543      5.3192903068522641      1.0242325894949809
   257   1      49.158052635956437      1.7353907477423258      1.3160512685418826
   258   1      49.073377875778128      5.2138403949784058      1.1967579882025323
   259   1      54.972543160005017      1.8333651827708357      1.2035066191862356
   260   1      54.894794981795307       5.332478943278355      1.1741781983034183
   261   1      3.3582481038562784      1.7233934016103321      6.6125832854868403
   262   1      3.3930070259404372      5.3509507532677869      6.6096538880847033
   263   1      8.8126212057042839      1.8666910924557538      6.7493490983489828
   264   1      8.8536396696497395      5.3388344335731031      6.5614197641420757
   265   1      14.644142144562888      1.9689944522808038      6.6292537861482836
   266   1      14.787898454406777      5.5685319185836333      6.8240584414509406
   267   1      20.598266157424757      1.8195533173817344       6.627578705727335
   268   1      20.380385228584569      5.3941994253879164      6.7801839933139902
   269   1      26.071812795000231      1.7786243531573682      6.7187598120382708
   270   1       26.10231381531289      5.3470703635149208      6.9807832769171627
   271   1      31.918773025528694      1.6506568376993855      6.9203074891970626
   272   1      31.919547516291125      5.3548099352977028      6.9817281933300075
   273   1      37.628915621337178      1.7639895739279099      6.8271391079882227
   274   1      37.657304305281919      5.2938887527825358      6.7371475643914485
   275   1      43.470637948954781      1.6631934223867493      6.9787488511431128
   276   1       43.36744953176337      5.4413609608259907      6.8799731289921127
   277   1      49.048823234339885      1.7481551833610909      6.9147765101179148
   278   1      49.110052970776792      5.4000428061824683      6.7644198703731373
   279   1      54.762581548166068      2.1052403759158635      6.6201604462882466
   280   1      55.020901353762284      5.3505786221155844       6.899695870751156
   281   1      3.3550530320818943      1.8052806220534836      12.291817468708189
   282   1      3.3882092968065622      5.4528009913964901      12.339954066484509
   283   1      8.9154452205917796      1.8716800859742091      12.310666847256844
   284   1      9.0419545337963143      5.4749426638248284      12.391373664648201
   285   1      14.765244877845772      1.8563835305297736      12.393916780259064
   286   1      14.714382293825761      5.4047494879390658      12.584286848195891
   287   1       20.65111918999396      1.7112647497566302      12.448293785528506
   288   1      20.641658174986734      5.4453264386266662       12.25873443177418
   289   1      26.151196061051529      1.8221735659643086      12.209327397197217
   290   1      26.151247220759732      5.4572004577002167       12.45850085839098
   291   1      32.036030316527786       1.655936084135631      12.592856579727046
   292   1       32.04899664594803      5.4075741543765865      12.477898322196646
   293   1      37.689165521588862      1.7277418694736602      12.659126785496804
   294   1      37.593195437878293      5.2901339178433249      12.536780737652698
   295   1      43.310042999911737      1.6203846447862307       12.48873146545918
   296   1      43.459769660253741      5.4267753936902503      12.393023509238288
   297   1      49.126017297585342       1.659033515098203      12.540512532197884
   298   1      49.229437512895387      5.3120621584126333      12.615406183640255
   299   1      54.961101502583155      1.6340558416310393      12.465689645376443
   300   1      55.053020361387382      5.6271702587282695      12.595322350177527
   301   1      3.3719614869529044      1.7342429593243773      17.964452718745211
   302   1      3.0943540879228388      5.5656640293656547      18.137144151725952
   303   1      8.9218479022563706      1.6577257666526499      18.122240140561818
   304   1      9.1655047711981688      5.4536907859086696       18.21046190043452
   305   1      14.782107509862115      1.6857839562754842      18.157524264651343
   306   1      14.696817579248762      5.6438394896555657      18.166480555615664
   307   1      20.709402002263616      1.8121324303437687      18.069869280324312
   308   1      20.428472798287729      5.4654848574888613      18.190210297955804
   309   1      26.290857396675403      1.7678999409219516      18.240475795384356
   310   1      26.177541770203177      5.3167710688084604      18.170142563344811
   311   1      31.883823768994464      1.7010217078115273      18.245563787557217
   312   1      31.929897927015599      5.3020984444916959      18.117244414925182
   313   1      37.661754335855704      1.8612944758051904      18.364729373057394
   314   1      37.899417240344363       5.484131703509223      18.393220882531672
   315   1      43.420605683838012       1.793592023803966      18.241712619884513
   316   1      43.533202801546445      5.6960343161967026       18.16756412558043
   317   1      49.205853766082512       1.894300407917658      18.186742420054816
   318   1      49.070801967104927      5.5131784554166545      18.241483761880115
   319   1       54.94001582913716      1.9303632736308174      18.225100295639823
   320   1       54.88208993883697      5.1167925881329683      18.331365163953183
   321   1       4.185734788621442      1.5731921301890892       3.161292011446839
   322   1      4.5161152022131175      5.2732034484187524      3.1377752266116947
   323   1      10.195149579044323      1.7958205284718087      3.3125942959174215
   324   1      10.207139652093401      5.4565874321071526      3.4395176666751324
   325   1      16.076717539955361      1.8006924926316976      3.3708530075329795
   326   1      15.897496083562951      5.5905925715659706      3.3420431125181733
   327   1      21.599899376628759       1.861467493420123      3.4003570120090685
   328   1      21.650798511425688      5.4134272059288913      3.3115637535011877
   329   1      27.384917469940874       1.746014221043952      3.3925853864722004
   330   1      27.347012956971181      5.3128952904206574      3.4614954612685542
   331   1      33.241489493001971      1.8746723238525884      3.6052111510387621
   332   1      33.271169343961112      5.4751451754286924      3.4289825028154302
   333   1      38.675849712379666      1.8427311130470108      3.4398491167957514
   334   1      38.856740265151686      5.4334839922677256      3.6515549867501877
   335   1      44.361237262978726      1.7247386364888033      3.5103824406810253
   336   1      44.446210074005528      5.5479865272281899      3.3655663909122322
   337   1      50.107925757530182      1.7078109230862208      3.4128703136966885
   338   1      50.015021651165938      5.3088593167593618      3.4370235784528376
   339   1      55.852086967873255      1.7212075349772509      3.7373869814699434
   340   1      55.856818568271969      5.5670232189972566      3.3639986131340236
   341   1      4.3046493498990595      1.8705151637039505      8.9281018268205496
   342   1      4.4707816944462406      5.4343722081061712      8.8774297139026377
   343   1      10.251036358343304      1.8190405898327584       8.840470503414382
   344   1      10.225283733618241      5.5921218624115161      8.9772907263527042
   345   1      15.834985907535792      1.8485745932246747      8.9769224940835137
   346   1      15.915175031299782      5.5365118124662569      8.9356417371544783
   347   1      21.595958692884071      1.9466697325266191      8.9642541563854952
   348   1      21.611609755280305      5.4249578069423752      9.0345492453239178
   349   1      27.338751554869557      1.9221738635662802      9.1009305766752639
   350   1      27.342005592311896      5.3982452208425862      8.9894201565195058
   351   1      33.083125371961252      1.6837267819626944      9.2214191544706079
   352   1      33.002841495680471      5.2746836709509788       9.251772578273183
   353   1      38.754259589742034      1.8215284170299277      8.9443405992997551
   354   1      38.875259854410217      5.3239927255131771      8.9346400566195445
   355   1      44.457284425140763      1.6681485701745999      9.1909700036816897
   356   1      44.429638044157208      5.1816085083403705      9.1298186489585547
   357   1      50.238207833791407      1.7116370816745907      9.1713672953075598
   358   1      50.275417440570401       5.451714612316537      9.2897388708310551