dump/S5_s00_n130_r1024_400_5/steps_1 (written by ASE) 

1579 	 atoms 
1  atom types
0.0           114.158223526  xlo xhi
0.0      7.2199999999999998  ylo yhi
0.0      22.831644699999995  zlo zhi


Atoms 

     1   1      1.9814631167106929      1.7961027231159319      4.5901392344882925
     2   1      2.1878899656626589      5.6249388904192168      4.6435987611005212
     3   1       8.082608057187084      1.8315055958285584      4.4969937059125771
     4   1      7.9442203229585724       5.440100552633429      4.3556065755282507
     5   1      13.620639532368161        1.93945759760019      4.6537928772429034
     6   1      13.572915848173663      5.5250428107200804      4.5157459969895992
     7   1       19.29313686037894       1.924336126047824      4.4861789078019436
     8   1      19.470386950938099      5.3558013037448324      4.5077203219253485
     9   1      25.114470555500926      2.0301078286463001      4.5883661080323757
    10   1      25.113381440136902      5.4488541092528227      4.6071736517048478
    11   1      30.819904733571263      1.8362234655750576      4.6049437350436673
    12   1      30.696443651540275      5.5684553991569654      4.5550736138296894
    13   1      36.487267040164333      1.8347085484967707      4.5904630965079365
    14   1       36.51875673257868      5.4096998543726986      4.6113321768026276
    15   1      42.202464540112018      1.7438226970162736      4.8815029472413345
    16   1      42.137276555661209      5.4090198459527832      4.6720263189213957
    17   1      47.812183536200202      1.8989235304296765      4.4781073427410885
    18   1      47.901996601354938      5.6376094863682678      4.6135699632221838
    19   1      53.727942081209278      1.8752586769661099      4.8407920923403722
    20   1      53.659398242522819      5.5056245868918543      4.8158302398292339
    21   1      2.1733142876802258      1.9217301154239108      10.398474233764494
    22   1       2.245449960844323      5.3311631999920266      10.372248902395494
    23   1      7.6976800108583046      2.0140279401156658      10.397507834153657
    24   1      7.6927706308024861       5.306634748225461      10.057383885139844
    25   1      13.595678876810315       1.781103530501037      10.287683220207677
    26   1      13.680459743845788      5.2147411566530995      10.397427414304612
    27   1      19.367993168096053      1.7672464085653476      10.177372981455479
    28   1      19.544363400369825      5.3322887042954097      10.261906937957521
    29   1       25.03021317679983      1.8350585715877565      10.351811498515232
    30   1      25.313349107540137      5.4569271246291615       10.18299763390163
    31   1      30.792260592834886      1.7756636393141059      10.434586137012721
    32   1      30.762354129426466      5.3806200881134787      10.375592012437531
    33   1      36.612274415267855      1.9418023137921254       10.43855843846818
    34   1      36.506524168638911      5.4101765591255315      10.264028748762746
    35   1       42.29829715165036      1.8004941343168208      10.516156698678868
    36   1      42.082825635421869      5.5051863951283631        10.6391245738926
    37   1      47.953678057273066      1.7806349025067107      10.289019215041479
    38   1      47.783903201007874      5.5514704168570876      10.391915543825146
    39   1      53.645857729539877      1.7726803949464247      10.406478191214328
    40   1       53.66596033795846      5.3540765396982382      10.541501212231184
    41   1      2.1047661763209429      1.6256201135692245      16.040928260609491
    42   1      2.2409126572446789      5.3657573295724266      16.083108429407318
    43   1      7.9161901747035035      1.6478805238349974       16.01075910159221
    44   1      8.0112359148682053      5.4595363069796532      15.809192699661406
    45   1       13.59285671040227      1.8515252941846296      15.898466981700194
    46   1      13.668071566449903      5.3288800853771807      15.998605096957684
    47   1      19.205844241679234      1.7036979169429023      15.973133574891804
    48   1      19.299901416151204      5.3673812576315205      15.980495617116446
    49   1      25.199534886789003      1.7391338856049308      15.978489025099321
    50   1      25.159223092969285      5.4921031420358899      16.073707266235417
    51   1       30.84759509460951       1.751211820935892      15.986896568368927
    52   1      30.928817507569224       5.512340658604959      15.961031627894284
    53   1      36.317382010178783      1.8820601099899585      16.056097328492857
    54   1      36.420066165901595      5.4562452842701843      16.174314689077303
    55   1      42.229152258350332      1.9420171447461225      16.094082359805526
    56   1      42.143092278949339       5.482503739232917      16.121594863744175
    57   1      47.997944035449159      1.8114743714775421      16.159991057063511
    58   1      48.045815034133703      5.3294684645928569      16.295925424400714
    59   1      53.780763397530386      1.7930040104535669      16.196351587842905
    60   1      53.751705054200144      5.3919278443803007      16.197208959173764
    61   1      2.4238123972920227      2.0935866123771003      21.883391438506269
    62   1      2.1310985603015773      5.5525535458378403      21.559945245520105
    63   1      8.0228608484206347      1.9251560176680351      21.564308610069165
    64   1      7.9296928719677826      5.5081209884353752      21.668194990631971
    65   1      13.714594194150999      1.8987723373609919       21.63018532703073
    66   1      13.817907277059726      5.3992769685915567      21.582040173411855
    67   1      19.590660680693194       1.792342925567626      21.750901325184032
    68   1      19.432181442891771      5.4871355428486464        21.6807995645581
    69   1      24.993329094268461       1.894612804944571      21.724493045630272
    70   1      24.996335578561165      5.5470964562313521      21.796506619735052
    71   1      30.758544920496465       1.649077984825289      21.869724984095438
    72   1      30.777970417669543      5.4717429528957675      21.771919686392174
    73   1      36.810724277938817      1.9138276069036877      21.773185149362813
    74   1      36.503093524452161      5.1954923035148628      21.792571956481208
    75   1      42.305325483626177      1.7853296883309901      21.863344024199776
    76   1      42.320575825629327      5.5091117930455349      21.699226441593982
    77   1      48.006117166455653      1.8312233756717362      21.766834551835743
    78   1      47.974864811669441      5.4378948601868826      21.864771639892215
    79   1      53.579309067639201      1.8216936226940361      21.888051945156167
    80   1      53.706726529498589      5.3510860583371622      21.887819357853839
    81   1     0.13303846367286409      1.8731921948526871      22.752095600531369
    82   1    0.088456438306152768      5.5508618072487224    0.064825211478174993
    83   1      5.6806260221397844      1.8590453582167639       22.73494408848023
    84   1      5.6987789919226497      5.5645358023212159      22.759236034574812
    85   1      11.379384743379116      1.8286612121440005     0.13509391579446328
    86   1      11.451903188237353       5.379197371833949     0.13126925302927306
    87   1      17.184115851054401      1.8239566356058428      22.763358431528506
    88   1      17.076932308006477      5.4869755827225486      22.700450232516914
    89   1      22.875111918536202      2.0379133557112454     0.14661440961566433
    90   1      22.838347541083277      5.5963263094705864      0.1126655228640407
    91   1      28.543688193097882      1.8243055143364648     0.24725305686995858
    92   1      28.573531415582849      5.4813755981397092   0.0097022107275757663
    93   1      34.511025748952768      1.8329312365177957      22.818545634497809
    94   1      34.226832706331962      5.4055682635064972    0.078079456633155048
    95   1      40.042002155159899      1.8507475520936927      0.2276400252649082
    96   1      39.961858109063463      5.4470265036189911     0.17546060565057006
    97   1      45.668939383914449       1.686644762152351     0.15360268009282632
    98   1      45.696402946823149      5.5964981719502678     0.13932524666039564
    99   1      51.369107164932444      1.7801122552652904     0.19375747906966764
   100   1      51.409138992498434      5.3091551754496313      0.2235738483108112
   101   1      114.10590239511524      1.9442273164124566       5.714078645247131
   102   1      114.02336516630712      5.5150077648966462      5.5402019091871049
   103   1      5.6918284887509074      1.7565820528548517      5.6313759311233333
   104   1      5.5570865308378004      5.5184378579732014       5.698969464126697
   105   1      11.315547011724583      1.9000936409653002      5.6648366182466132
   106   1      11.335126310039623      5.4448636459796704      5.8065984422806709
   107   1      17.039916848490684      1.7607006944169805      5.7533151201066293
   108   1      17.043686542649567      5.3993140018191239      5.6610628881760272
   109   1      22.974645250748619      1.8953460551737173      5.9035122333042436
   110   1      22.907759275331621       5.485435252406905      5.6320409826013611
   111   1      28.611379436546134      1.8740149723295672      5.7701603701170026
   112   1      28.612034773054614      5.6870184706607745      5.8154853067192374
   113   1      34.146023989781611      1.8714185379493906       5.829391726827569
   114   1      34.387390315167842      5.6677000044182373      5.6808539069557602
   115   1      39.828113637481941      1.7205537963192916      5.8336983262240505
   116   1      39.923477808221911      5.4170656597636251      5.9288395247340349
   117   1      45.694297467040379      1.8791127617980605      5.9935656210882104
   118   1      45.583040969266989      5.5623775033536651      5.9352186348499583
   119   1      51.481654060600903      1.9071201518140402      5.8974112844581397
   120   1      51.433089542637362      5.4697563921991108      5.8580833097988698
   121   1     0.14543422493091893       1.622754973864962      11.324946170153741
   122   1      114.06861929735611      5.4898970640358913      11.522250440134565
   123   1      5.5327825309144272      1.6954688145453582      11.417931578352954
   124   1      5.4715463354304212      5.3515245806797465      11.645530312409909
   125   1      11.344147415339156       1.919137390222867      11.505112573035634
   126   1      11.418543691811644      5.2936091283893694      11.358373865323092
   127   1      17.225099011799873      1.7821959190396179      11.230857384397696
   128   1      17.215520732566677       5.371570618099514      11.299613201613528
   129   1      22.650849782074559      1.6723659226198262      11.461493699714866
   130   1      22.791903957732643      5.4112908383905269      11.404950353041368
   131   1      28.562346122568368       1.623000783766263      11.419681686375512
   132   1      28.472104121380202      5.4233505268911992       11.37954759680002
   133   1      34.154805064588153      1.6994780985416198      11.485185964893205
   134   1      34.147535007492515      5.4178848167426574      11.489393654375794
   135   1      39.921562869205118      1.8381557910589403      11.641702685237755
   136   1      39.769785580488318       5.515477520992552      11.606250700881906
   137   1      45.755612309635474       1.800674202248751        11.5290316533269
   138   1      45.534014410085547       5.571907053037485      11.643374184349607
   139   1      51.368243823568463      1.8693374494551747        11.3322454359063
   140   1      51.438146889705592      5.3280083380721184      11.547556291449085
   141   1      114.12535579035661      2.0847874032012581      16.926560951734025
   142   1      114.15373681182969      5.6385090271371272      16.785029555075219
   143   1       5.683641948305282      1.9016490009966593      17.073895123872973
   144   1      5.7154219361587471      5.5180375477717423      17.084810792636436
   145   1      11.400403039630529      1.8409124263212719      17.025015843889221
   146   1      11.423720109216122      5.5042820143241089      17.108526579730391
   147   1      17.044553368709771      1.6841034263444974      17.178511726397154
   148   1      17.166909325620964      5.3831301300561609      17.066384649174868
   149   1      22.793692408828729      1.6785886504271719      17.128388039777054
   150   1      22.875283428603261      5.5747775656560856      17.147357886034211
   151   1      28.534766374682238      1.8750346966697573      16.999511003940484
   152   1      28.647049512731993      5.3847959894626412      17.204546850326828
   153   1      34.208661875206936      1.7107184971398421       17.29991224005412
   154   1      34.273599711992723      5.4194686269356707      17.302193862069643
   155   1      39.964713562883865      1.9278158538011418       17.29687400177589
   156   1      39.837289569441772      5.3531463254227667      17.225300249079641
   157   1      45.605600924135189      1.8223099204244624      17.210448650010303
   158   1      45.743561599989953      5.4271642140292169      17.144143782640313
   159   1       51.39130360234347      1.8168359263148008      17.224230150971749
   160   1       51.47407793543664      5.4449018322173943      17.168379438694075
   161   1      1.3565612277506003      1.6249150030400987      2.1080627262826246
   162   1      1.1439530900016135      5.7192325021083334      2.3079717707808589
   163   1      6.7442090866375759      1.8607283319597543      2.3660201366809308
   164   1      6.7483611817528333      5.5181180355987376      2.1754023045442179
   165   1      12.499765147650763       1.857177576076724      2.3752988324913376
   166   1       12.61848788481757      5.6354303988519581      2.3359550499457487
   167   1      18.220490938353741       1.759758351227944      2.1880179068012215
   168   1      18.186413433490266      5.5054228730928427      2.1326552199261806
   169   1       24.12805189770669      2.0527637487729544      2.3212240962602344
   170   1      23.994795208257706      5.4916940932627174      2.5069120835530772
   171   1      29.658893415420167      1.8485721249087623      2.3541803756132644
   172   1      29.667178021778259       5.471635472218658      2.2482897873887158
   173   1      35.296524897441564      1.9333342372654427       2.153001840003224
   174   1      35.402931840405024      5.4305687622541896      2.2859316611272562
   175   1      41.077052767163529      1.8744786378182174      2.4774620191029628
   176   1      41.069015161144776      5.3730214822133737      2.3282837258651514
   177   1      46.842844158960084      1.9976063125561243      2.2886329345457579
   178   1      46.800874246068837      5.5045952852154283       2.493613574238283
   179   1      52.673905401206241      1.8041138337842755      2.3619057233622658
   180   1      52.694564759726426      5.4644860382422253      2.5573542616996137
   181   1      1.1457097555197431      2.0814055897073414      8.1360982753590534
   182   1      1.2455621224207125      5.5460502583740272      8.3104060230649015
   183   1      6.5640553172909808      1.7505336472409116      7.9881915941188124
   184   1      6.6506506543321482       5.545425319076279      7.9333297931610627
   185   1       12.48187722121958      1.8811703046897557      8.0530128158118828
   186   1      12.283320916786849      5.4607879611485846      7.9649990923527225
   187   1      18.216795415406096      1.5538445239916194      7.9635432394109804
   188   1      18.211895426919202      5.3387021676655833      7.8233428316294935
   189   1      23.890925888499684      1.9067687996250668      8.1374928137705194
   190   1      23.873448400590185      5.5390083814084212      7.9828011584560743
   191   1      29.628120910099696      1.8587060078523161      8.1833999269588027
   192   1      29.676887123212921      5.4972937469176157      8.0846728240266508
   193   1      35.383082933508959       1.935327235781521      8.0028019515432884
   194   1      35.271792235598959      5.5404360768061736      8.1313806856508553
   195   1       41.11730065429952      1.7110419428489081       8.173666823061069
   196   1      41.096257046623926      5.4845245531787361      8.1193085695506877
   197   1      46.829464151819195      1.7119274733181751      8.2126744734338732
   198   1      46.924389447467611       5.472119431148732      8.0912693630569841
   199   1      52.662228141820478      1.8319848877797944       8.070217308389914
   200   1      52.576180043366755      5.5407911121543174      8.2512440513469958
   201   1     0.98118349020030982      1.6216900277579289      13.899085746510071
   202   1     0.98063905720719868      5.4222352364543953       13.75716053698822
   203   1      6.8570236836888396      1.8031288964808481      13.873342466329134
   204   1      6.8757384567993913      5.3604235347727602      13.611155885799226
   205   1      12.580541639100415      1.6687784820634346      13.671201829703952
   206   1      12.423895928414295       5.439783200883026      13.570081686182032
   207   1      18.110571968697911      1.7622886484004632      13.579866582121324
   208   1       18.18270124853699       5.469171292725683      13.583249656442618
   209   1      23.995816432136646       1.742593533718005      13.723339032234145
   210   1      23.997978893544623      5.3713124646798862      13.596034834428195
   211   1      29.683590165303052      1.9965947593382534      13.662618301555028
   212   1      29.704981136556324       5.534638276535464      13.762776919285455
   213   1      35.395146601818709      2.0598142930114811      13.665608128900361
   214   1      35.318019852446824      5.4764626678547996      13.752528010970549
   215   1      41.117899955222157      1.8880316990842765      13.811594719764145
   216   1      40.938683045785687      5.4793311450212965      13.970440028420601
   217   1      46.957435114549178      1.9568323963873984       13.83217036375223
   218   1      46.858021226447796      5.4456236254799997      13.812150064934951
   219   1      52.603021414340361      1.7582239918498899      13.859045164843991
   220   1      52.344411466578521      5.3184846336699936      13.857617742852486
   221   1       1.232425824857764      1.9305103906011614      19.431230987104254
   222   1      1.4109344323954442      3.8110228702751905      17.935883188860657
   223   1      6.9167062858655806      1.8290377425509852      19.322592464102684
   224   1       6.866552146025251      5.5176174603427199      19.173868999459081
   225   1      12.594264339439379      1.8821384626337139      19.476856873924991
   226   1      12.677184424086317      5.6814981772779625      19.387995252246533
   227   1      18.113077600814115      1.7613898528088225      19.457281104161584
   228   1      18.401178346340391      5.3974234198497033      19.408685467948683
   229   1      24.182759331058651      1.7955343835690853      19.306791570976635
   230   1      24.058734662171805      5.3931468245656111      19.387591866211917
   231   1      29.741435971808706       1.880810853727912       19.42044261921626
   232   1      29.676180433671696      5.4839650175736194      19.362659333471647
   233   1      35.436015017981887      1.7490283491948253      19.545851507694042
   234   1      35.529714920836248      5.5088156906779195      19.451982843543341
   235   1      41.191329546304246      1.7809505419745788      19.532652316592682
   236   1      41.207388737216817      5.4500913741278856      19.650364599831043
   237   1      46.827485576728932      1.7735284544773784       19.47448479748736
   238   1      46.726429628759085      5.3582815556808994      19.544335255500151
   239   1      52.477446941507623      1.7137844370707833      19.667130672390872
   240   1      52.510774324757321      5.5125876092837389      19.539631322023581
   241   1      3.4441697723892681      1.8604748333142052       1.125037915264661
   242   1       3.206772716918378      5.4442056119817952      1.0513151497503455
   243   1      9.0597017609652077      1.7301103664130455      1.1956924683516628
   244   1      9.1204389102144425      5.4243256111346154       1.115719987345041
   245   1      14.868560850500064      1.9941607684563643      1.2452255056405226
   246   1      15.060502483818849      5.4419891534832194      1.1702081158314279
   247   1      20.622057428714896      1.8689395207688368      1.2474557523810847
   248   1      20.592310359337624      5.5194344349607496      1.4535201187018765
   249   1       26.34251369297635      1.8993716865866028      1.2014290834867343
   250   1      26.105095889182277      5.7229268433445828      1.0364116861167998
   251   1      32.110259882031272      1.8373696012748353      1.1241335438523525
   252   1      31.949032498043739      5.2880441498148096      1.1641252121570935
   253   1      37.741702294123471      1.9560828589216184      1.3938559426907222
   254   1      37.743285368882475       5.374104111339177      1.4250896374075583
   255   1      43.424553917480885       1.958427090141698       1.246753987430395
   256   1      43.416148965617737      5.5730544070205834      1.2810639816673035
   257   1      48.964145799167838      1.8685316024677709       1.059663489654705
   258   1      49.049629841756357      5.4798943364285115      1.2472825692492697
   259   1      55.057084586021233      1.6509596675928366      1.3443916091486479
   260   1       55.03115306195037      5.4796664464064264       1.356618097079787
   261   1      3.4799004933998763      1.8640672349480498      6.9474502694666329
   262   1      3.3351117990117127      5.4970733328055283      6.9607468232805578
   263   1      8.7807435888004104      1.8290958878851207      6.8478870533217542
   264   1      9.0700211313769614      5.4497863695517266       6.841527169111032
   265   1       14.81743158269874      1.9415019948725405      6.7923265554622967
   266   1      14.626353848459949      5.4681327224041398      6.9572067189673827
   267   1       20.56160244861502      1.6818832739561858      6.8059561524401007
   268   1      20.494987817897595      5.5121095446776591      6.7059805996574742
   269   1      26.196947654017283       1.953984297482473      6.9067199889946984
   270   1      26.131777996907022      5.5719712306342508      6.9174706524451048
   271   1      31.828104196460941      1.7751064548521769      6.9350901361567416
   272   1      31.953356347788937      5.5520211579040692       6.792461853594804
   273   1      37.572908030599727      1.7502019891288956      6.9167264173128897
   274   1      37.434279356437663      5.5258339790560518      6.9498727339364663
   275   1      43.401792934650693      1.9713752938211762      6.9933745089665402
   276   1      43.404547738880034      5.2256948094508324      6.8491718986404866
   277   1      49.168874281886396      1.8286689334961006      6.8997776694705548
   278   1      49.185388041612157      5.4726059971443197      6.8124433291864177
   279   1      54.917988317738327      1.6959744718314227      7.0284584161437147
   280   1      54.831704052427789      5.5448894085814882      6.9944975042456692
   281   1      3.1818112126453362      1.8166834214912089      12.580023556469826
   282   1      3.0800177120269998      5.4591179950428037      12.672272229362074
   283   1      8.9973852987005927      1.7627500781046515      12.404392677403914
   284   1        9.20427212331108      5.3952260712413791      12.367527616593598
   285   1       14.84559534037237      1.7345560495772365      12.457884675117647
   286   1      14.834117652966267      5.2835221749609982      12.477022529515734
   287   1       20.45612474432199      1.6373804975536903      12.454878422161032
   288   1      20.478266266445733       5.530471350076712      12.679480126403345
   289   1       26.18215407258748       1.718497613495082      12.643479696245919
   290   1      26.321170930350579      5.4151242733092202      12.645421742250798
   291   1      31.929932976801602      2.0707819832204559      12.735980005812452
   292   1      32.152549593655984        5.39237567780844      12.709247749617411
   293   1      37.669727203580941      1.8282281387268677      12.558461653165837
   294   1      37.623280362420587      5.4395105273621702      12.869799565648959
   295   1       43.25499677563419      1.9467894073814358      12.714104893269585
   296   1      43.372750358252432      5.4730769180373322      12.857644068324511
   297   1      49.033756574064775      1.8777321293314106      12.711778407118397
   298   1      49.107201025000577      5.4766649492419219       12.68914248203018
   299   1      54.959512924900395      1.8279901597504444       12.79578151967049
   300   1       54.89949959873816      5.4284884558502435      12.736698142475595
   301   1      3.4740770646040398      1.8312198940942082      18.264363112316467
   302   1      3.3742963884650092      5.6749084184122243      18.253349336346176
   303   1      9.2430522128214374      1.9450204788090872       18.27728047252425
   304   1      9.1409306974350972      5.3636127208581286      18.163588044871052
   305   1      14.785106879522427      1.8180838790145477      18.170416648466819
   306   1      14.802291842712375      5.4425519536175271      18.255148100297976
   307   1      20.447765281486049      1.7789111823103734      18.263965314161371
   308   1      20.607876748336714      5.5298172200719735      18.393351119256675
   309   1      26.386889424259458      1.8371769312986184      18.237041112415096
   310   1      26.478577694794005       5.334244022019317      18.205359970242856
   311   1      31.922389284364574      1.6635165460614492      18.264360714201491
   312   1      31.971820640613853      5.3976289783664075      18.212587464056906
   313   1      37.768179696241965      1.8828205353328897      18.393914676394715
   314   1      37.644305236029183      5.5296412917845501      18.272750002632499
   315   1      43.260156582414147      1.8419553132673858      18.288914674774972
   316   1      43.484097679625805      5.2785169717708413       18.42243345569079
   317   1      49.132093252395229       1.900822919161165      18.553842087573972
   318   1      49.145180318447025      5.3928781121315952      18.400663682546966
   319   1      54.933038848597832      1.7140165046337679      18.631178122984835
   320   1       54.82456252532144      5.3880256380726816      18.564696037237571
   321   1      4.3928429927448382      1.9740002060730415       3.429026364508172
   322   1      4.5331344178253214      5.3887915747151052      3.4114658048534938
   323   1      10.272161649127744      1.9237601726663085      3.4136322431845922
   324   1      10.290427694822547       5.407704925393829      3.4862307540301214
   325   1      15.877548731398917      1.9582910350933136       3.560204959652173
   326   1      16.031309068393348      5.4290033314397714      3.4690467288447033
   327   1      21.582344789502663      1.8822076039156643      3.5380557822905563
   328   1      21.623162590721257      5.6427966269170513      3.5829510371320961
   329   1      27.458186184300491      1.8766195262600129      3.3248853494502209
   330   1      27.377619226185203      5.5351836983570557      3.5427594099156106
   331   1       33.17700346873967      1.7368039426030786      3.3388867431085631
   332   1      32.968489995561775      5.6777719702011513      3.4366126954456058
   333   1      38.857797064086824      1.8715575454991902      3.6190808573733602
   334   1      38.784235283722211       5.394116517983595      3.4209728757254627
   335   1       44.54667836558756      1.9434421187489554      3.5978650641831389
   336   1      44.436562027820862      5.5691707797976457      3.6071413698420649
   337   1      50.211041328243262      1.8822012209753753        3.47699762908801
   338   1      50.284673457103345      5.5860655393838323      3.6502536735706506
   339   1      55.923417746495268      2.0896734728207425      3.5911880768605555
   340   1      55.919178356848967       5.390297223033369      3.5778302831362945
   341   1      4.5276384759316022      1.8025504662772784      9.3563211713837529
   342   1      4.4711820693443567      5.3884829978666744      9.2920533597780732
   343   1      10.000132344408089      1.7881008517582788      9.2570634940529004
   344   1      10.229877219951636       5.378448859788584      9.1490660783521509
   345   1      15.779464514956876      1.7651269715222078      9.1500603130800666
   346   1      15.994565477030369      5.2991870564994583      9.1250652653438635
   347   1      21.727879515488205      1.6638666599030036      9.0925626512503293
   348   1      21.711366212143975      5.2292456535489213      9.1905264815378711
   349   1      27.474993783030943      1.9475276534891137      9.1428632770587726
   350   1      27.405344313966918      5.5021343015031254       9.138196345920381
   351   1       33.18141452555507      1.8628169593183104      9.2168988554965861
   352   1      33.021438242544903      5.5280638334786003      9.2397520090962306
   353   1      38.943128969259064      1.9451853158417556      9.2124522172068541
   354   1      38.856046889542377      5.3690231002328659      9.1614004853194135
   355   1      44.537728433969043      1.8065439700723755      9.2574108190122413
   356   1      44.518674115544059      5.4721888359324549      9.3063289760581807
   357   1       50.28585026434164      1.7792556967268474       9.173828704254003
   358   1      50.265350505934663       5.454754803707214      9.2299607646355692