dump/Mg_500_5/steps_31 (written by ASE) 

3995 	 atoms 
1  atom types
0.0      32.100000000000001  xlo xhi
0.0      55.598830921999998  ylo yhi
0.0      52.130399999999995  zlo zhi


Atoms 

     1   1      0.2239326024425462       55.28795162495269      52.107870831345295
     2   1      1.7941223036605758      2.4429779606836166      51.890229444834389
     3   1      1.5718483598984239     0.73053466157642533      2.3109321962900387
     4   1      32.081771188140557      3.7500840046710104      2.3797933889065108
     5   1     0.14647854888596967      5.3166544928549628      52.061654722964832
     6   1      1.5521859113217076      8.1479405413414376      52.050255061115593
     7   1      1.5842478222929246      6.4512051281605443      2.6928879052796479
     8   1       31.93020570231959      9.1580263815678862      2.7608807732584104
     9   1      32.004267698608793      10.971716170058404      51.852745768584931
    10   1      1.5527330923970617      13.603301437809673      51.824937586944017
    11   1      1.5331587653513694      11.864642534472912      2.4651570346052263
    12   1      32.034596849176324      14.703811121105156      2.3793235789157965
    13   1    0.020189984601439476      16.344431177313673   0.0068881539407289116
    14   1      1.5384920395353137      19.029294567646541      52.045912390067286
    15   1      1.8296929913885287      17.457806139746523      2.4590119538641697
    16   1     0.13218701771327382      20.330915880920745       2.659495766722233
    17   1     0.32526535192045447      21.872641654537524      51.879132803711634
    18   1      1.4730249498499828      25.016045932455622     0.21275273329368757
    19   1      1.4661242750469132      23.178552436493554       2.553877099751372
    20   1      31.930297053537746      25.900977533702541      2.7196595430481509
    21   1      31.994502374262968      27.960398071804985      51.649599134643424
    22   1      1.5456124056156835      30.650319909985114    0.031601088365259856
    23   1      1.4568095481493979       28.81890715134594      2.8321301425809939
    24   1      31.991667164227216      31.507227018105141      2.5392020656153096
    25   1      32.092147973049833      33.400115863237637      52.038838220057244
    26   1      1.5101963437589274      36.393473396033151      52.020414037549529
    27   1      1.7029264379161768      34.569003602836737      2.6003096310304201
    28   1     0.11378741778895807      37.245295363428951       2.562989563490274
    29   1      32.021672544862348      38.849282497540528      51.919242024063031
    30   1      1.6842976518860566      41.652108076939385       52.04536069876432
    31   1      1.5662415982854703      39.916757229438588      2.6492729010541214
    32   1      0.1741001028534839      42.583029223284733      2.5865578222280234
    33   1    0.062201863059547516      44.556264433871405    0.037074846918341058
    34   1      1.5795607755224463      47.262386885257278      51.997855674985338
    35   1      1.2384119656441419      45.682504590344003      2.6392977615001558
    36   1      31.717812876144443      48.089422319883653      2.5044418891516389
    37   1    0.085589132680289268      49.959573087664658     0.21031288564274775
    38   1      1.8059761950645397      52.476952621667557      51.959557100164211
    39   1      1.6094432202510958      50.911315592977729       2.742492117500372
    40   1      32.003945251729078      53.485949826104743      2.4135562963130588
    41   1      3.4443879601888949      55.262740534958169      51.941161780856099
    42   1      4.9381676348320882      2.9394019178118418     0.03477706619091004
    43   1      4.9250875434647057     0.96628655609590997      2.4577860867796053
    44   1      3.0357010520558672      3.5480523415291687      2.4407698750912705
    45   1      3.2417851800795319      5.4889160319417174      52.102356684880782
    46   1      4.7406492267814011       8.342534497727943      51.724667948920079
    47   1      4.9599591781714274      6.3546599509253712      2.4978112476255139
    48   1      3.2923340835927317      9.0299324965185672      2.4335273138138898
    49   1      3.2949869499138948      10.991104250132965      51.987786695463065
    50   1      4.8102318631218228      13.721583288834303      52.013665481147413
    51   1      4.8446779161755895      11.639472003021742      2.4364207966883527
    52   1      3.1931835992280901      14.520898600632961      2.4766637161802199
    53   1      3.1667882807285253      16.487064882850166      51.930350756009602
    54   1      4.5736977330639244      19.532057613195089      52.034878249761711
    55   1      4.9436754097518767      17.474636301597513      2.4166635826916019
    56   1      2.9523228896285345      20.396393602753232      2.1695498974326095
    57   1       3.180204166940328      22.345684458059033     0.14144525348461823
    58   1      4.7318023153696807      25.168835726680634     0.10265849165948665
    59   1      4.5262917598491734      23.317907946420132      2.5707795632623478
    60   1      2.9719883696926694      26.134257588410474      2.7043569609154741
    61   1      2.9440080220943745      27.766114953842479     0.12018510954118115
    62   1      4.5626406707908975      30.493549818623265    0.027640299087042963
    63   1      4.4973730388530413      28.994432593444792      2.5522821132153353
    64   1      2.9392262552252002      31.661653185947699      2.5637993095633442
    65   1      2.8809389322719587      33.474386340526934      51.710867184523984
    66   1      4.8202076519500672      35.968351038798367      52.000432659949489
    67   1      4.7282198059481599      34.244643197524276      2.4133463008837621
    68   1      3.3193572226458721      36.963298503839525      2.4526803760409779
    69   1      3.3672979376204997      39.139529023204105       52.09038357720663
    70   1      4.8714109409492599      41.771079399859552       52.11829617092814
    71   1      4.8905500163922193      40.092526111471848      2.5496945982499248
    72   1      3.2640378750319345      42.860740083393708      2.5957498347173762
    73   1      3.1586275566145261      44.477352067217829     0.11405344566363229
    74   1      4.7668707413004423      47.006353964678311      52.128023178888895
    75   1      2.9270995491567335      48.030996553021673      2.4444734191055417
    76   1      3.2520653304478793       49.76583506312469    0.085259268881026584
    77   1      5.0277064295666385      52.563188702869958     0.15946803098644963
    78   1      4.7732560432006892      50.789462701396637      2.6253889716651471
    79   1       3.126640181536771      53.443961457034291      2.4385995139970245
    80   1      6.5641149951169409      55.542155097028576    0.026800188461659477
    81   1      8.1836166406230113       2.877818500181093      51.991076091476309
    82   1      7.9505040441048056      1.1113565700644699      2.5983720907954737
    83   1      6.3340630644448357      3.7433389231784471      2.5799496165389111
    84   1      6.6365674628728648      5.6321791350740167      51.954336841671982
    85   1      8.3467434312760069      8.3926753215886496      52.014421068314029
    86   1      8.0561393215340811       6.398106503773036      2.6091746555767794
    87   1       6.389343251217392      9.0412596956866054      2.4783092695525548
    88   1      6.5416228016596278      10.682955581840291    0.061026744556485386
    89   1      7.9438641102934833       14.02794890731079      52.004240501030957
    90   1      7.8908580825212686      11.832317300411169      2.6354303533278602
    91   1      6.4650211502748682      14.546170584005726      2.4795836750320159
    92   1      6.5737724157313551      16.586682435683734      52.029074467282747
    93   1      7.8711178232178902      19.529423450577674      52.125381445182668
    94   1       8.242693953008887      17.504674943188391      2.6555591276098593
    95   1      6.2587648463139569      20.616688089350841      2.4294509896071563
    96   1      6.3262902461057156      22.220860548044037      52.120414290073171
    97   1      8.0140798887353615      25.211247165252242     0.23293282701741366
    98   1      8.0246876791308175       23.26567446222748      2.5505468596045953
    99   1      6.1284067243127112      25.883792725172476       2.724756319426485
   100   1      6.1321866732538828      27.939766830915225      51.911865675185638
   101   1      7.9554708278629898      30.628651148077829   0.0094459293252816615
   102   1      7.8336725790362616      28.640014170199812      2.3865773732747368
   103   1      6.2834795310288785      31.467136703304458       2.423712660752229
   104   1      6.2820632535970775      33.163008108399794      52.072607720499889
   105   1      7.6505047754999804      35.863132698337694    0.094623410397067217
   106   1      7.8901884830990046      34.554147236635671      2.8524070916374802
   107   1      6.4104881908736644       37.40763083938338      2.8886467740668991
   108   1      6.2487124710202577      39.078132739455427    0.086370527491639468
   109   1      8.0052907109826386      41.724222958803274    0.063527892861669696
   110   1      7.9921394506608268      40.042050214484433       2.614615473636428
   111   1      6.4516250732358058      42.740228875514454      2.5803088549067632
   112   1      6.4461433477452585      44.516424827811676    0.084101925196518476
   113   1      8.0246322989469778       47.16684954820586     0.22280987569548555
   114   1      7.7928164483008171      45.597522929972655      2.7701761613831422
   115   1      6.2991107175502474      48.068030190472648      2.5896692731568192
   116   1      6.1879539936287955      49.945188556179836      51.968822773706236
   117   1      8.2004921948186826      52.698565575099046      52.065753334145739
   118   1      7.8013989708257405      50.839778313415586      2.5842367981309731
   119   1      6.5031531065230945       53.87170419321231      2.6841410012276312
   120   1      9.7874580783578704     0.11407674354284711    0.096615222966529093
   121   1      11.334898356729699      2.7890689745329902    0.068099018930003238
   122   1      11.352150721844538      1.3296630568494605      2.4940033305154183
   123   1      9.6264808600839107      3.8723835636740715      2.6636352825822072
   124   1      9.8445671782827127      5.5702882280801953      51.998561218655844
   125   1      11.274541974181247      8.3694404698089642     0.17255037644839505
   126   1      11.091209227298414      6.5300582127325075      2.2791938625500019
   127   1      9.7741356109713777      9.3912552844701853      2.6481271921520753
   128   1      9.5678699286691362      11.372305788094959      52.027628193526596
   129   1      11.276985680373448      13.886135102628318      51.993091778120778
   130   1      11.380163066064009      11.957239596908769      2.6287944036188504
   131   1      9.5670703468718852      14.678471646515801      2.7403519628324196
   132   1      9.6387660437164282      16.600850401519676    0.041391840436531678
   133   1      11.130712455061095      19.472354623231574    0.054637357723986958
   134   1      11.236617827978616      17.651558540496616      2.6993429088701326
   135   1      9.5954052467891291       20.56670934249065      2.5190780982138534
   136   1      9.3693917321451536      22.212555921204178      52.044181508533491
   137   1      11.387927677002395      25.219749713436574     0.17664583674857937
   138   1       11.08627770028415      23.429322865114848      2.3745532542589398
   139   1      9.5706855463708838      26.257362953133303      2.5802390492937812
   140   1      9.7094673947923997      27.716779228220847      52.091860254888061
   141   1      10.929343136565649      30.511947719874904      52.118569915271422
   142   1      11.342472702608667      28.730129239754444      2.7253636497123255
   143   1      9.3741476832783732      31.360167739046744      2.7499858338162606
   144   1      9.3799868603448804      33.423678039028282     0.21260472987326581
   145   1      11.108883189580901      35.956571352204996      52.094125257014404
   146   1      11.124891882791443       34.41146974595317      2.7576500222700311
   147   1      9.6282726705829944      37.153237773342234      2.7946409040926694
   148   1      9.2211342832757062      38.892107537281909       52.08814196599409
   149   1      11.248189902259536      41.732408020888492     0.17243520019409972
   150   1      11.115444080835582      39.878274590757016      2.4704995523408328
   151   1      9.5658889196324282      42.911091586018948      2.3759778401845129
   152   1      9.6590687660115044      44.534001538034261      51.945051887686745
   153   1        11.2322753750271      47.125140798596071     0.13472170480985451
   154   1      11.440860744132946      45.557785080959924      2.6640932051894595
   155   1      9.7558251608437896       48.26137123721189      2.5609626155628047
   156   1      9.6300912615449441      50.076831366307644    0.090710322366219107
   157   1      11.549299833219772      52.840228691445262      51.932189392832804
   158   1      11.260988065629407      50.958159404143466      2.4915643326473917
   159   1      9.7556042015642266      53.595526285272491      2.3952709855738972
   160   1      12.990381098034909      55.549693226387767      52.083998033990362
   161   1         14.564563359584      2.7937525762830546     0.14401800091019823
   162   1      14.344108032617505      1.0216056791776913      2.6930321682352623
   163   1      12.892955371467259      3.9613577392122017      2.6236174911165713
   164   1       12.95771847135614      5.6166976007762859      51.946690500594372
   165   1      14.415445350864289      8.3185426285463819       51.95997386846058
   166   1      14.471243650447859      6.5875940134187738      2.4054819914584398
   167   1      12.915396569263907      9.1669514265080814       2.422210368033086
   168   1       12.96018130189913      11.096195393779118      51.895704718128208
   169   1      14.425491695290134      13.855769730327163     0.04542807044821582
   170   1      14.663998421095084      11.998152535290867      2.7091008576888713
   171   1      12.568936581668652      15.036891132405232      2.6833204390999348
   172   1      12.737549509300358      16.998289063091502     0.29424242237827541
   173   1      14.782313803678218      19.395948064488771     0.48612412709592301
   174   1      14.471365515914993      17.757589648896776      2.8427800878900022
   175   1      12.943158722229745      20.648663287968112      2.7321062881705589
   176   1      12.827168188809836      22.168616281376163      52.058976621085399
   177   1      14.781765092482578      25.219424322861453      52.099938863214014
   178   1        14.5261037765704      23.461926495716114      2.6155848021258641
   179   1      13.094296078717125      26.135090471934664      2.5932433247956146
   180   1      12.940018581700532      28.076083654713003    0.085090852411068618
   181   1      14.501751046810162       30.78366462898363      51.822847115195543
   182   1      14.609556274625968      28.919373090416578      2.2912044213748408
   183   1      12.631342178054846      31.581360325863262       2.629822964648866
   184   1       12.64706616377153       33.38904030797476     0.17611703315167818
   185   1      14.442285054272478      36.251065948867321    0.067297350772879752
   186   1      14.638194683749068      34.554558663981048      2.8616161047870552
   187   1      12.810059736070942      36.885922761203148      2.6307273669585713
   188   1      12.242574762938487      38.872710390819051      51.940474905417226
   189   1      14.317054147092847      41.647514660387472      52.005297145147146
   190   1      14.256242832287992      39.866901042735726      2.4462268745262103
   191   1      12.963036948782637      42.851572281873075      2.5242934404541768
   192   1      13.026373421292439      44.515026612649493      51.943095392630461
   193   1      14.314631132748339       47.45218367100761      51.935689251289681
   194   1      14.668925209814811      45.396532896252516      2.6475181074147236
   195   1      12.906888293286631      48.113488555703633      2.7667593279215366
   196   1      12.755059641987936      50.150143701200946    0.036929726060455692
   197   1      14.549137115016656      52.930764069121679    0.093340669197153073
   198   1      14.420226515634941      50.808461542647542      2.6189472897105182
   199   1      12.853067079581702      53.573432843398557      2.5757320326686544
   200   1      16.087093710402197     0.12465281829292038      51.989563707352481
   201   1      17.743827337211169      2.5500441836316061      51.871793513692396
   202   1      17.646991355332311     0.50783503560060617      2.6283600860838998
   203   1      16.230015450655443      3.6525765254493034      2.3504369874089326
   204   1      16.137836305916441      5.5008613064672227      52.033600400520797
   205   1      17.632864407727951      8.2224244749371671    0.045076784371437105
   206   1      17.998835184426415      6.1058741277984625      2.7014562086474054
   207   1      16.181247613801723      9.3036009246743294      2.5620692613337241
   208   1      16.013594271761416      11.241332351578182    0.027363307331550638
   209   1      17.417555732150131      13.873555717285409     0.14606899385483796
   210   1       17.58991618486542      12.082338314677633      2.6259683735919763
   211   1       15.81369000146443      14.968354312967501      2.5698311943442915
   212   1      16.265179318080602      16.620367240810349    0.034973824633129591
   213   1      17.487821367641676      19.667511816613207      52.060676588030596
   214   1      17.970115094013014      17.848937623236488      2.6517000100037103
   215   1      16.206041174444042      20.546981076431667      3.0105140058203665
   216   1      15.976802822342254      22.400016140291193     0.15954422564696435
   217   1      17.672756975262022      25.209589235799022    0.059861352730966863
   218   1       17.61371258102329      23.384374316695315      2.7713306554211172
   219   1      16.135115104490581      26.133833851098302      2.7515019072470026
   220   1       16.17157396477992      27.918534095061396      51.921000271986472
   221   1      17.587598598542325      30.533875409468127     0.18235804793887309
   222   1      17.807121902231046      28.777929844818601      2.6655066456751526
   223   1      16.007576895385551      31.750404697785502      2.7495534974763314
   224   1      16.151820170309435      33.462339103071493      52.039711679221334
   225   1      17.549593993186694      36.383071625554528   0.0086247005329168139
   226   1      17.773411974905123      34.382042011244124      2.4731302766034879
   227   1       16.04347137568098      37.399255188215363      2.3777743789930788
   228   1      15.663713458194762      39.199683834260973      51.902799904127335
   229   1      17.417291861715192      41.906413094857243      52.046488422779646
   230   1      17.462137030278214      40.096247126341829      2.5106597512689866
   231   1      15.968191820798515      42.636311111572802      2.4629319801609695
   232   1       15.86095700772743       44.48860543223531      52.073682905883402
   233   1       17.33245783051575      47.224690935652504      52.067456025438538
   234   1      17.973835772949098      45.228273200296826      2.3140520792989028
   235   1      15.923443696384656      48.334248457455807      2.4124990642040696
   236   1      15.905489203333971       50.42613554692808     0.16438630146368036
   237   1       17.62444785385933       52.94495358456733      52.065266811026824
   238   1      17.733209334886766      51.001067125450277      2.7210463661196238
   239   1       16.14991164507974      53.495115902183535      2.4410897847123176
   240   1      19.448065634184459      55.589346574604335      52.077090325948397
   241   1      20.976625737571229      2.3914811469902548    0.070435109448236291
   242   1      20.847161741443315     0.68890079322383757      2.6464862166291407
   243   1      19.422791835713969       3.316198059338467      2.4365646622279509
   244   1      19.437744796438039      5.5277058946621329      52.049057679487795
   245   1      20.743869239797636      8.3882192254847077      52.073261733080059
   246   1      21.167314579011627      6.5617319783899584       2.628727111493101
   247   1      19.325611435531503      9.3837867729066158       2.395613557165031
   248   1      19.132043613491419      11.127192205704205      51.923511823130099
   249   1      20.513684857507133      13.869595153226658      52.119475726008609
   250   1      20.952626755313837      12.219625915806013      2.7343597311341239
   251   1      19.129583906344681      14.923517832755627       2.693071350181667
   252   1      19.330912289518135      16.782223639366066    0.056380429994167702
   253   1      20.623075185094883       19.67071239029379      52.125248575248158
   254   1      20.959674262937924       17.71371223023441      2.7833005240068989
   255   1      19.331777195613476      20.552369704766569      2.8913957940598403
   256   1      19.161918423088096      22.402729843754869      52.109921617835937
   257   1      20.872064695250828      25.162306103195544     0.20404962743552263
   258   1      20.934511912248091      23.247008849266905      2.6122717020967259
   259   1       19.34807431266011      26.079934281330551       2.592147325206891
   260   1      19.325340357981943      27.947357746365668      52.077911578523981
   261   1      20.974020982178217      30.741421109134283       52.02701636413434
   262   1      21.015517136582329      28.918131879856972      2.5279638760583496
   263   1      19.082884089788525      31.794711028840233      2.8594894671174269
   264   1      19.172515112343643       33.22852550416755       52.06269544483186
   265   1       20.85598681537498      36.032928393424548      52.083316224608531
   266   1      20.899470754643207      34.328871429506982      2.9399793187364116
   267   1      19.169747478970514      37.267961271423019      2.4947151542117814
   268   1      19.102564619338381      39.050944086906803      51.985079198085849
   269   1       20.65446917121993      41.797990086072325   0.0082660784304335912
   270   1      20.648733058799024      39.970795901686728      2.4703615608087071
   271   1      18.956151699730135       42.53736669397346      2.6106783850552411
   272   1      19.256581370279658      44.462609257950177    0.069708880957802477
   273   1      20.680077050841373      47.308924487968568      0.2614870531349151
   274   1      20.661915123321354      45.445682442934292      2.6985634901781124
   275   1      19.183567983206057      48.259356493512918      2.7211078531279997
   276   1      19.220764923580216      50.117633975665392     0.23793715006600979
   277   1      21.044264268861344      52.826003346945789    0.050876605758277418
   278   1      21.012911030343179      51.200850680648607      2.7219939200850445
   279   1      19.302545215249143      53.593309782926355      2.5396762159611712
   280   1      22.493837877715674      55.423006058721008     0.10596513692168559
   281   1      24.159379309298753       2.479491151818944      51.881652309834031
   282   1      24.062664618822723     0.91315576325776371      2.4993241741759475
   283   1      22.434286890024691      3.7726258648374968      2.4885311223749222
   284   1      22.663283287512161      5.5489592742459317      51.973300165740199
   285   1      23.931980077555867      8.2018758795144162    0.053617888190548572
   286   1      24.236786341275643      6.8457674779307895      2.6621493728533245
   287   1      22.530601925501951      9.4375787258532213      2.4359861472019562
   288   1      22.335645511355938      11.390630610860601    0.068134894038773944
   289   1        24.1341239433102       13.87038648222198      52.048740379701755
   290   1      24.151460448477785      12.174451856450538      2.5209179283311292
   291   1      22.466064762453001      16.602918353299668    0.030191372609412129
   292   1      24.245295181890899       19.35232610173825    0.035463063630625846
   293   1      24.181202738800813      17.780665270943167      2.4143236524804985
   294   1      22.200187931269433      20.440159886216762      2.7320161929993581
   295   1      22.526075760620667      22.227878675099237    0.071963296810375582
   296   1      24.310773399225006      25.188506188815253     0.26175133742192402
   297   1      24.142741423044214      23.291949503089953      3.0231368907082117
   298   1      22.483708050156078      26.066083358065622      2.7424927575133884
   299   1      22.560922766746089        27.6523941024337     0.13592198342242615
   300   1      24.317320577173358      30.860024540977655      52.097744524875544
   301   1      24.154666847658518      28.642210144715172      2.5910985805792719
   302   1      22.388953701221137       31.62674244512651      2.6837171770412596
   303   1      22.508811725848712      33.416814391210693    0.069551442437770547
   304   1      23.945012236032227      36.407646435486868     0.12318250727729399
   305   1      24.162884274786446      34.380907239184509      2.4967749115672411
   306   1      22.281337162088988      37.418960376243902      2.6529757958573841
   307   1      22.145630417423366      39.084890111320142  0.00049737446607832673
   308   1      23.789172486950694      41.786316395032458    0.053750790525453868
   309   1      23.825977183997551      40.125462543554043       2.682984792659318
   310   1      22.132381219427955      42.588696040247271      2.8854668831955901
   311   1      22.642199004394062      44.618485764984008     0.32386453818370486
   312   1      24.256189195788487       47.03894518138533     0.25514892259685196
   313   1      23.903034322419796      45.667511977608235      2.7924045821277264
   314   1      22.475068226160754      48.352512747704012      2.7056278123613087
   315   1      22.521220077232599      49.860279264279164      51.902395484776342
   316   1      24.248015682309973      52.946240556172214       52.03396554110941
   317   1      24.075874436581664      50.949098632521036      2.6273495366040858
   318   1      22.783075242024452       53.79796851834837      2.6701988725052996
   319   1      25.774685042288571      55.377213768211639      52.049275793092029
   320   1      27.208424170855096       2.727443680332212      51.860302397271774
   321   1      27.342907981767045      1.1378014125750753      2.5402333586974453
   322   1      25.478997816695571      3.5344884385552389      2.2454241248768434
   323   1      25.727282329477532      5.5872156075169164      52.036359247876234
   324   1      27.111304643339736      8.5082585277845535      51.837227327318772
   325   1      27.280421745125288       6.348343116472968      2.5723031876684841
   326   1      25.648353382074923      9.3162337598962974      2.4081054200373493
   327   1      25.522786841049147       11.02894285541738    0.033046111597699032
   328   1      27.199498263751686      13.679468066898721      52.098798845559742
   329   1      27.322364652182127      12.277057035803146      2.5103001946281416
   330   1      25.559087229124366      15.008430615949079      2.4964557835324062
   331   1      25.752970163003479      16.683306566248032      51.964964014658747
   332   1      27.339768244552737      19.409352211164229    0.074147782266659593
   333   1      27.387556120015383      17.594629905548597      2.7690416800924629
   334   1      25.925663202575066      20.534942233236347      2.7503156224466383
   335   1      25.904228365644119      22.127928720414534     0.19171495451820791
   336   1      27.343706971074464      24.974066007352491     0.10781835029306043
   337   1      27.284076185207592      23.196582326287761      2.6815261649765145
   338   1      25.694210119297669      26.002756436670403      3.0568063485750834
   339   1      25.874421314120916      27.998742473520871      52.028361671210035
   340   1      27.417822918576178      30.609128281965408      51.994614491069463
   341   1      27.408259839619504      28.532558914216239      2.4519381918223506
   342   1       25.62888296337475      31.405818084663007      2.7980869841536569
   343   1      25.691738022141777       33.33549494265371      52.101838885209823
   344   1       27.12632517619577      36.373069881147103      51.934263857010684
   345   1      27.113728744434365      34.164538123956589      2.7056787882474138
   346   1      25.513506948968896      37.124047569212628      2.3336634461461796
   347   1      25.138446391798201       39.02138524258423         52.089191666706
   348   1      27.325582401479497      41.552236256792824     0.35285154543391289
   349   1      27.058491765866741      39.567150884813472      2.5738001174316594
   350   1      25.371682848823387      42.733608749296749      2.6988691069811366
   351   1      25.763075920320951      44.215753941204639     0.29812182836918827
   352   1      27.373909266604567       46.90720361482159    0.077620461357736231
   353   1      27.072100251351834      45.306126665930705      2.7721259412158497
   354   1       25.60839589196291      48.187002326153632      2.7726853138425525
   355   1      25.971120453322282      49.849196264736477     0.15990377579232384
   356   1      27.470673202747768      52.677466359790969      52.000671435197908
   357   1      27.273952888746567      51.089809563131475      2.6810531250924416
   358   1      25.771846768109231      53.634755538132033      2.3632392692058124
   359   1      28.936306119882847      55.501934478027209    0.051133148644223726