dump/Mg_500_5/steps_1 (written by ASE) 

3995 	 atoms 
1  atom types
0.0      32.100000000000001  xlo xhi
0.0      55.598830921999998  ylo yhi
0.0      52.130399999999995  zlo zhi


Atoms 

     1   1      31.845165123332787      55.456753610061369      52.016409339503014
     2   1      1.5203889335557106       2.866233577557558      52.081652604610646
     3   1      1.3659199609035684       1.253831608499669      2.5922324652747708
     4   1      32.042050004806867      4.0082185648118935      2.6022925555436505
     5   1    0.046291067299535249      5.6155718482295667    0.038591499786932139
     6   1      1.5681717905415229      8.2820540823499051    0.090095323557980514
     7   1       1.555827465145639      6.6627252441220142      2.6036553605044443
     8   1      31.936358927954899      9.3902998471031722      2.8637244168531746
     9   1     0.16884135707454162      11.014961781855149    0.093450135295036985
    10   1      1.5240147478497468      13.966045540653376        52.0290858002354
    11   1      1.6707349301819154      11.983851074989023      2.5525320200770301
    12   1      32.091437772594929      14.943704629824524      2.6436603790192543
    13   1     0.14838850098864623      16.680213918737657      52.047055870498305
    14   1      1.6992700590486869      19.451099105422525      51.697032302522778
    15   1      1.8065718202279093      17.617564148412068       2.390455952222875
    16   1    0.013881904390315451      20.231090180692423      2.4668799280664531
    17   1    0.098928599198159092      22.015445542787671      51.956352581839042
    18   1      1.5930507093048734      24.803878163800608    0.037866667109349411
    19   1      1.3875827797396052      23.149387824129025      2.6413824999105615
    20   1      31.963975979023566      25.988940047233939      2.4357416133891236
    21   1     0.17417084661873491      27.666288074547104   0.0067119219523947143
    22   1      1.6331577746604977      30.539856793268083      52.080805450452104
    23   1      1.7021740273546846      28.563878042884554      2.5547978414675652
    24   1      31.817009722224679      31.370339842873591      2.6883097671065999
    25   1      32.059242453425583      33.172749368591809     0.15327389644299175
    26   1      1.3848890159729996      35.852371673352458     0.10076217793845445
    27   1      1.3938505867699875      34.338089765785078      2.7757222797932637
    28   1      32.061467863108319      37.002304528938268      2.7267487899308223
    29   1     0.13871110830560274      38.741143409785913      52.088362537316826
    30   1      1.5531465256276893      41.519612024147619      0.1493476014785477
    31   1       1.954916068473465      39.843399333125184      2.5835506610501122
    32   1      32.060130522489651      42.633023638413697       2.677378943956271
    33   1      31.963787561424439      44.272387412956633      52.014125238285587
    34   1      1.5219095166849288      46.996070185725152      52.087026780851971
    35   1      1.8279325271275895      45.347890082487524      2.5051298103522703
    36   1    0.092212928887241585      48.186356742522541      2.7001158956775924
    37   1    0.088681678423191204      49.803445356885533     0.12639502116319795
    38   1      1.4354232416828641      52.689884251497773     0.11405342972716517
    39   1      1.6229425843598204      51.199308457213256      2.6812093528973295
    40   1      31.939666367303861      53.987873875925288       2.623393814731203
    41   1      2.9118380857626125      55.489338075383856      0.2701478768319478
    42   1      4.4778567490920409      2.8059838381517035     0.12878456349828929
    43   1      4.5559648847497423      1.1119527790615462      2.8147530807369767
    44   1      2.9781657412283606      3.8848687430848425      2.6951678188273971
    45   1      2.9899414678788072      5.7041363876325439      52.053180523228278
    46   1      4.6699488807612815         8.4129378672119      52.069614331940883
    47   1       4.846725059282365      6.5314901143239776      2.4276111634073234
    48   1      3.1019371057392648      9.3943802708793296      2.3864478752038591
    49   1      3.1310848350158036      11.171175188047592   0.0067580888481059411
    50   1      4.7436837078256922      13.840929855161617    0.069614893311963508
    51   1      4.8426373482369067      12.104904017590597      2.5756231664907441
    52   1      3.4186773220145108      14.875476778615136      2.3580944963554265
    53   1      3.3240735199656255      16.727064961518064      51.966654411589587
    54   1      4.9329748819007735      19.599890460189659      52.023716881027958
    55   1      4.7946028727193832      17.719397891316223      2.4787877609410378
    56   1       3.350266068613712      20.490175621205008      2.4468891671321726
    57   1      3.1254232217503675       22.35297986456273      51.791963978545624
    58   1      5.0281272041385288      25.425535940329521      52.026695005305271
    59   1      4.7677348016777614       23.30715707361334      2.5194725588524265
    60   1      3.3122696925110775      26.150384821511608      2.5807087327113742
    61   1      3.3701757761021502      28.050806494186826      51.967325082184075
    62   1      4.6969642095612016      30.700365649694088     0.21213740083308127
    63   1        4.85410750966469      28.570057917398977      2.4456441930712454
    64   1      2.9509005529551962      31.489676074969157      2.7566221090404999
    65   1       2.964790224583866      33.400244406659731    0.030511752311783758
    66   1      4.7403906520058179      36.281534559451018      52.116755819309397
    67   1      4.6128026818982732       34.52060764530831      2.6318477789151427
    68   1      3.0181011611742568       37.06135054553193      2.4807222577790027
    69   1      3.2306764429109966      38.769405363198032     0.24922724951997599
    70   1      4.5299635891270142      41.443154926936948        52.0581533501406
    71   1      4.9765894341585755      39.955546858590758       2.514428311611594
    72   1      3.4356499328838996      42.830620053250421      2.3778192678303696
    73   1      2.7590562944631709      44.243171414680873      51.924348460325781
    74   1      4.7387037199583064      46.903662123467086     0.28014736695772546
    75   1      3.1046375935381012      48.301589990198799      2.4412503688266005
    76   1       3.068813048779643      50.214186323335731       51.88937563486882
    77   1      4.8008970692799089      52.979510410873033     0.10730809586654291
    78   1      4.7078975926669511      50.898265784732132      2.3388458862081571
    79   1       2.902756988500351      53.768033149501363      2.9559664189969221
    80   1      6.3297947340471001    0.073894523986911445      0.2802546521421086
    81   1      7.9636907382295092      2.7434688757276868     0.27851009970662877
    82   1      7.9405256122731425      1.0744458689187033      2.8428761623892185
    83   1      6.4035909166603142      3.8025659619560352      2.7848849880180042
    84   1      6.0251724951156724      5.3666065125854896      52.024936828212887
    85   1      7.8721074675795393      8.1316785036507166      51.904796946364868
    86   1      8.0223809305121918      6.4380606248055914      2.6109468721127636
    87   1      6.2333086062698202      9.2698723136124652      2.4381452787527831
    88   1      6.2734295796463675      11.112098406397564      52.010329169467497
    89   1       8.211698257220025      13.766732902863525     0.15255156880732676
    90   1      8.0144724119894928        12.0220541425328      2.5170462888875922
    91   1      6.4072941979562827      14.897257893402475      2.5502894379786625
    92   1      6.4516318301596209      16.650706265953684      52.123583738472291
    93   1      8.0456924529845359      19.477266441332084     0.15996816944869857
    94   1      8.0145234424831884      17.883927728204398      2.7018275590916443
    95   1      6.4813427879988827      20.676770287831967      2.4428273131366618
    96   1      6.2528981272825552      22.398723695388163      52.083127195732061
    97   1      8.1609363511360886      25.017874667827126      52.100692159405327
    98   1      7.8569219311773182       23.42974702192954      2.5437273141986734
    99   1      6.3558400818922367      26.018652913650897        2.56194757872789
   100   1      6.6888398637750894      28.179666601844946      51.988811831133539
   101   1      8.2559845577964577       30.70972727019133    0.020242831409909477
   102   1      8.0087265005888266      28.723357513827963       2.410814080314378
   103   1      6.3286398317286281      31.395203396737248      2.6254552735489773
   104   1      6.3543627602082928      33.277217686555467      52.001665580058571
   105   1      7.8730314441227209      36.030186447184938      52.051852245115008
   106   1      7.8158927921614154      34.090747166159268       2.651357397898749
   107   1      6.6180102134798275      37.164099280350584      2.6926275516697569
   108   1      6.3530586319580848      38.918153385815906     0.18653698300836946
   109   1      7.6504623667210865      41.739299674506832      52.118014404295423
   110   1      8.0681694384357936      39.854621676427897      2.7357087588562723
   111   1       6.705671766833551      42.291191365855774      2.7931829818104066
   112   1      6.0876089395566373      44.180463501525558     0.54938708513203249
   113   1      8.2643034110165594      46.813314637081916     0.19627514941479826
   114   1      8.3375206629685152       45.26552755874588      2.6282497306315968
   115   1      6.7363759146675388      47.842460348698715      2.3510766856251424
   116   1      6.4452956257083054      49.767359595579585      52.041035813758384
   117   1      8.2932679347066784       52.57029770616343      52.070289579632103
   118   1      7.9661372369535037      51.050680927245267      2.6292324501092637
   119   1      6.1239977210465764      53.997302339448019      2.9012176847192195
   120   1      9.4311439390326015    0.092874216472248458     0.01698149577529013
   121   1      10.986678586137309       2.964127558615719     0.13834575948131245
   122   1      11.116069227008664     0.84730043489053031      2.6566589301646868
   123   1      9.5060959968219425      3.5941651795554175      2.7235344526084768
   124   1      9.4219374569710386      5.5082098665029768      52.000605103610269
   125   1      10.907887434771416      8.2062069434756086      52.105479832313996
   126   1      11.109220730597903      6.4087001001235455      2.6556503843770383
   127   1       9.499533145951558      9.2752248689969736      2.7537339786083268
   128   1      9.6382090695404674       10.97809057832445    0.096730423543346294
   129   1      11.232797987078502      13.522793385851022    0.027107349288456699
   130   1      11.258221466955737      11.990779672634821      2.4828525811166426
   131   1      9.6653440817604626      14.519210644993358      2.6142998630684673
   132   1       9.719983470439935      16.653455162321372     0.16876894876295551
   133   1      11.060512723486219      19.508948235348019     0.17052280230489542
   134   1      11.362729632814755        17.4521815869299      2.7036043501877982
   135   1      9.6175392339416739      20.391636833867157       2.668183906228847
   136   1      9.4998000036401802      22.331444063925506    0.033151324638375966
   137   1      11.243082564784144      24.978210235194457      51.941767192374151
   138   1      11.040929626777521      23.348321310541792      2.6061259763169482
   139   1      9.5935473274077872      25.955888550296166      2.6016635293375026
   140   1      9.7942121743126211      27.850394086933086      52.084666950035569
   141   1       11.04605517879582      30.604547316095154      52.023289548563824
   142   1      11.188516357553732      28.556007883735582      2.5793335140429243
   143   1      9.8044889690585126      31.280834099038877      2.6401278565509361
   144   1      9.6350615365024588      33.294652828974478      52.006693571516408
   145   1      11.280188857016114      36.158829846968594      51.868569466403436
   146   1      11.157875900329083      34.177540403479128      2.5582665695890485
   147   1      9.7075972555855596       36.90994856455994      2.4460901714358045
   148   1      9.5222566989857764      38.800749050449681    0.022918509458809508
   149   1      11.080060573366305      41.600466565493988     0.16688701915829748
   150   1      11.211290548317024      39.598917156421685       2.583618018978235
   151   1      9.7785981220470077      42.207757382193371      2.8573508614930239
   152   1      9.6458308213082145       44.34422199031188     0.17671821120861336
   153   1        11.2461012725202      47.010389975792975        52.0164782656352
   154   1      11.323933246766169      45.511315013275095      2.7613505095170345
   155   1      9.6354817026770476      48.275242869804636      3.0576346427102732
   156   1      9.6002578760054682      49.602605091659257     0.27624282189844523
   157   1      11.340981827047431       52.80349034621792     0.14030441078186348
   158   1      11.143719850525109      50.953869905033017      2.6820516799836009
   159   1      9.7383799219298535      53.685354265701996      2.6559366868459144
   160   1      12.612768507105342     0.14547149128909259       52.12295875792703
   161   1      14.025407442573803        2.76201595566154     0.01701305985343636
   162   1      14.423044731329062     0.98606256031946282      2.8171980137210331
   163   1      12.847247306161504      3.6660825091053479      2.6279081115184635
   164   1      12.647196062361152      5.5904810669195948      52.056414467718092
   165   1      13.952511534236301      8.3170066931927007      52.126780104147826
   166   1      14.468401365664814      6.2995238905007023      2.5827415161949219
   167   1       12.67418380798045      9.4743452894074736      2.8040716349060384
   168   1      12.669219497330335      11.018889609256435      51.941157706543351
   169   1      14.408279044586191      13.745836649130942      52.088071483155339
   170   1      14.458652884999095      12.107342040023632      2.4928393613677584
   171   1      12.717149292165384      14.667210386655313      2.5072499511528172
   172   1      13.074558577054091      16.541864048509193     0.24369676142357069
   173   1      14.292576920113001      19.421748794256562      52.085699082333591
   174   1      14.513453932703671        17.6454375093649      2.5918993648106841
   175   1       12.75312023527181      20.430984367254204      2.4468527199344616
   176   1      12.944917309642211      22.265575917129244      0.1519083759295666
   177   1      14.521564558338101      25.090628959300354      51.947675475123596
   178   1      14.494200963782225      23.058970747801006       2.699372992279228
   179   1      12.737574920068221      25.829400952181089      2.3741273263996705
   180   1      12.892121111026555      27.823810086236413      52.048486648019839
   181   1      14.493488294465292      30.816959305739996       52.10610529064509
   182   1      14.464742641879885      28.651120372142088      2.5154281899229138
   183   1      12.834879274308735      31.363979765155833      2.6249462250845186
   184   1       13.09968299264172      33.348204963906284      51.940671130983461
   185   1      14.462271976647658       36.08248045457173      51.993169950921185
   186   1      14.527637663399545      34.315892790254956      2.6506547795596607
   187   1       12.94721251094078       36.93788132230528      2.4137312476590047
   188   1      12.908089833222336      38.739183397551031      51.850167128083243
   189   1      14.408108035954751      41.380981969336077    0.055318283408288274
   190   1      14.518260421905897      39.804135716657846      2.7173783823192532
   191   1      12.715866393304491      42.646510742774922      2.5222321638004708
   192   1      12.979255464285307      44.053914932080275      52.103399132476348
   193   1      14.540519141631773      47.194339091580808      52.094607969501212
   194   1      14.560774458056267      45.327245105443723       2.454328384524127
   195   1      12.625021916146633      48.159001121143469      2.4544761832596276
   196   1      12.587182968059393      49.913804456369384      52.045409364484989
   197   1       14.58700114428825      53.077939305730112    0.080883175636019128
   198   1       14.39130956503579      50.891567120731033      2.4699747013255475
   199   1      12.851209818582792      53.665315791199689      2.6758053068986936
   200   1      15.795772668996651     0.26780775344441604     0.19753542468865251
   201   1      17.544342360500536      2.9095261542002104       51.94965050394125
   202   1      17.549972600938691     0.47802910666263193      2.6509466821350181
   203   1      15.896140493913311      3.5776626605014341      2.6943443087496437
   204   1      15.894354803749529      5.3555732871801824    0.057728511804922555
   205   1      17.388565512813159       8.349272222870125    0.039465275377888583
   206   1        17.4398562136438      6.5360135782614126      2.6768608658623831
   207   1      15.948381186759194      9.1641319413381321      2.6003044163150015
   208   1      15.924222273632548      10.913501410721359      52.053932276595958
   209   1      17.598308327865489      13.813711190117656      51.751642102835838
   210   1      17.554773401746079      12.126017070243185      2.4767292060035677
   211   1      16.161611075851301      14.960966142287226      2.6452369580410773
   212   1      16.432680905428604       16.82304211841933      51.980706496860641
   213   1      17.684823189341412      19.492355088161965      51.990818031686459
   214   1        17.8601616849385      17.568735132977341      2.5491173474616611
   215   1      16.028848539226196      20.253700633945932      2.6588097449718489
   216   1      16.067957877006688      22.154782564882517      52.087106697145714
   217   1      17.582319032703143      24.977504586258171    0.056568780127667972
   218   1      17.773906670032105       23.45821719511023      2.5451075019037428
   219   1      15.917902849983093      25.894418360364426      2.4918438474200011
   220   1      15.929433503224811      27.903079754726487      52.012613038145275
   221   1       17.81518036095401      30.901013676726439      51.924059116741617
   222   1      17.499012973412068       28.99429180411148       2.338427773458327
   223   1      16.052011638276575      31.645107344832557      2.5829676875411662
   224   1      16.151469595505525      33.685077671931417   0.0092417683378689386
   225   1      17.886915549497122      36.235189917230471       52.10873864592125
   226   1      17.688510186540878       34.56742909732079      2.4567355787928822
   227   1      16.181591995765132      37.222060624053036      2.5448880410783601
   228   1      15.949105114097831       38.77722404756458     0.02424113770933493
   229   1      17.415761103259985      41.500521410632956      51.877977594589154
   230   1      17.982226214178151      39.784884369021064      2.7802184796051699
   231   1      16.321973233982302       42.43858909947722      2.7412720600788316
   232   1      16.195160983380674      44.459452057580279      51.910252277306824
   233   1      17.602171836135135      47.181794260931532   0.0051652373304381391
   234   1      17.749661172614609      45.240475132796526      2.3731647129174838
   235   1      16.011113416824791      48.051436071448755      2.6007766811439139
   236   1      16.056089703994452       49.85508174647866      52.029247466195166
   237   1      17.814835823349576      52.897292586697525    0.021548184506571835
   238   1      17.726938551072671      50.955623037653417      2.6683361082889827
   239   1       15.93318079793964       53.67664095684114      2.5647700286443467
   240   1      19.268533366982727     0.13205020663854142     0.10449267506989393
   241   1      20.739111377574122      3.0092503649243416      52.107126185597402
   242   1      20.871264441838587     0.88168443610603853      2.7117546452372885
   243   1      19.060390317477484      3.7153403899937691      2.5306140730538038
   244   1      19.128195708499653      5.6486759654846637      52.011299176530983
   245   1       20.77565647877989      8.1390247877045176    0.020259087335146985
   246   1      20.848532430985404      6.6574008723881493      2.6710083037546219
   247   1      19.131125140879526      9.1382597041392337       2.706269166079514
   248   1      19.181936678735301      10.795909315739939       52.08368528975511
   249   1      20.804989099845784      13.740073389873453      51.942778098216827
   250   1      20.853963471626553      11.879158918410798      2.7962763684546394
   251   1       19.30864809335883      14.368539648241324      2.4545294258755361
   252   1      19.697891747133031      16.426451472341164    0.014410900572829182
   253   1      20.921232348747484      19.275540502422938      52.069026459867821
   254   1      21.012764127425495      17.688162833467903      2.5667084442589352
   255   1      19.544791327961359      20.638194935825073      2.4730676612529501
   256   1      19.162372001976657      22.279716870727039      51.906800325973478
   257   1      20.860209936225445      24.940291473747472      52.075554032780026
   258   1      21.132769774640295      23.079151303335074      2.6153286594473295
   259   1      19.283740395673263       26.13314675214669      2.4294705539287058
   260   1      18.880696996721248      27.945587752554136      52.071108945884724
   261   1      21.066729364869872      30.974477529770567      52.044227288660238
   262   1      20.885586205450338      28.771707488935732      2.2697497592392089
   263   1      19.199440980747259      31.589218502175001      2.3172305408724116
   264   1      19.563964881935807      33.808739130495042      51.834997650762766
   265   1      20.865769397302621      36.325643907277353       52.06226213840025
   266   1      21.117380408105156      34.140313841149144      2.3586171195842085
   267   1      19.370910528452228       37.07564760402807      2.5951478188195054
   268   1      19.290853008466733      39.066459649105383      51.993630363099108
   269   1      20.965398584984918      41.728637616897096     0.24878070531305568
   270   1      20.951360985866028       39.89992978594092      2.6108490272492748
   271   1       19.39021950870486      42.910433754624634      2.8626695471876138
   272   1      19.451928320617384        44.3712943038595      51.930821619626585
   273   1       20.59905160119931      47.056385816191472      51.992274409648608
   274   1      21.054745780385637      45.390902785337197      2.4959794211290771
   275   1      19.274218267767299      47.958323158003289      2.5107094317378342
   276   1      19.376430364374254      50.010020420688129     0.10716144648278897
   277   1      21.021919336924842      52.637792711496687      51.964473593568307
   278   1      20.664350671714725      50.893476535107325       2.522974085206668
   279   1       19.37132721211287      53.619995992971518      2.6999187567929712
   280   1      22.498993116135736      55.439068453778248     0.11375521796440588
   281   1      24.220543382191668      2.9491767687732868     0.14970813368719818
   282   1      24.223882793326187     0.77654507537039297      2.6595361396306187
   283   1      22.254300764117048      3.7303655644005382      2.7168912028004479
   284   1      22.534369680137502      5.5286382334433108    0.035992231247487044
   285   1      24.166493036573723      8.3287292680774812    0.058035563340389562
   286   1        24.0527917077059      6.3868405828190271      2.6020112887671947
   287   1      22.583593983228937      9.2131164219691328       2.582285865260213
   288   1      22.166410274404246      10.999536137678509     0.13133261935078228
   289   1       23.86579987050861      13.964073130724577     0.17375021161943985
   290   1      24.168292433004282      11.728647967066824      2.5716863780295598
   291   1      22.743695753391471       16.83381058301331       52.00964811791534
   292   1      24.002052437619405      19.471684941409311      52.104475816234462
   293   1      24.105928969064742      17.582867986582333      2.5883470895627601
   294   1      22.643052394163281      20.282479206149322      2.5726683942757997
   295   1      22.179284536898432      22.125033337202051      52.079282984334938
   296   1      24.115606319973701      25.050825881652848     0.13509551103461057
   297   1      24.149972505601536      23.002445538893262      2.6203610113157261
   298   1      22.255463888163611       25.90092441648374      2.7362178418250496
   299   1      22.353785624014556        27.8011293632511      51.861501331016044
   300   1      24.148650871898553      30.520828465543413      52.051583756635111
   301   1      23.823358067170425      28.540450692144024      2.6424293160360359
   302   1      22.526777726923285      31.534212305150383      2.7825729319676986
   303   1      22.644525947173346      33.412490377809647      52.079040487595513
   304   1      24.104048144192561      35.997368993010241     0.05387999716463724
   305   1       24.17237926102808      34.137273187976518      2.4432611927239858
   306   1      22.582360088010507      37.038097808304428      2.6432476414340766
   307   1      22.465711920776595      38.572075138678294     0.14376654092156185
   308   1      24.153611064610381      41.549036110636017    0.036380878311520579
   309   1      24.122622970328393      39.646924833557719      2.5121424196781432
   310   1      22.399930878416367       42.61422474955608      3.0392767865185362
   311   1      22.525494765658546       44.24897566243461    0.037544209360437418
   312   1       24.17243508247644      47.203064636751542     0.16730890885671387
   313   1       24.07766189444925      45.307624290637506       2.736865922462854
   314   1      22.481096629846608      48.104938450396631       2.664215287658974
   315   1      22.604291324820991      50.191825941149993      0.1655338191339788
   316   1      24.066482460183327      52.690600399406257     0.10596484097396784
   317   1      24.060847873467178       50.82270527281468      2.5258277231563642
   318   1      22.489441583893342      53.589677003858519      2.5205762233661351
   319   1      25.608563454822036      55.376401400489705      52.075338408236767
   320   1      27.466707719407278      2.6831092905711187    0.046007812991098192
   321   1       27.16728856442527     0.76733174094941825      2.5992695119251477
   322   1      25.600055744953451      3.5501290575858397      2.7220880962719107
   323   1      25.615246644495151      5.4199892702070516     0.24835862140783913
   324   1      27.225874428891803      8.2789446734799839    0.092988617980312188
   325   1      27.119394151196524      6.3321875584689655      2.8063107676631196
   326   1      25.628103577146788      9.1159362462535967      2.3778299149193267
   327   1      25.652500257830827      11.181196407566377      52.026387558718476
   328   1      27.487337896061582      13.656237880599196     0.18669252739425984
   329   1      27.115142626700852       11.88667866843261      2.5605427387486186
   330   1      25.408235921747753      14.423894785950919      2.6214856365268568
   331   1       25.77224144891596      16.648572322428333   0.0057163490711162933
   332   1      27.431770404696859      19.260233212127353    0.088818675576411349
   333   1      27.466306300043893      17.468438985624804      2.8400637544441705
   334   1      25.717641808458577      20.343083491757895      2.4635559039181545
   335   1      25.639450107305024      22.066045791951865   0.0044043325755170389
   336   1      27.167200509637137      24.897104202610464      52.004323559223742
   337   1      27.155248918832719      23.223871170447769      2.8701619192337682
   338   1      25.532486781309601      25.910184991162936      2.7743957027481825
   339   1       25.62256862651428      27.741559378892202    0.048819305421978293
   340   1      27.322025058392562      30.330304038768315     0.18630504753271077
   341   1      27.334156800246713      28.597662440456087      2.7113158445886905
   342   1      25.540687862553902      31.206062626810422      2.5187962727305857
   343   1      25.983273958782782      33.411864667718625       51.96409476457989
   344   1      27.426937699447155      35.921482660724742      52.086692224918465
   345   1      27.275407232715438       33.90557903808039      2.6067296535900124
   346   1      25.798176707683577      36.830848397603887      2.4539149424748041
   347   1      25.630887661668957      38.703784641338366    0.042224674354952745
   348   1      27.366255469679253      41.583568048308607    0.045772549857871887
   349   1      27.138132855062175      39.894089313492074      2.6161072312841562
   350   1       25.65488551228195       42.60920127392022      2.6791849563513956
   351   1      25.917705127081224      44.482610910000389     0.10383539174768622
   352   1      27.449225861513739      47.347760804158732     0.12113147516414928
   353   1      27.591160268434908      45.523375123525192      2.4971292136781735
   354   1      25.650318372994192       48.30530781357411      2.6900947497660392
   355   1      25.831915021721727      50.160228451838314      52.116684282865101
   356   1      27.179028849313553      52.861888420414253     0.15957772780454821
   357   1      27.223560786316369      51.069891564174846      2.6564554288841862
   358   1      25.573700179394603      53.668115751171854      2.8535434600037912
   359   1      28.750614742053301       55.50427078422068    0.027835672858307497