dump/Mg_500_5/steps_91 (written by ASE) 

3995 	 atoms 
1  atom types
0.0      32.100000000000001  xlo xhi
0.0      55.598830921999998  ylo yhi
0.0      52.130399999999995  zlo zhi


Atoms 

     1   1      32.097507000129802    0.073034701786681505      52.115696503858487
     2   1      1.6238646724751447      2.7008809775108458     0.31231048391688543
     3   1      1.6739773308471173     0.83108057221537823      2.6611635782539009
     4   1    0.053382824893197046      3.5335706866772387      2.7961726432244993
     5   1    0.082738667695059956      5.5660744461283773       0.124849123591723
     6   1      1.5848204258979877      8.0093360556599045     0.14560915173007477
     7   1      1.6803859214926677      6.4338003522364042      2.6856685836677983
     8   1      31.912686694097776      9.1066833176032969       2.535789693878467
     9   1      32.087817309939439       11.08527955371656      52.043557568250165
    10   1      1.5956820564092278      13.750795453163688     0.13136289185799538
    11   1      1.5393029014437623      11.980915572505406      2.6750378266057995
    12   1      31.972356080990654      14.586642009029216      2.6309152541463039
    13   1      31.941847053003261       16.50355343321225    0.085271493769110515
    14   1      1.5336410199877717      19.437282911395268    0.071622344806402977
    15   1      1.6471268952152205      17.452234568774891      2.7790092641194502
    16   1     0.18568755438626705      20.212562046934377      2.5930223080459682
    17   1     0.10974542607540495      22.267201367329111     0.05532379431441415
    18   1      1.4339870264716805      24.976925962721154       51.94698014627798
    19   1      1.6039769699170989      23.132864049795963      2.5727411440221477
    20   1       32.03537227308145      25.648863258212028        2.51625068842913
    21   1      31.977178052691947      27.751483410166596      51.937194108165023
    22   1      1.4332934368958992      30.466848902065376      52.006147328164865
    23   1      1.4631383319664371      28.276613034386912      2.2922816000376027
    24   1     0.10553949438148251      31.451782442259294      2.2185340622624552
    25   1     0.12618276474860807      33.469077728815442      51.928180153977785
    26   1      1.6718866914486223      36.070624286887508       52.03510289339107
    27   1      1.6407342339130806        34.0486718535603      2.5372903345567184
    28   1      32.058516669910205      36.820403065604872      2.4725521486516975
    29   1    0.019106489240487998      38.654820169709765      51.874895380495772
    30   1      1.5330157880842352      41.627645178975875       52.11415033073844
    31   1      1.4293705882179815      39.629936717623174      2.6008443960571896
    32   1      31.849454666201446      41.961047138469091      2.7807483261842703
    33   1      31.981585094014157      44.571070053932985     0.22870208146862261
    34   1      1.6298564664178621      47.112205643301294      51.859648013221992
    35   1      1.5573873163596137       45.68839865209727      2.7531414870341369
    36   1     0.15543771376668797      48.240679496515014       2.653054157225482
    37   1     0.18482366833096964      49.895610166230625    0.054369915681468005
    38   1      1.8355176405231004       52.55750130028504     0.15262904711499048
    39   1      1.6225487209302771      50.872889518163568      2.7869311366382141
    40   1      31.944506756262026      53.719953785453512      2.4572294953419647
    41   1      3.2451330021826972       55.25743998258362      51.963558664890314
    42   1      4.7240731583968731       2.678263789341806      52.004203676057784
    43   1      4.7923414474018182     0.85129810096653269      2.6326626735397385
    44   1       3.319761818620282      3.8423770088809772      2.6849573863297072
    45   1      3.4763550404277761      5.3962595057122744      51.866455140190865
    46   1      4.6238751551285437      8.4991463960906071      52.101364103891889
    47   1      4.9108636060280713      6.7165451442624375      2.2375279556330914
    48   1      3.2211224365314379      9.2832301873038912      2.6919589734936586
    49   1      3.2611382886251796      11.246909299126234      52.027670290225537
    50   1       4.821086436400809      13.818018533375438     0.20483673846870712
    51   1      4.7333566020950881      11.796123229518304      2.6876858149079452
    52   1       3.075397128137924      14.745160508854804      2.6655133331773291
    53   1      3.1556167076607062      16.679021746150713     0.19616650546436742
    54   1      4.8662199555647918      19.558802800264775     0.24567312154072021
    55   1      4.7689084960410852      17.390755312183114      2.7289727780897231
    56   1      3.1673892240823442      20.218414296388136      2.6303663207884935
    57   1       3.224614960546897      22.533415481023681      52.082016060517944
    58   1      4.9078264003663383      24.847819959849296      51.982658176804406
    59   1      4.6698320971200022      22.930140663428009      2.8213103182800401
    60   1      2.9692784752043635      25.630387782374132      2.4651681455230103
    61   1      3.4331668112937606       27.49368336828881      51.933040941740281
    62   1      5.2180927410780669      30.294724748076309       52.02814634096989
    63   1       4.833371529941882      28.405797438296847      2.5650547279485076
    64   1      3.2029738982557006      31.168450804085218      2.3580851960134925
    65   1      3.5250444218209531      33.021219550136095    0.061177232447803549
    66   1        4.81717083575034      35.968063000824358   0.0076929475122317729
    67   1      4.6659872515112806       34.35386557249327      2.7670466927464674
    68   1        3.24325848714183      36.971415344782123      2.6455863626428071
    69   1      3.1362908940921166       38.60447961219532      52.024983394963392
    70   1      4.5562336866939557      41.551035255355352     0.16886738584191538
    71   1      4.6761874542045554      39.707545327944061      2.6132414961040493
    72   1      2.8184089080694457      42.561854019678591      2.7228072571852109
    73   1      2.9841982154365283      44.304096364830684     0.14293484647534294
    74   1       4.564513570838586      47.245540900093246       52.13024104752747
    75   1      3.3658474152264102      48.479019078741857      2.7693046648017798
    76   1      3.0632211470615114       49.82609290890727   0.0025582973171795844
    77   1      5.0404027337470509      52.376621242190147    0.016353373242081779
    78   1      4.7477230730710094      51.011017093330302      2.5031365742278222
    79   1      3.3534140505433214      53.477358724868232      2.5137729116016621
    80   1       6.364467453080433      55.353102034167506      51.972099516292147
    81   1      7.9103270355887334      2.7655367357729816      51.974281184321534
    82   1      8.1653382915463446     0.71733869168770992      2.3325785377517141
    83   1      6.5970259485028349      3.4516612146678884      2.6291047159368013
    84   1      6.5609593425471919      5.4119382823934625   0.0090111160293094347
    85   1      8.0675417495981208      8.4290663221912521    0.030801007246737292
    86   1      7.8934787664147272      6.4214085797510796      2.4941557171695083
    87   1      6.5284654490222538      9.1398792271845863      2.7424137792398553
    88   1      6.2705496506615619      10.964268152319431      51.937968266664328
    89   1      8.0655186397473155      13.734157662004423      52.116082236626319
    90   1      7.8673013689304643      11.884352014747696      2.5726581660154451
    91   1      6.1500584763090611      14.478150354030499      2.8518076444266445
    92   1      6.4580045286003998       16.50228367325828     0.31385435522792937
    93   1      8.0535433580760305      19.404034813925296     0.18474956329035713
    94   1      7.9644695701617243      17.195577350525316      2.9420560634173745
    95   1      6.4113347498708677      20.188408340698341      2.8624373971415622
    96   1      6.4073087090391727      22.085038930217411      0.2057173229729449
    97   1      7.9402015819835228       24.70465208466182      52.107424377903328
    98   1      7.9264848974544915      22.900885698880941      2.6694715931503694
    99   1      6.3700635410709099       25.66165535090315      2.5186882082061524
   100   1      6.6231028857165857      27.474131833261033      51.971134483886608
   101   1      8.2857322613462614      30.580590308680595    0.052764856006339025
   102   1      7.8252686788530594      28.662536133445379      2.5101530255697688
   103   1      6.2075367418759084      31.367877363180526       2.729908282640066
   104   1       6.419521772828757      33.295081673556737      52.091904272405394
   105   1      8.0082464977421655      36.190441731212793     0.13421104086532704
   106   1      7.7410193448605602      34.209812341302786      2.6210408895788504
   107   1      6.3945390862379856      36.901266121933375      2.5187074295232534
   108   1      6.3750580303723181      38.754116886138064      52.034375351632633
   109   1      8.1109670592670167      41.741301221713762     0.10206528038994289
   110   1      7.8045012516227468      39.886970172817229       2.748235999997708
   111   1      6.2525160075809616      42.315118599595827      2.7814063513374538
   112   1      6.3850337483338713      44.260980460985095     0.32700422374326388
   113   1      7.8932055434028463      46.978637155028011      51.992056639345151
   114   1      7.9355261469550609      45.786187020734324      2.8897068527761856
   115   1      6.3804444558281297      48.296920661350754      2.9192293288476066
   116   1      6.3038482435075336      49.813400556897719      52.090496815894134
   117   1      8.0522972265078891      52.548677680964175      51.979324969016638
   118   1      7.9524577889612882      50.986343591061889      2.3921367515483865
   119   1      6.5454823660757633       53.68146503530771      2.3342214727903832
   120   1      9.5054322553359434       55.55630189323935       52.08834953267678
   121   1      11.416281480619947      2.6837001764220094      51.625414075959611
   122   1      11.481112588814431     0.61023536588185046      2.5170614946772965
   123   1      9.7780371094118692      3.2633563213987649      2.2238174834478714
   124   1      9.7440312293759472      5.4174619379384383      52.121767095935141
   125   1      11.178949403657858       8.248189838002725      52.116563221618499
   126   1      10.915790881741181       6.277811197612678      2.6739023968790154
   127   1       9.668902038058194      8.9541492407207386      2.4673246732246445
   128   1      9.7054987470479741        10.8698738528382      0.1380890823473748
   129   1      11.396510475089542      13.949677653604276      52.093168840939136
   130   1       10.95490176688879      12.156636822703545      2.5250279719387119
   131   1       9.467638153218747      14.587360054673312      2.8723114746451852
   132   1      9.8641404295701083      16.638646393886035     0.42622817559590981
   133   1      11.282221155223208      19.584985784355386     0.19824887250597636
   134   1      11.185683717061869      17.531594611620974      2.8967383416415022
   135   1      9.4636193569914031      20.025313266094319      2.7602154634863307
   136   1       9.586978284733318      22.175229824107099     0.21547656595843781
   137   1      11.325823669104748      25.065526850745975    0.031846930088492716
   138   1      11.237004556871762      23.219605681175604      2.7031381676368347
   139   1      9.2647830108479745      25.848737113344669      2.4758649725870225
   140   1      9.7959548106315726       27.66110659630877    0.032152878155490096
   141   1      11.323853114357458      30.680676962561659      51.970473755629492
   142   1      11.155481606174195      28.742516815052831      2.7425169908937903
   143   1      9.5990678913636547      31.389923884378693      2.6859114774054169
   144   1       9.681406051068798      33.547476027920332      52.065679043824879
   145   1       11.16729012593782      36.315357842083465     0.17322350252708119
   146   1      10.949375713547941      34.278773633465271      2.7559223300476181
   147   1      9.6396353997641011      37.049894649243825       2.641119139185967
   148   1      9.5781985397263902      39.019718668514422     0.22842753259156665
   149   1      11.415212679134067       41.71206078996336    0.056930186329146482
   150   1      11.421789949879164      40.046730357936532      2.6043017116177647
   151   1      9.3336821246661348      42.762330684620537      2.7363412060689316
   152   1      9.5069505607176197      44.288281265132433     0.23110085817732964
   153   1      11.152487675807013      47.326821955686846      52.066032782653693
   154   1      11.290451969113866      45.555745551815875      2.4672716815799336
   155   1      9.7324281733573592      48.236053102240788      2.5598428492316869
   156   1      9.4441792103658475        49.8913763359797      52.043712791085667
   157   1      11.258538930346756      53.074162850215068       52.12096357752101
   158   1      11.137969387490397      51.017103596404553      2.5788579179412512
   159   1      9.6835883121933204      53.663615193780068      2.4464863955164469
   160   1      12.820235015301028    0.026954509391359155      51.937672537538198
   161   1       14.35527837078264      2.7971498343166892      52.056058419103145
   162   1       14.59066740912132     0.80340762349176187      2.7412444132127081
   163   1      12.713348102339477      3.5217785212175645      2.6986470593157241
   164   1      12.930591632145452      5.3134053102740673    0.082981567372968523
   165   1      14.521713037368791      8.4365503563151965     0.11476221808070622
   166   1      14.302183941888272      6.4743318669255929      2.5485866548215155
   167   1      12.705986810297317      8.8605360024732533      2.5727158184218482
   168   1      12.883463857386319      11.075904085205154    0.049010129577884511
   169   1      14.383224921011097      13.790572574225374     0.19399639297663529
   170   1      14.446643559360636      11.896068567715764       2.767602159060059
   171   1      12.875774826945266       14.97971340146983      3.0058995699288076
   172   1      12.967400259722035       16.54937946728511    0.083074873140710576
   173   1      14.325762049910086      19.431130999952686     0.13160900549682478
   174   1      14.267720839962525      17.658807820950866      2.9354696287259876
   175   1       12.82027453657752      20.550994650703494      2.8212727850675199
   176   1      12.772474079941947      22.328101381711203     0.22728547235222057
   177   1      14.266861599917048      25.120045175002851    0.048004052052043215
   178   1      14.452041915934746      23.008928444816942      2.7933620848637908
   179   1      12.720627886603223      25.952630774752727      2.7564273788441023
   180   1      12.813511491842455      27.771174173017393     0.19240764006460717
   181   1        14.5938670076262      30.543141986880222      52.065652098438882
   182   1      14.286425385880905      28.775877196170526      2.7196136601759546
   183   1      12.747707607234613      31.570262283784881      2.6940693713286055
   184   1      12.749682101127719      33.504338212893167     0.13827323709483191
   185   1      14.476265078378521      36.062560543436305      52.119604816970629
   186   1      14.442909548077228      34.199947975248676      2.5642421369760622
   187   1      12.759537836251184      36.882906496108816      2.5484591370151879
   188   1      12.993313119907819       38.89650254826762   0.0081218538076823187
   189   1      14.588469203727517      41.744112638779718    0.050660095585450295
   190   1      14.473143266368606      39.912636341910947         2.6252415715369
   191   1      12.684072063672918        42.8471488700837      2.6117993722833024
   192   1      12.518880829075625       44.58219184559475      0.0478745418554644
   193   1      14.104772592573545      47.706365499937775      52.035893015429721
   194   1      14.445829843169797      45.167018765901595      2.5463414697925613
   195   1      12.773202118631822      48.148955261420141      2.4556018725277324
   196   1      12.630825544338963      50.447169620626887      52.083949012727629
   197   1      14.557429441888928      52.835115325586614      52.096653555737198
   198   1      14.435993672384308      51.041385748702616      2.5029422021426249
   199   1       13.22329926072727      53.699869808112815      2.7017996091126122
   200   1      15.923647144916224      0.1976892747110961      52.017006508338397
   201   1      17.480353830372419      3.0246851008042968     0.13829393748674923
   202   1      17.635537236855765     0.92027490817391422      2.7302123941729666
   203   1      15.647491808606924      3.8394641700767402       2.682506388770272
   204   1      15.976526515799586      5.6389879567032244    0.010278784460717087
   205   1      18.035603896626171      8.4273850343396894     0.34861911997170703
   206   1      17.488524741530448       6.533685871446127      2.5002308220102964
   207   1      15.975629109889104      9.0500609723453866      2.7600598389676865
   208   1      16.342348982589055      11.114252157985245     0.28879822488087442
   209   1      17.663392241505449      14.086707633068199     0.35445086534956133
   210   1       17.53174377287251      11.803786397028274      2.9292964236293031
   211   1      16.135739874503514      14.711680483864257       2.708800969301929
   212   1      16.030691965147355      16.824082315080151     0.34984392221699262
   213   1      17.635243729807065      19.511788933093339    0.068321100560418402
   214   1      17.541736178906021       17.54006805737404       2.991564227334194
   215   1      16.082488020626389      20.313986991008179      2.7181570871002285
   216   1      16.126117123361777      22.065331461453617     0.12730943405735839
   217   1      17.490010573441666      25.051943041749016      0.0600271795339377
   218   1      17.811236675881378      22.983971463636777       2.515083978434363
   219   1      16.008146665578828      25.954519795294022      2.8054555608179048
   220   1      15.935549344995515      27.688113385070544    0.056818641769864738
   221   1      17.882348310115038      30.442939655753801      52.040946284752557
   222   1      17.613906645980364      28.675199445195588      2.8317830643893314
   223   1      16.224950091788447      31.434282527514327      2.4748155282483473
   224   1      15.950784439569517      33.352236083728187    0.029052906064102556
   225   1       17.61089354128092      36.027706789815447     0.14387939353941256
   226   1      17.811367440205711      34.266725040198978      2.4652133840795192
   227   1      15.924439177720684      36.799718988723789      2.7634869688982038
   228   1       15.96667840183475      38.782578710486604     0.23143303617541303
   229   1      18.005548369772534       41.52724149756105     0.08475835263740511
   230   1      17.612355709874155      39.737291007734818      2.6277043357028345
   231   1      16.182664140202956      42.741336596848129      2.3035849031537108
   232   1      16.112264834918953      44.750218022280599      52.004704156185078
   233   1      17.800559786353858      47.329155231181886      52.075751791568898
   234   1      17.569096564714698      45.553741986201871      2.4648207152830008
   235   1      16.083901562281032      48.143414210141977      2.5096019116599764
   236   1      16.113480899662726      50.021605688101715    0.096492372292929854
   237   1      17.640159395516374      53.093551239720803      51.971576317554813
   238   1      17.522037414464492      50.948223767804052      2.7053324723392231
   239   1      16.242027809153498      53.800198696983678      2.4223358424631312
   240   1      19.144879057744976     0.10654495925096351     0.14193136963985406
   241   1      20.701869142035356      2.7857410840554944     0.17724974317725142
   242   1       20.97572647285465       1.046884750707004      2.6284425879108642
   243   1        19.0723391400584      3.8500720144756899      2.6516839220247745
   244   1      19.121061446061674      5.3354481815512704     0.19333770368348677
   245   1       21.05649707977744      8.5509178081531729     0.17375905411242965
   246   1      21.091169829662366      6.3220828025206357      2.8189366162300615
   247   1      19.190953193396471      9.3915872974875594      2.8997596348622485
   248   1      19.337128300067697      11.302466778259552     0.33005042200515083
   249   1      20.897497677963269      14.077455093706799      52.107429009127152
   250   1      20.867280440052156       11.94617790785783      2.7639647869487378
   251   1      19.364504942518842      14.893410900758171      2.7317072611030326
   252   1      19.224258094278287      16.763692657594998     0.16047118668049823
   253   1      20.907651495107064       19.45212342382316     0.01311953387427257
   254   1       21.08568027916429      17.624338290485547      2.4310394262730664
   255   1       19.36499480990576      20.298022099062379      2.7386014357982953
   256   1      19.341333432598319      22.355008150630844      51.938393238777117
   257   1      20.753366192917145      25.173627839103034      51.957150231221043
   258   1      21.114144994352941      23.099544041504185       2.520037172378006
   259   1      19.122299209318392      25.887497841391106      2.5506552771611855
   260   1      19.362075657478659      27.858783055346734      52.090925740920412
   261   1      20.916581432458603      30.821952079572306     0.12042871411989889
   262   1      21.182441164960245       28.73273938484742      2.5665617543969144
   263   1      19.190499177210231        31.3967100564177      2.6556706979140361
   264   1      19.267659638706604      33.481748925333264      51.988977758361742
   265   1      20.588532035797531      36.019189942731394     0.15539853365041539
   266   1      21.027856656006538      34.234010643163849      2.8198283087836362
   267   1      19.299874193216155      36.979169825864034      2.7079557331614827
   268   1       19.30219206067769      38.777421122344236      52.095415849810493
   269   1      21.226372037925326      41.474346004381786       51.92265696955706
   270   1      20.941090444882835      39.606300165080704      2.5142170767412075
   271   1       19.71758576418949      42.544371080709219      2.5292184144945082
   272   1       19.37128792072339       44.58337200966286      52.112592923339676
   273   1      20.975755478310077      47.412766706963296      52.074384319024958
   274   1      20.928865957380243      45.492109371793269      2.6337334983645406
   275   1      19.435935230772284       48.11994147927615      2.4940146256360078
   276   1      19.476697598946703      50.330372466642963      52.106286482966908
   277   1       21.08151587086283      52.847878163589712    0.063538697993680268
   278   1      20.846498499990918      50.849600997822229      2.5866925148107409
   279   1       19.26244373285871      53.748402837047543      2.4928682598125276
   280   1      22.559166415577135    0.019397205379544594     0.11806314071705329
   281   1      23.931960279031919      2.8695348877324975     0.01558121100010685
   282   1      24.094977410606404      1.1396613572011012      2.6262415189339019
   283   1      22.376081745800658      3.7601793884912782      2.5720327844241657
   284   1      22.290888714158267      5.8817229810296592     0.29317700758988147
   285   1      24.238714079951279      8.6345698530546002     0.15744651410497507
   286   1      24.035565090500246      6.3945720417594867      2.6529730977524921
   287   1      22.266748544291982      9.1914429311076269      2.6362941848064367
   288   1      22.752624582527421      11.577671673567869       52.10615558908318
   289   1      24.371014408502823      14.020252091732837    0.040456750376565397
   290   1      24.054814622926017      11.980554192984053      2.6752708914370547
   291   1        22.6060266215759      16.683140139355057      52.123064279174478
   292   1      24.031629975646513      19.500191395464892    0.037817415526443993
   293   1      24.198214263797439      17.583784375595485      2.7094609540064085
   294   1      22.695475148649233      20.574111574596134      2.6066000571148562
   295   1      22.621206420156525      22.253162380169424   0.0069159738084938818
   296   1      24.007958951631995      25.114366341993282      52.079336179876343
   297   1      24.234332448561251      23.422292190182215      2.4202635225905094
   298   1      22.473810709854622      26.057868378209406      2.4011167396099418
   299   1      22.481436033545339      28.075121679268189      52.112024733840435
   300   1      24.199027391436147      30.497261162407689      51.948116159084478
   301   1      24.206447871252642      28.800981586730657      2.5077435700295543
   302   1      22.684463728294528      31.514083745294155      2.4297792776908649
   303   1      22.730085290540284      33.545380943085327      52.094750476855573
   304   1      24.181208043244197      36.246239223447837    0.045324631375148215
   305   1      24.152914358688907      34.292976677639729      2.6518925263765301
   306   1      22.625034912002771      36.939174959359505      2.5592108670331646
   307   1      22.366102020227871      38.774746340147338    0.062191495426668214
   308   1      24.132177810167867      41.488887343719988     0.07629158129464636
   309   1      24.029610166535633      39.793870887597159      2.7387890461217688
   310   1      22.685799766468374      42.587832587758605      2.7273746923760971
   311   1      22.477236132044137      44.313621425256493      52.119299210897587
   312   1      24.492385567671302      47.105218740082798      52.081032534097361
   313   1      24.008786978972569      45.450916538045149       2.673801442857644
   314   1      22.619852177041182       48.29373444918437      2.6289241222577764
   315   1      22.525915075179483      49.986774772483109      52.124170556916127
   316   1      23.977372667744646      52.794209337496824    0.055430896908016537
   317   1      23.884244572813468      51.096886926189278      2.3762353697386707
   318   1      22.392025239451421      53.981237650583992      2.6578716559046787
   319   1      25.944125313760026      55.505832306507124      52.092576323581525
   320   1      27.094121390436253      3.1195694091736468     0.16054286397788753
   321   1      27.215327913412775      1.0569109874804923      2.5561213933693994
   322   1      25.765893138436766      4.1014886758167108      2.6940296490950826
   323   1      25.498408662133546      5.9223854559326021    0.096684749907659809
   324   1      27.182585652968523      8.3536862361545001     0.17691020111500114
   325   1      27.231977646945502      6.6417348861788303      2.6428545502115393
   326   1       25.52443902676508      9.3179960475422945      2.8057081051026564
   327   1      25.714367581162431      11.164667336495643      52.042095842284688
   328   1      27.536764618448153      14.014943071428595     0.15976928354444522
   329   1      27.179216714270101      11.876829323246326      2.5015755551776073
   330   1       25.77065384353482      14.691772073746202      2.7580084672874858
   331   1      25.796643787719844      16.770034593927221     0.28666215324953548
   332   1      27.359848384977084      19.341638530786302       52.07246156462508
   333   1      27.540597716409536      17.540376144873363      2.8633808398185501
   334   1       25.99270297976588      20.506770713887121      2.5719191641415495
   335   1      25.590873789984851      22.181688774520278      51.906865140906127
   336   1      27.198467174564371      25.081190869835574     0.21546535230407668
   337   1      27.392038768456878      23.403203803283645      2.8006289245988398
   338   1      25.682322767738171      26.151570005546073      2.6672181121858274
   339   1      25.889441478082666       28.05513559279817       51.97181029743502
   340   1      27.346671437197571      30.590522553065718     0.18953603857560716
   341   1      27.412034228527968      28.838354070928478      2.8489723286549116
   342   1      25.721531113418195      31.575258618477296      2.7045731724143764
   343   1      25.595707551702425      33.174807906178422    0.078981166948298723
   344   1      27.118923334016589       36.04670105206813   0.0059252506388697062
   345   1      27.304779633001001      34.306478371824305      2.5212457774952606
   346   1      25.740542058548279      36.974708570494712      2.6047065025954224
   347   1      25.508693347031496      39.049600418595453     0.22493207638957718
   348   1      27.496195747282847      41.623637871844693    0.062744469843411449
   349   1      27.223721735182071      39.877919168237248      2.7332196352584206
   350   1      25.534523572013061      42.497574510945732      2.8025391733645026
   351   1      25.761124642014675       44.27291165608365      0.3979504626539172
   352   1      27.474665046963715      47.383298468472837     0.10904224701039698
   353   1      27.307823842289718      45.258444231145695      2.7997967561123667
   354   1      25.581305884288064      48.173625965319516       2.353840182561854
   355   1      25.660960961359468      50.170688681960463      52.108624690851315
   356   1      27.300652875645294      52.660942246508419    0.065908918799799432
   357   1      27.258334683651224      51.144146737080689      2.5570013984180116
   358   1      25.684887039375813      53.636797829015791      2.3976999505558982
   359   1      28.890921130598826      55.573760211835889     0.13531266025442773