dump/Si_1000_20/steps_1 (written by ASE) 

3980 	 atoms 
1  atom types
0.0      38.395898218429522  xlo xhi
0.0      38.395898217999999  ylo yhi
0.0      54.299999999999997  zlo zhi


Atoms 

     1   1      38.120921548745919      38.174874329188341      54.010793436538918
     2   1       1.767922318273685      38.385628281135396      1.0932296435320052
     3   1      1.9730451136829512      2.0630046564779154      2.5485034172860659
     4   1    0.067991347329557597      1.9428215647230689      4.0054567772724567
     5   1      38.136640910563706      3.6751828650573506     0.03879171486431688
     6   1      1.8193665278072899      4.1546923442723358      1.1547364564454381
     7   1      1.5010257142407386      5.7211696889180823      2.8110074928388054
     8   1    0.081796676740708965      5.7160036469126974      4.5628546338036724
     9   1      38.104723297539181       7.610410585133442      54.201589628752977
    10   1      1.7884882144868239      7.5187572361533785      1.3822388374729484
    11   1      1.8863493061331709      9.4065126929325267      2.9055578197110195
    12   1    0.063367901318163528      9.7184557285240132      4.1430193061635103
    13   1      38.322867955569478      11.456244829804923    0.019348293681639483
    14   1      1.7428329251156913      11.458798092445996      1.5872969768086251
    15   1      1.5359481638534702      13.423108679896441      2.9256241467506583
    16   1      38.068672998686246      13.505518762386126      4.3608383825045065
    17   1     0.15926446876800746       15.40301309645821     0.17693750222238128
    18   1      2.1228343948912962      15.304990879173365      1.4397963847953734
    19   1      2.0660913434980888      17.103597946333988      2.7453962126673424
    20   1      38.388318012828805      17.326886390131644       4.011087302426799
    21   1     0.28148520992204679      18.906563895048528     0.13073676498069045
    22   1      2.1279472154890038       19.20647244208039      1.3589676539858588
    23   1       1.922800984738946      21.204689190982471      2.6867814292893741
    24   1     0.15491242533944685      21.275004791886175      4.2723929939311365
    25   1      38.269592770508211      22.727294117360369    0.032327973164194661
    26   1      1.8944875394856011      22.864517358213018      1.1991704037190718
    27   1      1.8998592651604282      24.709447615884919      2.6852682162074193
    28   1      38.197135886152054      24.827456687930024      3.8864586442300384
    29   1   0.0054934327849515373      26.935755747170678     0.31816994502421486
    30   1      1.9869673486768169      26.704361585934635      1.6217630452663776
    31   1      1.8688190164291134      28.732674535054461      2.8612736610269973
    32   1      38.254132285553666      28.538465264135105      4.0422465163857746
    33   1       37.98594718125694      30.445500429836049     0.34761602808299596
    34   1      1.6084510812596717      30.587223842585928      1.6005579959007938
    35   1      1.6695855913720203      32.591186623340043       2.648261701119087
    36   1       38.15140718095067      32.640534667173725      4.1259271181878825
    37   1      38.224465085251957      34.485917093610787      54.239568266321704
    38   1      1.6459472601223661      34.445016607625057      1.3408976392905732
    39   1      1.9218228166626268      36.608318307222589      2.5130151305749129
    40   1     0.20732685967895462      36.556438891591071      4.1575592166291822
    41   1      3.8405276858891697    0.050430350572537551      54.251883209838958
    42   1      5.9094550844532474     0.13128983384366483      1.3326004464718511
    43   1      5.7017878858745732      2.0315204391301482      2.7512216747726144
    44   1       3.766604749417342      2.0079098154533916       3.853359881858704
    45   1      3.7696942666807831      3.8544881525488317      54.122445346826403
    46   1       5.814833353633718      3.9996224402949547       1.119550864204278
    47   1      5.5688662792010879      5.9008268465721043      2.4719167472201082
    48   1      3.7131925576528411      5.7434988618040927      3.8176001298477655
    49   1      3.8299091724452161      7.8516460452615693     0.33439166677020454
    50   1      6.0818472450086309       7.752996771996405      1.3033124615680118
    51   1      5.5845673499166679      9.6156341555645479      2.9610622852691328
    52   1      3.5336538090057457      9.4304243390924647      4.2622123685329587
    53   1      3.7415130718890728      11.752986293524746     0.20260689014831967
    54   1      5.9271489726525708      11.449147006651069      1.6710128319881856
    55   1       5.606281710671924      13.441300290335908      2.8359918065038161
    56   1      3.5982484956112559      13.109042481620232      4.0784185780977875
    57   1      3.8272214523655572      15.536930697972522       54.14795288592137
    58   1      5.7993136741271547      15.070130130073625      1.1459174839004607
    59   1      5.6134894783180638      16.928471181889044      2.6814972620597701
    60   1      3.9506482654516302      17.312009697159809      4.2339172810939001
    61   1      4.1612665353466545      19.400683836149089    0.024760151640862212
    62   1      6.0162434340267179      19.021341100402587      1.5477926682269756
    63   1      5.6860346608106882      21.067486497990789      2.7065046111511584
    64   1      3.7643341296786734      21.281480441826162      4.1221860432561019
    65   1       3.800525882911296      22.954079408964844       54.28505008142578
    66   1      5.6239456836363679       23.21663434614884      1.4826457024513262
    67   1      5.7151814967216126      25.133908057876525      2.6466857272533488
    68   1      4.0104570332595113      24.835232902539989      4.0649321767197737
    69   1      3.6665919701776586      26.677798454934447    0.042356853508147212
    70   1       5.669782219888619      26.849377060707209      1.1175238197553992
    71   1      5.5265901399833739      28.822971235445401      2.4985391311012926
    72   1      3.7261027183039599      28.821623950262271      4.0270618738546125
    73   1      3.6962587087229424      30.786664659307196     0.13033933198886427
    74   1       5.644135638559443      30.876104378140376      1.3826379240230362
    75   1      5.6370398625758202      32.766602437426641      2.5512102897799291
    76   1      3.7627151108148831       32.52390681220573      3.8443672743065598
    77   1      3.5792655542700875      34.584519150813897   0.0069500418630468542
    78   1       5.406998663068598      34.805590412026142      1.3961668090532293
    79   1      5.8822365972272177      36.696724999874426      2.7109635847479909
    80   1      3.9058687626555226      36.545711672071143       4.130783820805946
    81   1      7.9316444773336059    0.089819891261985738       54.19029447688321
    82   1      9.6905860439900522     0.07665852729596602      1.4707671297379166
    83   1      9.4142514445732886      2.0418413194751079      2.6794256419183871
    84   1       7.535343237399732      1.7112492755325288      4.1187775238856821
    85   1      7.7258259562304969      4.1670927479965858    0.011076010273836812
    86   1      9.7367663103334596      3.9522975253832233      1.2678569185896691
    87   1      9.4278612894254294      5.6190735827369558      2.9175391750148023
    88   1      7.3451685717530433      5.4943406661008041      4.0317374296066424
    89   1      7.8582550421920594      7.8485211975889726      54.277312284701885
    90   1      9.5182154927895581      7.6492114963793796      1.5717600688641036
    91   1      9.5392873829966032      9.6184868111066546       2.706827742613827
    92   1      7.6413936543143421      9.2091872990308463      4.1476901153518613
    93   1      7.7743939933584194       11.42127125048359     0.23108214932314003
    94   1      9.6371689772944613      11.522616034704161      1.3775858306439421
    95   1      9.2827555805914308      13.424410992578391      2.8526731160892629
    96   1      7.3369325859482091      13.468051923088252      4.2942410649549947
    97   1      7.6755494934629871      15.265331808873016      54.210231585969417
    98   1      9.4287067834587415      15.432220149783555      1.4970807107908832
    99   1      9.1829469832099875      17.283766314037468       2.801084640303122
   100   1      7.4073599573220497      17.132799016030042       4.167196708891427
   101   1      7.8558691580946336      19.180674284078673    0.052458912532597421
   102   1      9.8325861651919535      19.184686849808404       1.443143632634508
   103   1      9.7587395460946116      21.177706176278029      2.9399628273101284
   104   1      7.6142234675087286      20.960403523145487      4.0128013147296411
   105   1      7.4610582625730837      22.729420679124306      54.273594550396162
   106   1       9.245439617514517      22.879581432723626      1.3916769434414169
   107   1      9.6067595453243104      24.738296057373784      2.6649351654992977
   108   1      7.6540168786036515      24.989442869960374      3.8171294503937609
   109   1      7.7042300013893419      26.827647823152621      54.223817315325114
   110   1      9.3421127896624245      26.936125963394279      1.3933774210012415
   111   1      9.6539806385463915      28.764924640611142      2.6910853059412694
   112   1      7.6179993115149278      28.708351859969493      3.7397756897474093
   113   1      7.6755860399171389      30.754068960984689    0.076589230053002791
   114   1      9.5211405043310666      30.657373664867212      1.2881644265911043
   115   1      9.4970364087589001      32.577229058657387      2.4920470523852933
   116   1      7.5936251568005559      32.645755230668868       3.901423240035955
   117   1       7.427558925936145      34.443189865368495    0.032404495537400657
   118   1       9.597523336707523      34.590821347598947       1.227256831620037
   119   1      9.5951427605424655      36.383032482905854      2.6488141620950847
   120   1      7.8691874447821393      36.540726982032481      4.1917719871551862
   121   1      11.440655134456829    0.079423641373444931    0.074638232857353257
   122   1       13.46356330306811    0.092513069106301873      1.2454911168568628
   123   1      13.260307642309296      1.8127651748949247      2.8599366200305321
   124   1      11.333108385314457      1.7425602256047803      3.8426496338439957
   125   1      11.782608586603825      3.6167619454111888     0.23297943006490418
   126   1      13.675409310363507      3.5955410379298094      1.5467468599535121
   127   1      13.630674713155845      5.7481332643069747      2.6548975558312549
   128   1      11.569255317630954      5.5712311920251993      4.1041012202444005
   129   1      11.445643290347885      7.7679965270996245       54.27423031450963
   130   1      13.242307764552653      7.7002105062477773      1.3652070166308001
   131   1      13.517807399873613      9.7052397403615949      2.6459546842937112
   132   1      11.490076528513786      9.5757013793010497      3.8568672582907868
   133   1      11.479688636397508        11.4735087743622      54.197121940286593
   134   1      13.206066751134522      11.639961714909468      1.4460587604579949
   135   1      13.316765891424657      13.459620484314748      2.9493630306620369
   136   1      11.261245766317469      13.590247019814878      3.9582606487247296
   137   1      11.519920154458518      15.333660852098308     0.19681292920424795
   138   1       13.31109548213964      15.492440935051297      1.8548654250777874
   139   1      13.837666420233665      17.275672103386764       2.993164087639081
   140   1      11.659435965500222      17.173883926259155      4.0939286037213858
   141   1      11.665617279290206      19.252543388045538    0.060294144078784223
   142   1      13.769366031280565      19.093503433851094      1.3131191278334065
   143   1      13.595109282189933      21.082485753162551      2.7125442167896048
   144   1      11.738483498784971      21.298680906373267      4.0598387434025627
   145   1      11.321473805090635      22.853523013885802     0.16042720744371783
   146   1      13.255812250943283      22.961777161906387       1.489099194091567
   147   1      13.493239139524777      24.796877762058877      2.9292097818411982
   148   1      11.489797481002583      24.974767892381632      4.0722991349382829
   149   1      11.619070388713979       26.72855321885487     0.16084756008364121
   150   1      13.528191318484243      26.754453441625614        1.54508273541476
   151   1      13.406599249993842      28.811851049931892      2.8626567499983473
   152   1      11.570300905851843      28.809801043183267      4.0476314729612479
   153   1      11.389944406420101      30.864320381950598    0.072263727315214285
   154   1        13.1316633500699      30.717632813665812      1.6205967681548266
   155   1      13.385415847378237      32.585216393115964      2.8698251230371539
   156   1      11.490440781235622      32.659189377041528      4.0800800577927472
   157   1      11.534588023131251      34.674644757827437       54.28960384291458
   158   1      13.583276009672369       34.55487959286387      1.4520874118293006
   159   1      13.390635314925722      36.487308058795861      2.8291101568417041
   160   1      11.435899877179168      36.371536617956409      4.1290838945803676
   161   1      15.692419815794333    0.046582769290483911    0.034035092112958423
   162   1      17.544321510872358      0.2342928207194348      1.6225071937652866
   163   1       17.43679151099516      2.1378857315033901      2.8011328412292515
   164   1      15.326223093801028      2.0706366093848576      3.9752028688226337
   165   1      15.483403171007119      3.7908786528787179    0.004557158687669015
   166   1      17.246347719680315      4.1412631052416842       1.471200093740479
   167   1      17.325920552719662      5.7909291990519041      2.8971871818322463
   168   1      15.382384210477943       5.841062345493512      4.2507579655251435
   169   1      15.457927452315731      7.8094726757521711      54.259656734069495
   170   1      17.390748804106448      7.3173929473719497      1.3761063364127255
   171   1      17.348549915291958      9.3709070926825451      2.7957920810404735
   172   1      15.329516958002367      9.5944183299727488      4.1136499273279243
   173   1       15.42146373921126      11.584832718536699     0.14454221182661495
   174   1      17.344504100035032       11.44241235317458      1.5616736139179823
   175   1      17.386257417613731      13.507235551987737      3.0435311401477523
   176   1      15.235831880508664      13.288241055419485      4.3491905254336984
   177   1      15.141680846077639      15.246865166546911     0.28113455401240828
   178   1      17.013470730435859      14.963161791888854      1.3686970014185695
   179   1      17.093066215558405      16.995528176090229      2.6206482063081911
   180   1       15.66535833382946      17.370564734608521      4.5476404182841659
   181   1      15.764286136075704      19.230660257543207      54.160231984061006
   182   1      17.414926730883835      19.223197797118928      1.4078498411142504
   183   1      17.204337554893648      21.223531279333425      2.7888876247306005
   184   1      15.586433797727659      21.312258066433952       4.325246529484966
   185   1       15.35040728677426      23.069897378126068    0.064844835072710896
   186   1      17.259559049194181      23.172120630259208      1.4629589054396073
   187   1      17.162652979781694      25.017867527298115      2.8245532844915235
   188   1      15.216355019207059      24.623338707136426      4.3524143593822933
   189   1      15.218608794189427      26.886613278825894        54.2627560394059
   190   1      17.002524918700303      26.723982184610978      1.3863952213280417
   191   1      17.351555014238468      28.655926166597716      2.7077760901838812
   192   1      15.424130802537965      28.930035981087915      3.9879705669953953
   193   1      15.316017152884767      30.620012534592661     0.27324025965482379
   194   1      17.244699314676424       30.56106999899405      1.5460024236972809
   195   1       17.27911374880491      32.751171805207484      2.7261667941825625
   196   1      15.372109828571128      32.543680667375142      4.0268261488800938
   197   1      15.534360580499632      34.445502062859241    0.095119150106040759
   198   1      17.400545360394645      34.799285115403109      1.3789944265359646
   199   1       17.49008899389586      36.764763023336265      2.6804635815963844
   200   1       15.57819325699346      36.435101565860727      3.9835104885571142
   201   1      19.130308120079011    0.052698758947338165   0.0053361325331820796
   202   1      21.200745411756195    0.025514400983963081      1.2573928298668866
   203   1      21.166475452518252      2.0161158723735801      2.5475474268866369
   204   1       19.30153785798209      1.9268923784616525      4.2127090956278135
   205   1      19.236847747578459      3.8750838506522252      0.1759746994982378
   206   1      21.301835735000012      3.8857019391658523      1.2809358800534372
   207   1      20.901189332693821      5.7703062694739184      2.8474591123355157
   208   1      19.159065983219183      5.8416051584683633      4.2505511839039167
   209   1      19.253670762415823      7.7407901000656087    0.039625915454462327
   210   1      20.886797837480074      7.7958308512441388      1.6663920701410211
   211   1      21.062154502789138      9.8099063480395561      3.0574726553419271
   212   1      19.125485423197119      9.7915695337277029      4.2999747356403892
   213   1      19.145427667790962      11.395887386407452     0.13257705253650987
   214   1      21.074971979485305      11.675591225978369      1.3893317025550369
   215   1      21.022756708203381      13.348381599813791      2.8481089115757645
   216   1      19.285799901896599      13.469764601556687      4.1723142252694654
   217   1      18.992232192728455      15.213469153319036       54.24428685712499
   218   1      20.787693190695339      15.489094316792581      1.7065359852705466
   219   1      21.042846352877742      17.454542590215372      2.7285531265050862
   220   1      19.164454235931554      17.405834780920607      4.1021403273796642
   221   1      19.254011222080646      19.180806955620461      54.224803453628738
   222   1      20.982768795816238      19.248568449570723      1.2383382372233409
   223   1      21.154921918120024       21.04052508435624      2.5466584352004218
   224   1      19.350813617151505      21.108120486570566      4.0891184033142611
   225   1      19.219309093829384      23.307307384203508     0.11708336673734718
   226   1      21.277779405131209      23.019658791687153      1.3090398842142899
   227   1       21.20387411943728      24.749107583799969       2.918001847476476
   228   1      19.174048954040483      24.866357337145917      4.2198050405293772
   229   1      19.098448243274007      26.908699212401562     0.14980652750469972
   230   1      21.011555039720406      26.798345510078637      1.5959383004731198
   231   1      21.205158256153339      28.691676877363452      2.7156823525522116
   232   1      19.131255625360762      28.587681192057282      4.0351851085364281
   233   1      18.986752586406421      30.602000970393782      54.292322644515714
   234   1      21.032508513781586      30.499340785857829      1.2986432383414337
   235   1      21.267234184962717      32.514625924270391      2.5603827054295927
   236   1      19.166976872379518      32.785670221813938      3.8921625181857968
   237   1      19.203445624966555      34.532394463586748      54.247617390689086
   238   1       21.22197911834629       34.50427828933951      1.3337753576303955
   239   1      21.060328706124128       36.61363908466776      2.5172009705535845
   240   1      19.247301721715385      36.493360592891555      4.0468798137825637
   241   1      23.225931414285597      38.370874495292121      54.167843714954479
   242   1      24.975769598278408      38.243745014489662      1.4935950856062294
   243   1      24.817003371355788      2.0496185956968582       2.636211117930408
   244   1       22.98564024297157      2.0740457688368141      4.0149946612013414
   245   1      23.288113738409336      3.8697732709816881      54.134437889991041
   246   1      25.016880214927241      3.8999888710180812      1.4806375402820531
   247   1      24.889262211381396      5.8627645059280979      2.9288020046482655
   248   1      22.845291474518014      5.9132805287603736      4.0880456575253312
   249   1      22.776204178360139      7.9408138405013604     0.22503029821351683
   250   1      24.790989101750689      7.7107611054779195      1.7131056353152665
   251   1       24.96195590076703      9.6542919478142597      2.9150695512931537
   252   1      23.021382800160726      9.9272782293400699      4.1941831610081746
   253   1      22.961257581948892      11.686191117080291      54.219987625514548
   254   1      24.782163067427494      11.384712061579902      1.5046275590066895
   255   1      24.718712021203611      13.443628891379653      2.7960039825246761
   256   1      22.757879861405431      13.390772416941884       4.297798828074983
   257   1      22.853969091528949      15.500300965484138    0.089309572897752779
   258   1      24.824744086980544      15.470998256822288      1.2904041269935973
   259   1      24.944849614958009      17.460298050002784      2.7367105429655578
   260   1      23.135319056599322      17.124784231562082      4.1872625601999411
   261   1      22.869917402512755      19.424533078594898      54.152874779148434
   262   1      24.655173205927074      19.160729460989398      1.2843969675399527
   263   1      24.949839078369195      21.102684151387692      2.4541804670862368
   264   1      23.029239902461601      20.954550267581947      3.9686030721639187
   265   1      23.087044937884961      23.171175043865976      54.277429727235933
   266   1      25.032642147915034      23.060312714197217      1.4227193533846263
   267   1      25.096827636007657      25.190834461188718      2.7526958920515514
   268   1      23.205416699062702       24.97829614677126      4.1523742683771605
   269   1      22.937137316413775      26.846170413568764     0.12050437138288995
   270   1      24.990466210796114      27.089737308307015      1.3502225668534726
   271   1      25.003832293061748      28.934655408209601      2.7426526422559867
   272   1      22.971546941432628      28.989368288075635      4.0428058659192745
   273   1      22.881495280578427      30.659058794369248     0.10258956200915488
   274   1        24.9627756973426       30.74519962963301      1.1018979152742989
   275   1      25.040370123364632      32.536322972163575      2.5122400050684757
   276   1      23.115956621346189      32.860529605464102      3.7908969623230995
   277   1      23.132088604901718      34.714758844266107      54.289613089969123
   278   1      25.092352705322643      34.466697841839817      1.3099255272260262
   279   1      25.282887956454623      36.417336246283753      2.6465357231513154
   280   1      23.203488068518404      36.598724580757214       3.955934940396173
   281   1      26.654407892180679       38.21155034049324       54.03804643676466
   282   1       28.67631392228239    0.087927775140672695      1.2288819106738995
   283   1      28.856807571874473       2.029338796125522      2.6243830899078371
   284   1      26.863838617007541      1.8331294745809719      3.8989543864018974
   285   1      26.909236017263048      3.8380264872436691    0.069354378584057283
   286   1      28.860879699894813      4.0439766477957226      1.3436656819827228
   287   1      28.769115084330647      5.8743241341700774      2.7858178851444704
   288   1      26.818427202231518      5.6989293791117248      4.1685366680807627
   289   1      26.844409187858293      7.6888488633091452     0.24104949341067347
   290   1      28.916212648272936      7.7995474298088965      1.3537489829322573
   291   1      28.814028569414504      9.4785512515147374      3.0156259346665579
   292   1      26.871726785569923      9.4812560310223439      4.0769626214083008
   293   1      26.905275085010658      11.576587961959232     0.31451241401229052
   294   1      28.952026035672851      11.339795135328902      1.4024442160451145
   295   1      28.911014763741324      13.314479979868812      2.8702269207002837
   296   1      26.922486313076835      13.408606129375386      4.0609714424492713
   297   1      26.991375527719963      15.462039438136779      54.268647398352229
   298   1      28.881470392170844        14.9004790485477      1.3789126988874507
   299   1      29.038579350881317      16.857760931963156      2.4856544465195376
   300   1      27.080526039703127      17.439017039839182      4.0956613541597209
   301   1      26.760161507724163      19.025178741385933     0.38971118294683699
   302   1      28.733267999783539      19.124708690937435      1.5934113123589464
   303   1      28.794550625002969       20.98360824550257      2.9156161444741793
   304   1      26.716589147551325      21.027580166836415      3.9973094589063178
   305   1      26.846914557422181      22.858186373993007      54.221856529188756
   306   1      28.792757269604195      22.881520010694839      1.3932510319021976
   307   1      28.557696856884164      25.028177358135416      2.7344667773226004
   308   1      26.612223069080716      25.138511139741198      4.3636929623137126
   309   1      26.846557814301615       26.83920029507463    0.031463674191229536
   310   1      28.553010615717593      26.769271796021357      1.4990291375791354
   311   1       28.69276018283264      28.876090361895017      2.6837195953193582
   312   1      26.847979373233379      28.934934243545982      4.1718003107063835
   313   1      26.729598802629884      30.711088899984833      53.892446130638589
   314   1      28.689347568118095      30.721098972998107      1.2185351848200767
   315   1      28.674314760345172      32.591421306968378      2.8531815173777995
   316   1      26.850628250309999      32.929776458969108      4.2308327992939185
   317   1      26.851434284022243      34.546937901827974      54.048409913565365
   318   1      28.529543634972004      34.625765178463091      1.2654809221282668
   319   1      28.587425031110993      36.457866913423459      2.7133847396391855
   320   1      26.908432414095437      36.077682711630253        4.30709392532607
   321   1      30.823343810399493      38.290581285798297     0.11952793494089088
   322   1      32.752756952162336     0.26752859693023934      1.4600661379727298
   323   1      32.890256449329108      2.1121573655936543      2.7510733512365713
   324   1      30.909482911528901      2.0608690918135162      4.0051671873169763
   325   1      30.740824514450082      4.0314968139907359     0.20706719075990365
   326   1      32.862561780515179      3.9288954992078318      1.2499861589768901
   327   1      32.737526777063159      5.8223577355022789      2.7557242113677813
   328   1      30.595679471778414      5.6433576371731276      4.0391873283954149
   329   1      30.682175879153565      7.6612335624826082     0.10756898417527047
   330   1       32.61562079024587      7.7005598724139732      1.4912906889195137
   331   1       32.83783346358976      9.6722040960136066      2.6268565370226855
   332   1      30.873127942459526      9.5211408920076916        4.10891388468242
   333   1      30.716124159364838      11.622494871661175      54.282880321066514
   334   1      32.473552959523296      11.649094830005849      1.5387191854026039
   335   1       32.70166559375329       13.48399769852452      3.1070059085058008
   336   1      30.707226649794485          13.30643752508      4.4048213980672015
   337   1      30.719743744067618      15.359474642534805      54.110595642678028
   338   1      32.417083531610153      15.316670309421998      1.6835870338794721
   339   1      32.670099835331882      17.392376303386541      2.9503181613946388
   340   1      30.780763967526859      17.167372008232356      4.1877390976767535
   341   1      30.591628591210569      19.257732473749819      0.1778874486438439
   342   1      32.564059135030334      19.251192651131255      1.4762771978388034
   343   1      32.555918571661699      21.283764663460335      2.8070296109318726
   344   1      30.774558204547322      21.156742083877386      4.1900665356543767
   345   1      30.490593597756664      22.963353235115363       54.16338650918793
   346   1      32.441882145177324      22.972399623699761      1.3892133315600748
   347   1      32.455065240769457      24.987712373875176      2.5598479122496323
   348   1      30.490641134545065      25.010147524147026      4.0278102446832813
   349   1      30.675684468457654      26.726197385703539    0.055093755825794122
   350   1      32.638624170208594      26.902572047203275      1.3040196437759251
   351   1      32.373862810349493      28.684037050613128      2.7343149388061989
   352   1      30.494303773628733      28.830878565436088      4.1726913709377405
   353   1      30.596875793577688       30.49619973530935      54.237264301128995
   354   1      32.479346438783786      30.806331548537838       1.354586975000176
   355   1      32.633248171132081      32.930685104935371      2.8790037753795894
   356   1      30.687604301298812      32.975086861189311      4.3112106027322499
   357   1      30.904098206200363      34.801756090533033    0.060511123318599293
   358   1      32.675741528717339      35.005359382556563      1.6260252043719774
   359   1      32.620831745325887       36.84792163156802       3.147777955904608