dump/Si_1000_20/steps_81 (written by ASE) 

3980 	 atoms 
1  atom types
0.0      38.395898218429522  xlo xhi
0.0      38.395898217999999  ylo yhi
0.0      54.299999999999997  zlo zhi


Atoms 

     1   1    0.073161127295049408    0.028832717661778355    0.089566054352485505
     2   1      4.0381611679765301      0.2443793553783678      54.199370913377813
     3   1       3.662491850018907      1.9565296840419939      4.1199834741541066
     4   1    0.091307670296828333      2.1993193963077178      4.2196247487311442
     5   1   0.0034379716589210216      3.9164558730434647    0.013398814039931048
     6   1      1.7973638105328265      1.7216348146283651      2.8318386787067547
     7   1      38.135948730053634      6.1887975085696239      4.3778448319831798
     8   1      36.460391740297752       5.953087328641482      2.7162802836549771
     9   1     0.31002034459672295      7.8426438113272763     0.26468195821962603
    10   1      1.5030347112251772      6.1638408628149426       2.933374801947116
    11   1      1.9908652172761971      9.8467544788758428      2.8524533748816201
    12   1      38.382556100876599      9.9892317319525077      4.0373390712876924
    13   1    0.014448262940183365      11.680539974444686     0.10289738484879087
    14   1      3.9703410530268846      11.771288494946432     0.21297241895618971
    15   1      1.9204986053151154      11.620166676773264      1.3662399471744242
    16   1    0.093585589548482798      13.582449344158947      4.2798407498186259
    17   1     0.12889395524308103      17.593522395985616      53.198775051545006
    18   1      1.8466115425251264      15.443657403014594      1.6395526099959179
    19   1      1.8754911343128779      17.390732945067651      3.0007611438226127
    20   1      38.218925793957993      21.123564102276006      4.4458928400791624
    21   1    0.089717715218613464      19.464294935644489      0.3247543919464192
    22   1      2.0209768632595719      19.350044696032263      1.4886276226602264
    23   1      1.8409200630284694      21.208008503865283      3.0637792221008113
    24   1      36.614424194145592      21.200836200510668      2.8511253540902097
    25   1     0.10096681651307236      22.944844705393837        54.2472088753888
    26   1      1.6252181871314331      23.075863861184086      1.5316093360021463
    27   1      1.7662152262489206      25.124304888477226      2.5122165700203025
    28   1    0.020822497966686355      25.107156603417032      4.0300301742302613
    29   1     0.14891534871741632      27.147808137004404      53.904507579666472
    30   1      2.2063410008854647       26.93851304462699     0.88029587877889781
    31   1      1.8808488069232876      28.633738248335312      2.6847533262115828
    32   1    0.046390293950293079      29.003316582551733      4.1592444841148684
    33   1      38.295577863989472      30.811508732115378     0.12487738284024782
    34   1      2.1337162340928044      30.704852936178924      1.3498457777921662
    35   1      5.6632514573358677      32.776384619749393      2.7490734212639705
    36   1    0.035745063848211259      32.596468919610331      4.4153624100875284
    37   1      38.255830368868025      36.581850905333589      53.172920768216002
    38   1       2.027198413665809      34.586692702815405      1.3663373277312409
    39   1      1.8602897736119082      32.677210230251859      2.6871408958584975
    40   1      36.579971516705726      36.577915736050535      2.9720252264646909
    41   1      4.0709933496793695      36.714420086385239      52.953529825891088
    42   1      5.6520322888152501     0.21914698847774181      1.4500126738847727
    43   1      3.4838521303192906      5.9831617371475589      3.9706654672798107
    44   1      3.8731271803676917      4.0597298543295341      5.4154035330044152
    45   1      1.9510888864657234      3.8691475817385759      1.3703222436855427
    46   1      5.6348738036100068       2.171147335466054      2.9530592157720981
    47   1      3.8137303103814624      4.2903960697418624     0.11199619628725917
    48   1      5.6783263161477366      5.8503412430573674       2.798426795128695
    49   1      2.1559810044775181      7.9128126930025759      1.7331746881231109
    50   1       3.967397928494846      7.9185782356880541     0.13105323086166459
    51   1       5.680815455392346      7.8197054301532569       1.506251797734343
    52   1      3.9577456342894366      9.8660358744405592      3.9214970527971449
    53   1      6.0641011606912967      11.788472838498413      1.4537010144130913
    54   1      5.9432757720047462      9.8330444004701416      2.7607098862646362
    55   1       5.835041411891642      13.658166929947132      2.9860245864370989
    56   1      1.9853226334509229       13.50981142495981      2.7326374674858829
    57   1      3.6623818511811002      15.730438724963491     0.30577777508083293
    58   1      5.8097658234087053       15.37747438101815      1.5271905608331975
    59   1      5.6651738045338371      17.260829338698933      2.8984520491258863
    60   1      3.8711045836702662      17.350126260143945      4.2372969762166557
    61   1      3.8176477405019544      19.476347768379501     0.04828823248936942
    62   1      5.8121253235259998      19.065728554361868      1.4646490333844302
    63   1       5.683935584404753      21.018103953528787      3.0104293488487652
    64   1      3.8077440626545016      21.216010622055016      4.2595939023688176
    65   1      3.8135813126887688       23.03569116886316     0.40229328945418935
    66   1      5.9552970817614383      23.081705607580947       1.617234094957539
    67   1      5.8798681814374518      25.225092362727022      2.6827333163162743
    68   1      3.9272464391804593      25.198553431083759      3.9591831082225197
    69   1      4.3492591293917764      27.001874547498939      53.937668239373671
    70   1      5.9542485553818292      27.073124364038076      1.4220816458289152
    71   1       5.798293105240079      28.889164019888625      2.8122311557823889
    72   1      3.7460062065072179       28.87164174715128      4.0057054271647186
    73   1      4.0061971309847246      30.491414050333187      54.151988459980444
    74   1       7.526687673683937      30.578323862687398      54.267462933420845
    75   1      5.6059085297410114      30.813135660149317      1.5267962556697841
    76   1      3.9936057168673877      30.733693893580543      5.4536999010115998
    77   1      5.6171095229024139      34.562906085543084      1.1951432905673745
    78   1      4.0214327552318387      36.595779363160169      4.0162560211385223
    79   1      3.8920883311234116       34.59323656751112      5.3469606661760851
    80   1      1.9795961857355762      36.444505809773432      2.8733486881553296
    81   1      7.6724643602611176      2.3011201816183577      52.789828310404594
    82   1      9.2521147031916957      0.2528271360520577      1.9441977832578701
    83   1      7.7083040245214063    0.088433360612821907      5.5355206546614033
    84   1      7.6420730156625982     0.22972645845527076     0.19249332884984374
    85   1      5.8838999964521497      3.8564500094808603      1.4029610598017026
    86   1      9.6740663238493152      4.0458493600330785      1.4732391093113939
    87   1      9.4707406775151259      5.9201057385420306      2.8207003181357551
    88   1       7.575413742301266      5.7336036339638765      4.0649680134888744
    89   1      7.7884207000070882      7.8086232525059538     0.27214357677027007
    90   1      9.6818701393400524       7.839221123540554      1.4479531950542404
    91   1      9.9897721155682557      9.7759743499137581      2.8575730551127689
    92   1      7.9021079276835433       9.728413054136654      4.0102281947530294
    93   1      7.8427384047468971      11.537168161623542      54.175963248663749
    94   1      9.8704707336207367      11.374754319701779      1.2958554178242347
    95   1      9.3536357568488704      13.171416788420421      2.5717571889610085
    96   1      7.7153390204976864      13.303131293038501      4.2413956821673304
    97   1      7.6741323091685407      15.221162643815322      54.189997352953398
    98   1      9.7554551867331014      15.217838906209973      1.2106433001877919
    99   1      9.4343853526762977      17.006644310429664       2.777001758078304
   100   1      7.6614400434592556      17.066847248926141      4.1242471622367107
   101   1      7.6251699849513352      19.118871499548458     0.11061661985168027
   102   1       9.386765806633063      18.920178324695943      1.5556609415046294
   103   1      9.6945526458414779      21.066947961193847      2.6439884479358309
   104   1      7.7768178028826318      20.984745849249368      4.0522422694871567
   105   1      7.7835471880314371      23.061889216985222      54.294570304914004
   106   1      9.7879528195816725      23.076026894825613      1.3948114990347231
   107   1      9.5120681564521767      24.993250305394231      2.6621604955239624
   108   1      7.8659473081664402      24.899423216704299      4.1375585230697549
   109   1      7.1841218022316724      27.013930492001759      53.796792182994302
   110   1       9.026335269559322      27.056488053445094      1.2335538525756755
   111   1       9.675757850024663      28.838906322473253       2.741263558056394
   112   1      7.8815467584810515      28.755570736322806      4.2400867723909288
   113   1      7.5642691081786424      32.493955995868667      52.662078542528356
   114   1      9.3954590711034722      30.792041366683588      1.2248160644380277
   115   1      9.7493008236932823      32.688748905411174      2.4810175465200586
   116   1      7.8493853849587767      30.744112615613844      5.3404311768471988
   117   1      7.9039137043644985      32.686483446186436      3.9012302578088001
   118   1      9.2118018312463121      34.546551769668909     0.98485392057152932
   119   1       9.369987302603743       36.49421398781881       2.531945925670005
   120   1      5.7536984450218798      36.566483665049823      2.4666808429757667
   121   1      11.158725233946562     0.44472300718577329     0.34266778592993874
   122   1      13.167654544117411     0.27569982442035201      1.6894699630128103
   123   1      10.853705917748639      1.9857123748339016      3.7803588690141963
   124   1      8.2105551458816546      2.0961938424740749       3.723083016766314
   125   1      11.467991752804657      3.8985093326189411     0.15910320747663062
   126   1      13.267751459151162      3.5374874148958693      1.5155055056494025
   127   1      13.359049410953528      5.5549962760962517      2.7033761338896487
   128   1      11.334634104411256      5.8525538044816496      4.2544756113041542
   129   1      11.445626813932488      7.6396825818845411      54.290523626190222
   130   1      13.409468030677944      7.5862498064614243       1.419862528168232
   131   1      13.830643167193049      9.6606040577950711       2.686570149396553
   132   1      11.872167850702112      9.8748037884123914      4.1753081888278745
   133   1      11.826393198091933      11.616992398776391    0.040340449481152514
   134   1      13.672885595048481      11.655849862950522      1.4635812228182115
   135   1      13.134072560991513      13.603479667247022      2.6224003010836303
   136   1      11.421641476001687      13.480839670673248      4.1213236657827688
   137   1      11.679992122165968      15.251865783765593      54.016811107706424
   138   1      13.321233532710638      15.520620622522813      1.1403630407976493
   139   1      13.260424769613337      17.419984946336076      2.3114181165180523
   140   1      11.188214862628978      17.233934832775791      4.1066924332143886
   141   1      11.284906693606731      19.064594013476185     0.25725094191417403
   142   1      13.403667069595725      19.572106020070549      1.3003375136425697
   143   1      13.554438181210568      21.396004583560771       2.682036949021779
   144   1      11.601237590037115      21.369735150042882      4.1676384173609247
   145   1      11.681826120908656      20.988078403138058      53.178528270697804
   146   1      11.606541650108618      22.970642797281617     0.03533224364996386
   147   1      13.945347561250689      23.307234013469163      6.6140965233072864
   148   1      13.697391943718179      25.259985165750717      2.7720217578912201
   149   1      11.477454966544984       28.75707191774055      52.783830772128915
   150   1       11.07112199122858      26.972400820631186     0.12902857121072178
   151   1      13.356294315781586       28.79252343772291      2.6999256275746912
   152   1      11.559799437268101      29.011249136948987      4.0892183703534792
   153   1      11.424479986144259      30.568591632463455      54.291927433898884
   154   1      13.287150876710145      30.730698353234644      1.4782573285098102
   155   1       13.26324282243162      32.810601229925965      2.5527481663635765
   156   1      11.538292881489566      32.736008225684088      4.1341488563554298
   157   1      11.421126410374358      34.831687474495055       54.22305427499667
   158   1      13.408675435195871       34.91734516443514      1.5014767191415339
   159   1      13.338981369060182      36.656558075568242      2.8339832290945632
   160   1      11.290182176484388      36.362212155751372      3.9668525387562443
   161   1      15.031138942307731    0.052615630100829175     0.18258675512890951
   162   1      17.053496172504655       38.38695539004393      1.2843731088253911
   163   1      16.899425597734357      1.7334683363192871      2.7561034008328664
   164   1      13.059473251563844      1.9848491391586027      3.1077571470244374
   165   1      15.297070676837272      1.8390857632516888      52.848101602369788
   166   1      15.185896345651127       3.823578449434109    0.092694241819515202
   167   1      17.317309537797048      5.7306447833000078      2.7288354992297967
   168   1      15.152633614006023      3.7903462676411337      5.5234631915700465
   169   1      15.246307540228349      7.9724104355137992      54.165975281702465
   170   1      17.160490720179933      7.4957672065296492      1.2862526499830313
   171   1      17.224184664148815       9.355845717851734      2.6875949748804606
   172   1      15.516204194859677      9.4947184645841656      4.3184263269568541
   173   1      15.590204942437261      11.541000068635594      54.160212985657417
   174   1      17.324057036355427      11.518794047610138      1.6011214456829506
   175   1      16.955438334080206      13.501316022797189      2.9796524259040011
   176   1      15.060337385950627      13.335244470841467      4.1629106180361868
   177   1      15.284611104642401      15.377527072183076    0.076509617538738445
   178   1      17.262036912351441      15.311162026551946        1.37513517700943
   179   1      16.985324242362307      17.293672943365845      2.6749053726283827
   180   1      15.018999791036723      17.310719888867343       3.785709766805756
   181   1      15.363897361877868      19.223942375279677    0.089477568771281074
   182   1      17.350417910894571      19.322235489432156       1.390480916677016
   183   1      19.511689603790025      21.057981573960671      4.1009601667333859
   184   1      17.541986294598662      21.123841078421108      2.7027455324410181
   185   1      15.489499887388485      24.937203038873239      52.846376698229342
   186   1      17.316581402339938      23.130119953930659      1.5003542251582858
   187   1      17.368880219371139      25.059982707732001      2.6868997061492803
   188   1      17.267879525008475      23.093871260331962      6.6581327131444903
   189   1      22.763902629291131      30.647627551543088      54.241511714255111
   190   1      15.364191725899172       23.11024635419999     0.10728274691301753
   191   1      19.147233046932804      28.994704607676432      4.1089666514828087
   192   1       15.30932586174317      28.720096158079521      4.1269055605417853
   193   1      15.162716549109511       30.78616905598205     0.21761363655018626
   194   1      17.239769713722495      30.875571550621324      1.5876009054299993
   195   1       17.32462172495244      32.920632597037319      2.7547394780216794
   196   1      15.400967753013525      32.847220416989344      4.0389077388866648
   197   1      15.270492706978658      34.772223438619413      54.232484708297626
   198   1      16.970022284227795      34.919585009759054       1.285746308831744
   199   1      17.164294407531081      36.514325810023422       2.833011526517986
   200   1      15.221013691786059      36.508765783553024      4.1566197936475522
   201   1      19.166525861503029      38.290082033100795      54.232279368299608
   202   1      20.950605969232374      37.999553868265842      1.3826379205413579
   203   1      20.940458969910107      1.8296205676649959      2.5062135426690042
   204   1      18.896556591851095      1.7036628036225752      4.0417298924072851
   205   1      17.304960514094414      3.9426600276595436      1.2775100814649376
   206   1      19.187492715568187      3.7207783511441459     0.15872862614132827
   207   1      21.132482933593597      5.8052795814017983      2.7682358147932855
   208   1      19.280942668033816      5.6127478459183662       4.076389530644577
   209   1      19.019026073063387      7.8384490633872224      0.1579092414359366
   210   1       20.99460098565164      7.6243621141372495      1.1904063731924468
   211   1      21.010235613683932      9.5053053108176595      2.7725279554354656
   212   1      19.088233263973365      9.5368136740847174       4.046528514727366
   213   1      21.221036104564533      9.6678867792168912       51.45613513170489
   214   1      19.260591882735785      9.5730595092141115      52.829999353813669
   215   1      20.965456681974935      11.688657260703238      1.3118085089091198
   216   1      20.787474154111809      13.554554648410974      2.7159010372606858
   217   1      19.046939495824457      17.328675627709895      52.942166642251671
   218   1       19.17767328118456      15.433705774295984      54.271311935529624
   219   1      21.101978718313305       17.18160563844615      2.6663616350140265
   220   1       19.19353274858323      17.176502096401162      3.9731297688799159
   221   1      19.453319714633277      18.885111669336897    0.039846887479950507
   222   1      21.394980167855831      19.234638751996687       1.321145475653529
   223   1      21.668697561134149      21.179836185159235      2.8097729225073302
   224   1      19.229159567345395       22.95792024141851      5.3107394765338976
   225   1      19.158879855256565      22.936574471691834      54.299004785228824
   226   1      21.240586557859032      23.010816994670069      1.3283329376690389
   227   1      21.075805801712395      25.030635613431581      2.4769534249144525
   228   1      19.381490759700302      25.221711054232749      3.9772585843375068
   229   1      15.212156990207179      26.745791588216694    0.029909908130093733
   230   1      22.982423304509805      25.009972627586123       52.90538064399901
   231   1       22.92170144962213       27.00942164914003      54.205479458952468
   232   1      19.487779354097782      26.976394407965888      5.5814816274056129
   233   1      17.245065774314082      28.712006475853226      2.8829160503263571
   234   1      19.157093739149758      28.695974270972389      53.112290855582053
   235   1      23.009613346643238      32.759785065314709      52.906048028462642
   236   1      19.407001084690517      33.055700852444289      3.9937027447922815
   237   1      18.930821750657259      34.450928335651312       54.21923529753807
   238   1      24.738051501059619      30.818091720364041      1.2278664040974399
   239   1      21.349244252678577      36.308693991316005      2.8743328434804676
   240   1        19.2676775896282      36.494733036555026      3.9107396202667348
   241   1      22.933043206611845   0.0090412616119910274      54.199502736234479
   242   1      24.892578482944923     0.12487921863007087      1.6642789623184382
   243   1      25.147829318571283      1.9611580753150322      3.0943106672558893
   244   1       22.88743077934733      1.9156195620274588      3.9665316879003298
   245   1      21.192235068299343      3.7424485768920106      1.3297197816469313
   246   1      24.895730581752652      3.7441000696817799      1.5195203171476714
   247   1       24.78638850365876      5.6095166150402385      2.6816753611390385
   248   1       23.09055789272734      5.8063771592622899      4.1376059704462813
   249   1      22.917148344069439      7.5297483073085179    0.028181260551673398
   250   1      24.966091317924434      7.5202348641672483      1.1271399534409956
   251   1      24.885613855067223      9.5406309294014342      2.4109845755918626
   252   1      23.077933351930106      9.6622001940324385      3.9775141115890951
   253   1      22.885216081141415        11.7785689784689      54.121933379134795
   254   1      24.711025174144439      11.878484275136589      1.3410125962060551
   255   1      24.768875924229047      15.188612695031276      1.4279994831654885
   256   1      22.768745583278459       13.26603332110647      4.0121700442548001
   257   1      21.064671297508792      15.375158011361291      1.2039170084979993
   258   1      21.099289673610976      13.687730377778051      51.588598914478716
   259   1      24.877722739607172      17.114114217410002      2.6333887857266505
   260   1      23.218748534072787      17.017443298789551      4.0625085375619534
   261   1      23.219834525146346      19.183026807775153    0.021899956001823269
   262   1      25.125202777613676      19.119659063745633      1.4706751436216317
   263   1      25.345520457906851      21.328316219386469      2.7916673648191388
   264   1      23.335597590068943      20.965749579408339      4.3178071017749859
   265   1      23.175480759939639      22.992044922502625    0.014256680031030537
   266   1       24.96352781678225      23.326083982320281      1.4681743978161854
   267   1      24.948955921566412      25.289610278732532      2.7544539468495026
   268   1      22.849506037587659      24.994538423062814      4.0767768008531551
   269   1      22.815290445039661      28.742529399620466      52.832279526949982
   270   1      24.976112303682253      27.104866104478432      1.3155730044067564
   271   1      24.671951993487646      29.082887262945775      2.5922169264643444
   272   1      23.090032245501426      29.011442245492308      4.3070551722098811
   273   1      21.004708399230193      30.925264636667205      1.4890900652567998
   274   1      25.509675681159859      32.675384663025667      2.7434788954498224
   275   1      23.276572402550538       32.73351250910315      4.0029990893066021
   276   1      21.287521678989187      32.941728297377487      2.6957528024386961
   277   1      20.830377492223491      34.668833624899399      1.3485453616472596
   278   1      24.928804248799853      34.662791300940327      1.3758172968655131
   279   1      25.225633009886383      36.487239106214588       2.852197520703784
   280   1      23.161755337174331      36.397511073251707       4.213470921126989
   281   1      26.638683816353723    0.044889329565205284     0.14116693929207705
   282   1      28.813055162296294      3.8665054934442158      1.3467087200114416
   283   1      27.019212211550638      2.0957798990273848      4.2892390676606373
   284   1      27.136914648143403      38.345842601103783      5.3138104032995637
   285   1      26.906919528351434      3.9759129342444242       54.19057760500332
   286   1      30.976630142981534      3.8632830905784967      0.1013783938721077
   287   1      28.956797050711963      5.8195703992305097      2.6074426525608283
   288   1      26.798073605808167      4.1521409104457492      5.4703864217368423
   289   1      26.970744122559449      7.7429246217877941    0.035109306690242204
   290   1      28.875203760847249      7.6087922408185431      1.2368444251669402
   291   1      30.744214299255631      9.8313748128749481      4.3004500311814251
   292   1      28.933020516608099      9.5567621770693645      2.8299890254136226
   293   1      26.711889415319241      11.536703543368885     0.24984217251434315
   294   1      28.807172882412068      11.366086966793418      1.3084072667791045
   295   1      28.717713777988074      13.596217864868832       2.596011833955469
   296   1       24.63494210494801      13.562036373275836      2.8938050997385867
   297   1      26.644179399722749      15.056549855791934    0.032548235093202031
   298   1      28.803785899809593       15.53505065680133      1.0451788619499554
   299   1      28.626337615262205      17.333505149372975      2.5301068968472236
   300   1      26.788321626860967      17.073167154125986      4.2631880877669568
   301   1      26.880999726559526      19.025549550932492    0.039779027420797766
   302   1      28.834056437522975      19.185523358113581      1.0490655480330604
   303   1      29.238438033485416      20.878076615257346      2.4811429341416353
   304   1      27.336392567352881      21.241364282960671      4.0307216140432391
   305   1      26.963340900875142      23.196881718767091      54.286830753024134
   306   1      28.969346811076242      23.115642654264342      1.2549659965928748
   307   1      29.197040586904809       24.98861627907635      2.6563233549678444
   308   1      26.751816781647015      25.229813922272527      3.8163064609867909
   309   1      26.911886578878562      26.805142907564342    0.032284134933945552
   310   1      28.824244790444407      26.793530581662118      1.2852864132585062
   311   1      28.850797970137407      28.859718629439719      2.6654205109034907
   312   1      26.881633282487233      28.390606668055003      3.7786048835557144
   313   1       26.61593658625981      30.739770057548075     0.10324465019002656
   314   1      28.835528985838547      30.588332260359049       1.358051169147221
   315   1      28.715962625416182      32.563122527566748      2.6951313922728786
   316   1      27.256982657880123       32.70815218245896      4.2595594694522338
   317   1       26.89165886783384      34.572665362719817      54.288612642788365
   318   1      28.818631347908592      34.432028525671164      1.1957259176461463
   319   1      28.605137188584777     0.21664717819363247        1.35973750666989
   320   1      27.323477732404175      36.525131715438619      3.9630971028362985
   321   1      28.990127050752982      1.9577778024558099      2.8967069290795835
   322   1       32.34713526510663      38.258916340353821      1.7252665851240052
   323   1      32.620041296708834      1.8272620814576233      2.7808138117674952
   324   1      30.869943766090735      2.0249023842077718      4.1475854845747211
   325   1       30.83463651459002      1.8091955072872061      53.154716544569752
   326   1      32.782429362166198      5.7342035308823069      2.6627760575873012
   327   1      31.079399623447404      5.8048469449290163      3.9614376174599775
   328   1      30.603093727072668      4.0572233122452195      5.4020620418793088
   329   1      30.911400717119854      7.4319240820580141      54.236974673307145
   330   1       32.80936838145562      7.5907292687223711      1.4353671387575244
   331   1      32.342754487619708      9.4862509604656733      2.8722406619441796
   332   1      30.737575561411386      11.780557023658314      5.6001178483999619
   333   1      30.778413798749508      11.493078855680041     0.17313419068517508
   334   1      32.764983856431094      11.481503686648688      1.7062541346067837
   335   1      30.557549389787333      13.493114514363448      4.0836402066489974
   336   1       26.80348082031065      11.679906217582342      5.3209114397723489
   337   1      30.943470907721281       15.35748202870961       54.25744073916286
   338   1      32.643685478473799      13.632093269626747      2.9581519846250903
   339   1      32.333865372366354      17.357475313065407      2.8054200431547001
   340   1      28.535357268814678      15.206238492875869      6.9966651534627271
   341   1      30.779821502823307      21.179584346681644      52.781610796153323
   342   1      30.938352978419132      19.166063606259961      54.253177540176338
   343   1      32.683124234139733      19.225325890494624      1.3003984365303058
   344   1      31.035218342564217      22.949774574863003       5.270098687891335
   345   1      30.843449491377232      23.002674473681399      54.189339074616448
   346   1      32.598970302514466      22.870091765375395      1.4654378397966317
   347   1      32.812686593183145      24.736748347699724      2.7652652278784422
   348   1      31.104120538799258      24.982718028854386      4.2670145952397878
   349   1      30.925298586262819      26.736257952831085     0.15448826252027179
   350   1      32.952685474970643      26.633748685216815      1.4935126658128883
   351   1      32.507384477275025      28.746041167341076      2.9948761247231466
   352   1      30.580279468462972      28.694757713133701      4.2959380546100965
   353   1      30.752870592800047      30.490087025442065     0.17555140548508902
   354   1      32.687193982848711       30.56929822194703      1.4549896132472984
   355   1       32.74800459281893      32.440072417610111       2.813431463028051
   356   1      30.634383371920553      32.770347774909112      3.8435276469592043
   357   1      30.737532742388364      34.523153341233176      54.082949515038855
   358   1      32.743670539882814      36.088836474254798       2.763253533857474
   359   1      31.021812389500187      36.404597802805966      4.0069721156188738