dump/Si_1000_20/steps_21 (written by ASE) 

3980 	 atoms 
1  atom types
0.0      38.395898218429522  xlo xhi
0.0      38.395898217999999  ylo yhi
0.0      54.299999999999997  zlo zhi


Atoms 

     1   1      0.5092268604725777      38.191508596757885   0.0051988880430712944
     2   1      2.2530814678616551      38.325745129319102      1.4111751163907329
     3   1      2.1249280131003738      1.8852256630203439      2.8690893709851242
     4   1     0.10303521944735472      1.9255222899748652      4.1094674886193507
     5   1      36.223616671058267      3.9718573195857791      1.4396005639972138
     6   1      1.9803117933451082      3.8289509773721169      1.5529348151356646
     7   1      38.349016898557188      5.9087867305279991      4.0492001801303985
     8   1       36.42790338141851       5.827155596445925      2.7296181126554413
     9   1      38.193446471081856      7.6311832209092261      54.173261229940358
    10   1      1.7693601275605944      5.6855556009595771       2.844331261937294
    11   1       1.887009685821295      9.5494805774803897      2.6354712050645057
    12   1     0.19400960133239337      9.5815975926631083      4.1919019413547662
    13   1    0.041671727598750888      11.771981847662664     0.40980915289658226
    14   1      4.1488757382870185       11.66863489772985    0.005551955829832882
    15   1      2.1882471268607797      11.769221790506347       1.379775639473483
    16   1     0.13537462937470354      13.496299822670263      3.9690694635559809
    17   1    0.017499280607994841      17.248813056185138      53.330914258825409
    18   1      1.7068487584122729      15.545291228216465      1.4203835570302217
    19   1      1.4556768596767173       17.36707325418686      2.7543146709213242
    20   1      37.810399542632176      17.088069677695767      4.1396833284739154
    21   1      38.273078206608197       19.32593554199828     0.17432333088601112
    22   1      1.8307189602017784      19.436274844287411       1.458212077839196
    23   1      2.0908039762447226      20.905269452749057      3.1024266848983064
    24   1      38.281067556417696      20.782005394410394       4.423383892658113
    25   1    0.035996569381523888       22.60266365586487      0.2339795362476137
    26   1      2.0916796809565117      22.835592567078486      1.4392874981455268
    27   1      2.0320009068754894      24.780045919060889      2.7905608896788658
    28   1     0.14720809108917188      24.700814234021156      4.0982106781167404
    29   1      38.354852659443509      26.638934432075992     0.10875495574904338
    30   1      1.6802894153784966      26.725314022963708      1.4013501935361077
    31   1      1.7751254310775086       28.63322544817294      2.4826222690241591
    32   1    0.031798898757021118        28.7532811081266       3.977280578166813
    33   1      38.233431112477312      30.829839546110119    0.042690624429678803
    34   1       1.753560883447743      30.694895680464743      1.2947288651873239
    35   1      2.0037896159413737      32.462360734658745      2.8227604069088423
    36   1     0.26833208849376022      32.507652837026868      4.1721038038952543
    37   1     0.23749954252574873      34.449768263980836    0.051779057998430716
    38   1      2.1050825783225404      34.383633149998985      1.4350355265283017
    39   1      2.1255421848962275      36.298642777078904      2.7060335666761173
    40   1     0.12381212936713772      36.248677417763858      4.0281093837631801
    41   1      4.1701200493227129    0.065437360014262494      54.024150439721616
    42   1       5.918328294443751      38.164962894847015      1.3775908002266513
    43   1      5.8395685446792047      1.7728029528071976      2.6327050102628071
    44   1      4.0431794350521608      1.8834996838095057      4.0959684849471261
    45   1      3.8603700968735613      3.3641665218852808      54.273013314792649
    46   1      5.7546626979580964      3.6890298786287032      1.3804628156394967
    47   1      5.5583304425748663      5.6827429482996772      2.6174061124677084
    48   1      3.7081010656942843      5.6443201203329592      4.0010285379407744
    49   1      1.7254225910875496      7.6324500226061671      1.3370296387596883
    50   1      3.7679766005261253      7.5236050070812555     0.11098894784723824
    51   1      5.9249122196673589      7.3909331917558214      1.2817701354924202
    52   1      3.8787016446999742      9.5053919205324302      4.0443229330566846
    53   1      5.9181938744753175      11.422573784332485      1.3412364355572908
    54   1      5.5371850495540427      9.4308195296019743      2.6290855011953007
    55   1      5.7979248533850178      13.488326144889333      2.7482168680151955
    56   1      1.9854491385876412       13.73513492738936      2.7034658092060933
    57   1      3.8210922099169662      15.465683002055313     0.25581085424421407
    58   1      6.0677580145660794      15.484366029375579      1.6084610401577255
    59   1       5.680354469326808      17.404331473136406      2.9891239857573173
    60   1      3.4493247636248761      17.322398941577784      3.8336200024234706
    61   1      3.6525099377505845      19.079680674366404   0.0055235076347116673
    62   1      5.8433878349614101      19.111283321383162      1.4977453039269673
    63   1      6.0025432482089647      21.216684986257892      2.4810824513656833
    64   1      4.0569335746685988      20.970556574842988      3.9899861814028097
    65   1      4.1001984978273294      23.167463176820071     0.13087603011812221
    66   1      6.0871315192186763      23.034529794561418      1.2438240993489103
    67   1      5.9063276207537667      24.971545248753973      2.6777340527350275
    68   1      3.9745239780538189      24.660019956304946      4.0158736222847677
    69   1      3.8240826938219068      26.808625243481497    0.045044733709892197
    70   1      5.7529561490575629      26.858844942507318      1.3086261860813457
    71   1      5.7183929229334289      28.779309098776977      2.8056630308626054
    72   1      3.7091857320011208      28.595976190485089      3.9331514897842119
    73   1      3.8670520225051717      30.920266787743461      54.179621475475031
    74   1      5.8060679392406032      30.608098597039838      1.2808964152666034
    75   1      5.8861976710880972      32.382813811772266      2.6423004048704213
    76   1      4.0129013611845519      32.682562601311659      3.9948247798910512
    77   1       3.956283314334792      34.692223527244174      54.206469829064794
    78   1      5.8537050025461879       34.42713424343669      1.2976462879208481
    79   1      5.7771924646622477      36.269888059143547      2.7893643892019759
    80   1      3.9881013076860015       36.37276296972302      4.3729514973279615
    81   1      7.7889942582159648      38.328888290179144    0.053791924803044816
    82   1      9.6643906399883281      38.139048925119418       1.437070018554562
    83   1      9.3241223088270626      1.5918843780049357      2.6429491659335547
    84   1       7.594881672809632      1.8311072170611893      4.2295988536342533
    85   1      7.6966343566538882      3.4144547060809582      54.116693202866458
    86   1      9.2687087293392114      3.5180126670620369      1.2650018946128856
    87   1      9.5727135050129579      5.4230222934456922      2.4644065247201095
    88   1      7.6232358700413654      5.6972367963008619      3.7874301296165753
    89   1      7.7118739936926879      7.1762621473534827      54.096855429872626
    90   1      9.6143521618400811      7.4075350301373675      1.2408198616921933
    91   1      9.4634933656636431      9.3188993971791785       2.479021028762634
    92   1       7.515910557192071      9.2354098598242729      3.9849857566558753
    93   1      7.8653250624132305       11.33767239609899      54.261742638564989
    94   1      9.7125823716015915      11.341606451681413      1.2305201229538061
    95   1      9.6085112217484561      13.193550912961397        2.48727432688489
    96   1      7.8408954214633892      13.319103985945359      3.9145659143136844
    97   1      7.6568532331946582      15.601706292870029      54.236431975403079
    98   1      9.5182914886519274      15.189567266074453       1.236698974926127
    99   1       9.591358036893352      17.139502208154681      2.7050986990990045
   100   1      7.6229953224575366      17.098795608347633      4.3514001770364743
   101   1      7.7019184763565729      18.951066164288594      54.149080384267108
   102   1      9.4737295281493186      19.118377287217427      1.2165378734119734
   103   1      9.4900922227049449      20.816624006830466      2.6797458291434633
   104   1      7.5986546453472137      21.043863431254294      4.0281825239908473
   105   1      7.6090631596360767      23.093483943185671      54.207902917886948
   106   1       9.657483109686483      22.752180769970536       1.610260415275377
   107   1      9.4273423395326876      25.092770984887565      2.5659893581216671
   108   1      7.8184639287853575      25.047348605972832      4.0726947589616547
   109   1      7.5349506725028341      27.024488674699516    0.058452262455784929
   110   1      9.6877168819089352      26.996690691744295      1.2959091640637885
   111   1      9.6346185377609235      28.845806643309839      2.7915474818666643
   112   1      7.6513899336773603      28.860661405925491      4.0889389820785471
   113   1      7.6169701484325261      30.911295802811573      53.925575595665222
   114   1      9.5220939007367189      30.484210804026954      1.3607441128259767
   115   1       9.701059717437051      32.513798139769357      2.7863372824000763
   116   1      7.8105003908627548      32.762087309145151      4.0642491221369799
   117   1       7.750380622191738      34.189185556714534       54.24382077505323
   118   1      9.5338198457972823      34.102979673877911      1.2955395675836803
   119   1      9.4300992223779527      36.172103939669576       2.749057254042075
   120   1      7.6981652622239256      36.642666663607855      4.0365783153069517
   121   1      11.653480042420325      38.203932568194823     0.25304053092679613
   122   1      13.526680695904792      38.300388917167027      1.3802327554173894
   123   1      13.295092430088074      1.9409155718222344      2.8338120449570416
   124   1      11.398375617007646      1.9872498098157529      4.0707290250092685
   125   1      11.377888254945518      3.9437345074537382      54.277337865095923
   126   1      13.289157920417745      3.7394297921395125      1.3706046227130879
   127   1      13.365786970893732      5.7321437092925462      2.8249800082764178
   128   1      11.389086191348257      5.4622271254132908      4.0246374737763873
   129   1        11.4399615536637       7.754906134848083      54.043229998689867
   130   1       13.31281957872298      7.6289461461588086      1.0650171125546508
   131   1      13.523372417360807      9.5427033544642903      2.6027552943261076
   132   1      11.405767639190492      9.4062039158476232      3.9410434857747627
   133   1      11.700230671905441      11.503246955285027       54.21389698191301
   134   1      13.559296790597534      11.449833003059876      1.4999226740334533
   135   1      13.334879800087064      13.460795961643923      2.6212781640715797
   136   1      11.472622498346476      13.264126556389046      3.9273310191703192
   137   1      11.604964801839758      15.536252710934955      54.266826080602677
   138   1      13.653335038117536       15.37781066170289       1.305790425436997
   139   1      13.378884183260386      17.105958140656238      2.7331765753589603
   140   1      11.420888284932371      17.270755446925651      4.0933232051882467
   141   1      11.478580661473329      19.190054251354542     0.15684255209482692
   142   1      13.576287958824583      19.309644198555088       1.408041616716307
   143   1      13.518425461827727      21.214179568909199      2.7102691822827869
   144   1      11.493447420502241      21.056001753687159      3.8450111482114848
   145   1      11.482741058582526      22.948218452241605     0.22487469817785968
   146   1      13.532411326052975      23.023899560932914      1.3943367883607249
   147   1      15.091880217653694      24.842712876808729      4.3836374268670379
   148   1      13.463138781977598      25.083104245386654      2.5064687157890742
   149   1      11.758050405438366      26.822427840526785    0.052176061311172375
   150   1       14.05572275132217      26.976598668727821     0.81578773185139997
   151   1      13.761496898558045      28.109778506111695      2.6990423872755045
   152   1      11.620148338468024      28.718042556323752      3.7567851799507137
   153   1       11.59014932927524      30.687633138165765     0.24441698228056333
   154   1      13.351022726803132      30.161392967752906       1.625125880293977
   155   1      13.338840011625178      32.158334602931973      2.6623986142660652
   156   1      11.476045755806078      32.590555583390888      4.1246202394482898
   157   1      11.575600135704066      34.573336841084178     0.18247345308041099
   158   1      13.648700827282131      34.400913633545493      1.6006600664439612
   159   1      13.289624490905972      36.389729974648738       2.696227215441219
   160   1      11.510670200491285       36.37107183621103       4.376689099812701
   161   1      15.494218775199684    0.062560899345612209    0.037722024640379485
   162   1      17.354709080365556      38.344871763975782       1.332788021763931
   163   1      17.310779517491685      1.8065613274777281      2.7078044776964916
   164   1      15.313321420858454      1.8798568672979015      4.1394571184304931
   165   1      15.291940457280413      3.7635762619342961      54.228285369355781
   166   1      17.400166022740422      3.6885642989022327      1.3903065706165183
   167   1       17.39746259233937      5.7452856658475762      2.7287989631241003
   168   1      15.187838207318711       5.658245065849365      4.1352265503184302
   169   1      15.390637682426295       7.842185155745061      54.215739042743877
   170   1       17.47168682048186      7.5968455360262999      1.3150641559504712
   171   1      17.565014286071907       9.710372889473522      2.7147545297144484
   172   1      15.385439000882647       9.578693210095043      4.0339244535102461
   173   1      15.358561634836111      11.443056647613417      0.1190376901370428
   174   1      17.347892678582177      11.612572147790178      1.2688987338552216
   175   1      17.405180393302167      13.590244091359802      2.5552069300951294
   176   1      15.387626645426613      13.225533833245304      3.9259180020420104
   177   1       15.41111144610673      15.302533009276983   0.0067898247341304221
   178   1      17.153613124681705      15.426083499868579      1.3007815608517925
   179   1      17.355080795004227      17.174798713317248      2.7756323887433392
   180   1      15.375226065827661      17.038395454173124      4.0571932088203564
   181   1      15.381481351444812      19.222648089857227      54.131444097405435
   182   1      17.177181950072626      18.977928421058262      1.2343324383494387
   183   1      19.156777449835793      21.042285700818912      4.1160184316599953
   184   1      15.259207247195993      21.030167281965795      4.1507977485972427
   185   1      15.372392100487392      23.188631479517642      54.177422609043226
   186   1      17.262161616152014       21.04094221678951       2.634638991150589
   187   1      19.035191594767035      24.921836555656384      4.0374773259039225
   188   1      15.392619494140757      22.863034514693577      5.2827092533722046
   189   1       17.16759097957496      28.701280363080322      51.682643644798119
   190   1      17.137576800945673      23.348019493401399      1.4134020185124099
   191   1      17.365433293958539      27.669813115470323      2.5068189300039627
   192   1      15.716831694848036      28.629291466561639       4.023170070346942
   193   1      15.296764509393057      30.318391951204127     0.13461345351229284
   194   1      17.124231413405049      30.013707235904718      1.7562652268286558
   195   1      17.385775447713325      32.175453095198598      2.8967956045174126
   196   1      15.400235378922787      32.455690274630065      3.7454674763892526
   197   1      15.318900587669436      34.352680359372165     0.11763408739082007
   198   1      17.256404877064814      34.212126960372458      1.4774903098841814
   199   1      17.115620151207818      36.478084455280445      2.8374810647051714
   200   1      14.968212407787979       36.35715161644373      4.1613829406020821
   201   1      19.103414442421755      38.386122934110993      54.267042648716945
   202   1      21.087041784843862      38.022558217024809      1.1835823151519991
   203   1      21.163505833791469      1.6549938982503265      2.5723554792202794
   204   1      19.346718767869682       1.979065601580617      4.0130101208626092
   205   1      19.299604133600909      3.6836348609807619  0.00078000278135732586
   206   1      21.202591808645995      3.5929354547389281      1.1765228728295152
   207   1      21.074252140143383      5.6514411927342749      2.4736732825415984
   208   1      19.113712447888467      5.5916043502837693      4.0664035938126375
   209   1      19.399947832583109      7.3205823253433735     0.07756398137319126
   210   1      21.217066098998085      7.6178467826918386      1.4996661384583132
   211   1      21.038908424767641      9.7194555710258896      2.5529011132524966
   212   1       19.17229630672022      9.5022234528612799      4.2545660962660214
   213   1      19.161686701152682      11.604380762417874     0.00521872322327681
   214   1      21.205006989787289       11.77245227310889      1.3538339168211093
   215   1      21.296955008399642      13.673956660227837      2.5267544283738745
   216   1      19.436635556914368      13.256999560544541      3.8847135344929709
   217   1      19.217415369493033      17.082082247644394      52.827279037273378
   218   1      18.956457543429313      15.290625607037665    0.026958289919593866
   219   1      21.036158926000635      17.460068074606394      2.7621979642066097
   220   1      19.196148521490766      17.270246086717425      4.2906102903678498
   221   1      19.108714716669784      19.139382621518784      54.052548330807824
   222   1      21.009031586438454      19.168242717990665      1.3137267186410466
   223   1      21.005403161679975      21.115441731194508      2.7634343646559025
   224   1      19.166928733245516      22.887384699528877      5.4955696576256736
   225   1      18.980594711217947      23.215724414160576    0.063284147007698272
   226   1      20.888021031282943      23.308215280623941      1.4997595988509236
   227   1      21.000776585012922      25.118338020874994      2.6894071480566946
   228   1      18.954272519464954       26.78326347222654      5.5759319233599101
   229   1      15.017724571830881      25.521385737359918      53.272742336739562
   230   1      21.001096370425046      26.932319866306976      1.2145517494634517
   231   1      20.786471484237648        28.7363879267672      2.3837586674275397
   232   1      18.968925219884127      28.575572806126129       4.183914798812693
   233   1      18.787743205214014      30.560852046576791    0.026070804622668239
   234   1      20.923568680033156      30.786550402865014      1.0732514947040048
   235   1      21.306883142639073      32.583093658809858      2.7058377146662802
   236   1      19.424533792913358      32.396835411113194      4.0076801531970778
   237   1      19.037187254735063      34.413122410575916    0.049136525780613761
   238   1      21.266834663467026      34.288332322964585      1.0250755159804941
   239   1      20.915194649914859      36.110991949928341      2.2957089752335604
   240   1      19.096446494010568      36.096016484221146      3.8396640251559946
   241   1      23.097811234486972      38.360645325552838      54.242583824748159
   242   1      24.990066746815064     0.18032731184094605       1.389907482010758
   243   1      25.173929233045076      1.9884310335916768      3.0261355449943816
   244   1      23.028819679304686      1.8180459841649041      3.9847426891162079
   245   1      23.324428967572516      3.8597827878059414    0.025535295981717374
   246   1       25.27532366721713      3.8048299910443779      1.3649775346765858
   247   1       25.24871672850097      5.7114146768405911      2.4648381453612953
   248   1      23.159262834845162      5.8719986524981769      4.1779687814075626
   249   1      23.243436753436832      7.8923006976439467     0.21654643071017313
   250   1      25.097295061153478      7.8137554929812936       1.522282665060994
   251   1      25.201498960635821      9.6692898519806558      2.8772372928922221
   252   1      23.071161861636821      9.7696380828214959      3.9095288003225974
   253   1      23.327258354211022      11.528892855058993     0.21613596485610745
   254   1      25.282617115661193      11.539146083838824      1.3919146001568963
   255   1      24.998176489258725      15.366387046261714       1.217507108500663
   256   1      23.222895678115336      13.669124825293091      3.8146664536589832
   257   1      20.959931567827972      15.549786139726082      1.2844757587352782
   258   1      22.980130492464756      15.318022265825332      54.228906846843373
   259   1      25.176666654395703      17.161773292528572       2.816815332730914
   260   1      23.088245720344677      17.487731607107229      4.0061250073774115
   261   1      23.113415268645358       19.31010996135856     0.22477052985947213
   262   1      25.093249972071568      19.200036171493039       1.333539661879785
   263   1      24.986300888849552      21.093371834869409      2.6650700923496609
   264   1      23.049413710988933      21.049652442900658      3.8599568908876218
   265   1      22.937125199759354      23.280667474834125      0.2829141879429245
   266   1       24.97516534454541      23.217329597359775      1.2411568220012428
   267   1      25.092948245212657      25.173881741250007      2.5811907335801725
   268   1      22.958392233038683      25.153804920975784      4.0179425462028577
   269   1      22.891950717803567      26.931895367068236      54.101215364104078
   270   1      24.949468257564991      26.892724327642892       1.192883151468412
   271   1      24.683324623683252      28.969661169719259      2.4056817013334926
   272   1       22.86250654572153      28.943997532616006      3.6271253672483019
   273   1      22.947104062501978      30.691603347137427      54.038406302498757
   274   1      25.072220288855711      30.907435012629019      1.0022696782264344
   275   1      24.988082299801814      32.762612936352667      2.7512967489512459
   276   1      23.086217970506002      32.565671915711597      4.0544518673831336
   277   1      23.123977249367197      34.619734714957126      53.949104771474985
   278   1      24.745501239969606      34.667429193783747      1.2821577483133424
   279   1      25.020009123045405      36.461608999747099      2.5360118543921106
   280   1      22.924962050266881       36.61442470013219      3.7332125731409609
   281   1      26.869792434298109      38.274117672354038      54.195650733536098
   282   1      28.778372978377419      38.301274209000972      1.1271723613149425
   283   1      28.744755808096443      1.9811272344764341      2.4377201845726626
   284   1      26.978169548178826       1.902775717205389      4.1338101133263541
   285   1      27.217874107755161      4.1154919602453175      54.196852996888317
   286   1      28.846368707057781      4.0116522039871976      1.3897299948988588
   287   1       28.96394092223526      6.0169816383549826      2.7651138202016923
   288   1      26.821879985043214      3.8567015309773538       5.333589650929647
   289   1      26.748977626738679      8.0441714553714032      54.184133504552463
   290   1      28.881866693342882       7.739190245192562      1.0546241257136679
   291   1         30.854202439679       9.554290766423879      4.1816759666948107
   292   1       28.79284722768875      9.5013191853823269      2.7908712808578811
   293   1      27.269795609041559      11.603707667344029      54.038206536247898
   294   1      29.007631573799213      11.451064835355211      1.2597389656628732
   295   1      28.934030813779941       13.37669092806698      2.8332194045851202
   296   1      25.035314971089367      13.451414725688593      2.5683077534855445
   297   1       27.07396299495305       15.43448157254468    0.012919958571501427
   298   1      29.019441489107081      15.221969169051883      1.4130894771847788
   299   1      28.953766877885244      17.347081226162203      2.8109693499429658
   300   1      27.144187149698823      17.239787333651378      4.2314931227024433
   301   1      26.958766365801274      19.104099617601122     0.19683116989749602
   302   1      29.204385373090176      19.460826895744951      1.3722167674165582
   303   1      28.774112251284865      21.234384430991039      2.7543462008681305
   304   1      26.907610298647779      21.092170914725429      3.8991514716247795
   305   1      26.938619997640846      23.069627699931232       54.28513745734427
   306   1      28.800505816180785      23.243836469264679      1.3842829916610064
   307   1      28.809308937169035      25.243763381743594      2.8116160153544567
   308   1      26.782308543574679      25.128818979979993      4.0926870918170044
   309   1      26.906445485841139      26.793955146748562      54.173957418983839
   310   1      28.772559359048707      26.775139770424346      1.3166291936303671
   311   1      28.736501105418956      28.726068021971546      2.8199601990851284
   312   1       26.48205582932632      28.955359438032982      3.9100474040695081
   313   1       27.15066726524503      30.571970167952848      54.191199172983787
   314   1      28.928169985438863      30.609555845463309      1.6746332596456699
   315   1      28.635233800690113      32.574659683009259      2.5422113061442566
   316   1      26.853126355412702      32.867785410214168      4.1254407068395391
   317   1      26.807465219965597       34.60782386175925     0.14619624311699228
   318   1      28.901125187943549      34.724288363014168      1.3555618100227189
   319   1      28.696466595413924      36.791552033838308      2.9219424886198135
   320   1       26.70694387308162      36.705806894266807      4.1866556460238957
   321   1      30.877266728267006     0.28075696419042684      54.186558868494878
   322   1      32.636039015785421    0.084646155447752336      1.2544865250642487
   323   1      32.529947326715543      2.0274117649001568      2.7386257843720858
   324   1      30.491393317627953       2.098390576369435      3.9403297060137663
   325   1      30.826003223463655      4.0567721227528954    0.056400146376756985
   326   1      32.940218442666072      5.9256930536176213       2.573779985510749
   327   1      31.150013514491214      5.7471030061804385      3.8393671820232291
   328   1       30.54696636899488      3.9267602800897374      5.3542054515323709
   329   1      30.949694205187868      7.6276393371883975      54.283751412344529
   330   1      32.564150095662434        7.98081311387672      1.5754487491465718
   331   1      32.873064307048324      9.9276564513336911       2.700964486447639
   332   1      30.929021683662825      11.505890061356734       5.610214317021982
   333   1      30.976582992204026      11.600835998948762    0.072258488840463833
   334   1      32.437155963086923      12.266999097059189      1.5498053337730751
   335   1      30.608185931530393      13.786084026339394      4.1611026965494355
   336   1      26.991487860607361      11.535248921789007      5.7133378150382494
   337   1      30.840600971530737      15.556087949269306       54.17853242485134
   338   1      32.647407257955955      13.972418073704333      3.2817310771498476
   339   1      33.212140320236067      17.389091655788256      3.0485093150753166
   340   1      31.033253761158605      17.159842353632094      3.9865939439892939
   341   1      31.116366691615202      19.356397544987807     0.18716177170381351
   342   1      33.058843806698164      19.083825114586645      1.5603483613293208
   343   1      32.800293096928314       20.93217237058937       2.623574569668111
   344   1      30.769527781483362      22.952763884702193      5.2989410278086773
   345   1       30.76642742913948       23.11410554427356      54.128532397177651
   346   1      32.666242264818223      22.889286043008827      1.3486961753021218
   347   1      32.650287088846127      24.814858251824752      2.8513508464749839
   348   1      30.691204059522757      25.144766455826719      3.9404786305103681
   349   1      30.686281429982799      26.906831108871664       54.28438671837911
   350   1      32.573602194056178      26.918120429116644      1.4533538856908441
   351   1       32.55554582390667      28.812543644306597      2.6946583838698288
   352   1      30.669255409596509      28.679776110184715       4.242136381146441
   353   1       30.46091515069028      30.908658145931462       54.20113023654207
   354   1      32.475897287449691      30.576100410811261      1.2755564092262259
   355   1      32.402879340685857      32.550277101222314      2.7596884809901892
   356   1      30.530541749149766      32.603641035448618      4.1003387936746467
   357   1      30.782816856181135      34.790171773841145        54.0560029066814
   358   1       32.64835195799651      34.443726354794364      1.2678364230442432
   359   1      32.800111945485938      36.603565032529119      2.5796012251874822