dump/Si_1000_20/steps_91 (written by ASE) 

3980 	 atoms 
1  atom types
0.0      38.395898218429522  xlo xhi
0.0      38.395898217999999  ylo yhi
0.0      54.299999999999997  zlo zhi


Atoms 

     1   1      38.373886031465211      38.310655986188245      54.286257741835982
     2   1      3.6614405984716791     0.18099243210647042      54.143945801707957
     3   1      3.7085722906144674      1.9279556620674552      4.0974808293185232
     4   1      38.371564395294314      1.8325382929328915       3.703713576791869
     5   1     0.13671890668832715      3.7750368249612416    0.059323115831193693
     6   1      2.0392017228772077      2.0807112940495007      2.6448827006845157
     7   1    0.011913296934024931      5.7702856453326676      3.7870865020220297
     8   1      36.318941149343701      5.8214139527804676      2.5900019502522262
     9   1       38.38986124015436      7.9032655789396724   0.0045854041488837529
    10   1       2.106687504766092      5.7198730215694944      2.6321305404566391
    11   1      2.0582891097523697      9.5432618787208536       2.488742350874793
    12   1      38.392496852166794      9.7423834166794006      3.8530910178322975
    13   1     0.23692407808285523      11.515489474768096      0.1375638699683466
    14   1      4.0322138561028842      11.274818986274907      54.215091186075462
    15   1      2.0830713562195737      11.649017434916741      1.4186029179183146
    16   1    0.052053828547746692      13.628624373179496      4.0412010224205455
    17   1    0.034134101551226433      17.360246035704595       52.75423659083102
    18   1      1.9162617568139058      15.753857427982558     0.97136203571081836
    19   1      1.8761631783341444      17.345863477508868      2.8549125294690367
    20   1     0.37221818662790968      20.608979158084143      4.4382267955986077
    21   1       38.28507953457553      19.189500952324622      54.263665514618324
    22   1      1.9873800042594312      19.431617556691783      1.6000889077051617
    23   1      1.9700121465671281      21.170291044391554      2.9698267341099966
    24   1      36.795889693239026       20.81521035127205      3.1398792261494237
    25   1    0.060923776300821818      23.095090497984838      54.255719130706169
    26   1      2.0957346417001621      23.061240557311574      1.2557220457097495
    27   1      2.2451643323710848      24.855185027770027      2.7340974729704381
    28   1    0.092374643868333398      24.845692180667434      3.9596845818340154
    29   1     0.16430937269883525      26.850530786937703     0.15624298891034427
    30   1      2.1417526676557292      26.744533647562882      1.3657530683423469
    31   1      2.0786400264314371      28.652825337732494      2.6740769524022427
    32   1     0.37886585449710897      28.915306876699457      4.0498941357859026
    33   1      38.320510468747067      30.680399403394325    0.018058180926846048
    34   1      2.0729125312472503      30.824451191380859      1.1960689029937961
    35   1      6.6361244119411067      32.447761166773844      51.212097153400329
    36   1   0.0019390097502889217      32.647055415814521      3.8406245795283329
    37   1      38.337701562140317      36.416083319022228      53.011886630187888
    38   1         2.0653171862158      34.532534954525921      1.3317611746388134
    39   1        2.18120583941033      32.668273972222387      2.5980058805766477
    40   1      36.393972304111934      36.244677817837371       2.662278377324061
    41   1      3.8375397674849285      36.453355454115858       52.91154926694044
    42   1      5.6398973313307339      38.201872686846706      1.0290444098385501
    43   1      4.1343583403302482      5.7127899752717752      3.9048712934688075
    44   1      4.0435676350110086      4.0167589122503715       5.344373090384849
    45   1      2.0286482330155247      3.8783026345595153      1.3840396180604908
    46   1      5.8280341129375319      1.7536939727588063      2.6122575237247943
    47   1      3.8422260499629202      4.1332721636671623      54.279081419996459
    48   1      6.0411935418054981      5.5014915681197509      2.5537489774819724
    49   1      2.1475915972308712      7.6146652657740148      1.1412286394936695
    50   1      4.1985509988770229      7.7115554576366829      54.187517914487081
    51   1      5.9328032687035783      7.6174146216186385      1.2196059380188564
    52   1      3.8958896690685516      9.7139829884904536      4.2315411746508493
    53   1      5.8396209758233901      11.622878628668834      1.4947222709400994
    54   1      5.6316164704539711       9.450761330298997      2.7049415906862939
    55   1      6.0120835004614497       13.69381610386441      2.6371183750767249
    56   1       1.680861274992774      13.853142250990354      2.4311831030037401
    57   1      3.9894513157232865      15.581208204200674      54.283544582013697
    58   1      6.1792606450460896      15.611075061753187      1.1041251795156062
    59   1      5.7402247634140418       17.25890175431832      2.7416931457656033
    60   1       3.815635500909945      17.104681043414956      3.9994178812613312
    61   1      3.8685138931024849      19.494178256630523    0.059130187255277605
    62   1       5.833709098514742      19.362761592397217      1.2561794504357275
    63   1      5.9026690879535986      21.366467565792433      2.5317600980650674
    64   1       4.063470591692508       21.23851396098361       4.149669592120981
    65   1      3.9510796288755086      23.245229143616001      54.174630232112186
    66   1      5.6881014786344632      23.447026465601777      1.2924587104247072
    67   1      5.9344713436229224      25.411500718595551      2.4631093794056849
    68   1      4.0563413974440836      25.136643208297002      4.0348487578427594
    69   1      3.9593444073883282      27.115822741760862   0.0030387870244567273
    70   1      5.7765700215668243       27.28284951540099      1.3206737477316901
    71   1      5.6722267623063551      29.443993414250045      2.2966332757448646
    72   1      4.0300966389923722      28.949182926298654      3.9853108281562744
    73   1       8.093767144034766      32.559847815448116      52.959803972710525
    74   1      7.7487248165833407      26.797283530221545      48.901426424419711
    75   1      3.9245823031084659      29.243560880946543      53.195811699176751
    76   1      3.9488192453636923      30.845513995898585      5.3573902354217351
    77   1      5.8283157662219258      32.073853794807739      2.4131271761635982
    78   1      3.9749214920100622      36.507307410140797       4.066325809113593
    79   1      4.0918379673868577       34.73641906489339      5.4599555944680631
    80   1      2.0890742844263634      36.454634062518323       2.609446192167387
    81   1      7.9950486292999852      1.8623120984906911      52.898967151367742
    82   1      9.6659566626665416      38.220136556367116      1.2510985021714065
    83   1      7.8775517227029708      3.7495317004521551      5.3559920333201054
    84   1      7.8992111081979939      38.320980798808236      54.148178579487492
    85   1       5.981659087356852      3.5785153871418314      1.1738786067339901
    86   1      9.6585695584765361      3.9068392433439878      1.5789758279981243
    87   1      9.8167527404612578      5.7923684527444053      2.8027320755405087
    88   1      7.7455057796437767      5.6776217908908961      4.0017230187870396
    89   1      7.8734665101658665       7.869862874703653     0.14444231187768547
    90   1      9.6483492622819629      7.5781113724101452      1.5166053686246415
    91   1      9.5917496902989239      9.5605799197547441      2.5356016049332308
    92   1       7.732823447502235      9.5060446636426459      3.9324164764784646
    93   1      7.5288492351172218      11.366714348581016      54.083221550022706
    94   1      9.4280522165713805      11.550752501741654      1.1522051499836168
    95   1      9.6107316355529271      13.549851010393587      2.5391345607592948
    96   1       7.904558207778507      13.447899025171312      3.9206261510053673
    97   1      8.0373282474784293       15.19386850871363      53.892870903320286
    98   1      10.067722605281753      15.382468753111343      1.1402167281984941
    99   1      9.5915669081786881      17.217879281776991      2.6184153340893541
   100   1      7.5936853341173922       17.35237858794887      3.9784090463215298
   101   1      7.7929440418203777      19.226904669145291       54.26879530223755
   102   1      9.6219452816921383      19.203381734085291      1.3990444405428302
   103   1      9.6915697595078196      21.469598975637084      2.4867194650050921
   104   1      7.7664007254910601      21.144831382746776      3.9042429674290906
   105   1      7.6597624109695008      23.073174247756178    0.010144029572984442
   106   1      9.7578637742561849      23.242802979050484      1.0563086314887875
   107   1      9.5985364597675229      25.080189231326802      2.6181207761685439
   108   1       7.794869348849824      24.734663036103953      3.9874218700758455
   109   1      7.7650470271607208      27.640334654420069     0.24992605061395359
   110   1      9.6668872461609006      26.924149847694295      1.3384822766220972
   111   1      9.6192194125568395      29.029072488466323      2.7184713882690765
   112   1      7.5343898989496179      28.815955550009676      3.6601696844385621
   113   1      9.5141097826513352      30.743472006679553      1.0382055347140307
   114   1       9.453541584153049      32.552815364482818      2.6286612084270597
   115   1       9.305100042771322      34.583896804693737      1.2568374117328067
   116   1      8.1353673478855928      30.608735974515017      5.1847643019735887
   117   1      7.5629127017569555      32.415517735712115      4.0363419767476909
   118   1      9.6620080841418936      36.424705340779099      2.5687542893196804
   119   1      7.5598676538810468      36.429974624377955      3.9324544358760716
   120   1      5.5966458600344557       36.30569315539973      2.4361903471004913
   121   1      11.672879190931491      38.197894399661656     0.01962234312418332
   122   1      13.552146165710502      0.1898524067001911      1.5977990466030989
   123   1      11.190885057340305       1.917987341541568      4.2286999889963122
   124   1      9.6791210100488598       1.783233047815725      2.5275016511857666
   125   1      11.555774843347244      3.6137158591371583    0.033313037980019569
   126   1      13.421199395740631      3.6696147173467075      1.2588890077263022
   127   1      13.363810059179137      5.6694959829763505      2.5852391874247695
   128   1        11.6779138942722      5.6107347058219919      4.1912037087305425
   129   1      11.288773216839568      7.5638734547695261    0.016353880893632298
   130   1      13.239536053460837      7.5984889223604526      1.2220183697035978
   131   1      13.447960917069809      9.4333184030597579      2.8062930920455291
   132   1      11.471037789102606      9.6731487426296123      4.1543031564837758
   133   1       11.35268018037404      11.397090957756685      54.271644104136591
   134   1      13.365057016998014      11.349294954072489      1.5321825876393396
   135   1      13.372032380357449      13.378168914242323      2.7638309918790709
   136   1      11.427800615770733      13.494139155695676      3.9599254057011639
   137   1      11.806189017211238      15.554684108569493      54.101626098507566
   138   1      13.582957311696012      15.173328042765824      1.3720080955999725
   139   1      13.641448558479251      17.329821140299511      2.5397036586509225
   140   1      11.642017662757439      17.273579221331371       3.903664472094627
   141   1      11.589869302198821       19.05620614259059      54.293849833662406
   142   1      13.859864508194599      19.164973757644209      1.2799352537049469
   143   1      13.718759784519303      21.143236688448749      2.3976887741370452
   144   1      11.691640314250902       21.03060816251292      3.6895264857776593
   145   1      11.855298576101893      21.027967377351818      52.905639634925542
   146   1      11.631003395019684       22.87237027144598      54.135136282146057
   147   1      15.394188744419257      22.744686805407646      5.5397030466697395
   148   1       11.73327347992462       24.98828668670647      3.9284299413506005
   149   1      11.517371377703853      26.892913722247346     0.17168722454471194
   150   1      13.630412267495755       26.90297184945403      1.1753612363619592
   151   1      13.637165203307188       28.88629906854375      2.5710965591212491
   152   1      11.674227915478525      28.737477183234144      3.9167723144574658
   153   1       11.29549613666944      30.679032870816389      54.188212852004725
   154   1      13.283835345071752      30.794938241073396      1.0375744028521121
   155   1      13.141315649430497      32.660445090420659      2.6280198687731273
   156   1      11.416600250582505      32.489485165993422      3.9907264070521702
   157   1      11.302564848279113      34.498865446575572      54.220311458057751
   158   1      13.063561000255003      34.588601240094178      1.4510906689268512
   159   1      13.308519263311302      36.450859557151183      2.6342189576648609
   160   1      11.370724702262226      36.359531359693761      4.0192930684269097
   161   1      15.309279144582453      38.350756341050541      0.1220334593242112
   162   1      17.273887965391033      38.375691329080567      1.4472107129785385
   163   1      17.294669535766662      1.8390943485771498      2.8568964913238117
   164   1      13.616670975060735      2.1699786077335332      3.0379716895341162
   165   1      15.446998382725903      2.0040252613639891      53.100325922558063
   166   1      15.403760319536181      3.8767706090162366    0.027662876385318218
   167   1       17.24137386741964      5.8764569762029888      2.8326021399298282
   168   1      15.571075734917899      3.6073031380687541      5.5922373585293466
   169   1      15.174816414916995      7.5760533120149329     0.15700281444857175
   170   1      17.336182638780059      7.6444910865728311      1.3213569774727252
   171   1      17.373280817771406        9.60386605018906      2.6179888243847023
   172   1      15.447613395093201      9.3548549774255445      3.8560692208218801
   173   1      15.246400345690473      11.320114259881095     0.20806612381327355
   174   1      17.340248199320431      11.419235034465098      1.1991513856353455
   175   1      17.340515329745621      13.377528064742563      2.4802334256309928
   176   1      15.413875940107541      13.391173255333978      3.7544454619752283
   177   1      15.440309091973749      15.329032543950044      54.274961930681314
   178   1      17.297348788928794      15.435992736790412      1.2761424807627704
   179   1      17.281187500096785      17.087810191077125       2.887210435227507
   180   1       15.25201032302002      17.098697927740531      4.1958687518458317
   181   1      15.491392970887656      19.411789853944217      54.159005942788987
   182   1      17.307629548699637      18.852142832398833      1.1794974450419413
   183   1      19.201034844295254      21.096868624995675      3.7842689609956435
   184   1      17.326358339304274      20.911201330101896      2.4815698466657983
   185   1       15.60391303533874       25.03607346556813      52.503957107038879
   186   1      17.248151701712487      23.018135625982257      1.2616654040480497
   187   1       17.15483478003706      24.949323232876242      2.7393437624305985
   188   1      17.288143989850006      23.127613304656748      6.6251427813293935
   189   1      23.097296406814749       30.64312248931472     0.15512659818008409
   190   1       15.50629440395312      23.186519609581858      54.023268816784174
   191   1      19.130886640215536      28.854346109118833      3.9995509625917527
   192   1      15.445537618866853      28.694529013902894      3.9639289700882587
   193   1      15.195726183497674      30.493215036382015    0.036636062157629143
   194   1      17.224369972584199      30.470022741928986      1.4600705672835574
   195   1      17.178165542847925      32.584198321040283      2.5870572599286588
   196   1      15.119424266233624       32.53646678216522      4.0554562098840723
   197   1      14.980778573420752       34.61526798913043      54.199714770599797
   198   1      17.192694214382097      34.297160119329135     0.85213130407777438
   199   1      17.272577096241353      36.035274946690009      2.4143514639394859
   200   1      15.305394124718479      36.159828042499754      3.7862429717522117
   201   1      19.026531459831336    0.091051266905879322    0.063107297154749623
   202   1      21.136791120251413      0.1570388339125573      1.2699680360197585
   203   1      21.310489096605995      1.7518356711318892       2.894955857535956
   204   1      19.347024152126195      1.7168437713639504      4.2673187681777085
   205   1      17.188318369201195      3.9669050682423159       1.346370967767859
   206   1      19.287210785454171      3.8009958089466278     0.27472362256579558
   207   1      21.134420306319157      5.8242945802854473      2.9195151598604516
   208   1      19.257702302760475      5.9206534242741284      4.0707569741015499
   209   1      19.319124052740619      7.6455943239053266      54.198755609489844
   210   1      21.188525752432191      7.6464604124189268      1.4266900517293952
   211   1      21.006193913929593      9.7638124622214004      2.5608232610919148
   212   1      19.118210206461402      9.8734475547486511      4.0966189172115124
   213   1      21.206694624228572      9.5447428832027139      51.315173866266498
   214   1      19.455722112498322      9.4594118088731154      52.761380235972446
   215   1       21.12062403676439      11.678606390401725      1.1689088577488269
   216   1      21.119849345485321      13.421850649408704      2.8277495839643265
   217   1      19.180815211983312       17.45900342733642      52.730129370947374
   218   1      19.239964558060993      15.418657661720381      53.868273058876333
   219   1       21.05723575102364       17.13767841479503      2.6314542756170112
   220   1      19.225944943189823      17.266238009811801      3.9885419189799025
   221   1      19.185317229679683      19.257823798414467     0.04352781462422399
   222   1      21.280397802887475      18.961137816289924       1.232085370596419
   223   1      21.248704884288092      20.929016400768806      2.7325171143149514
   224   1       19.20051869592897      23.004779123710694      5.2438584660724796
   225   1      19.342337820584394      23.121820034257997      54.269199211293973
   226   1      21.258619587346981      22.761237723321685      1.3371342333248637
   227   1      20.882074303905981      24.830260623582284      2.4351088699132801
   228   1      19.176740404135721      25.153942490251961      4.0637888173734948
   229   1       15.37314068441634      26.594773844002091      54.118405630003878
   230   1      23.070883227213265      25.155754393589334      52.850072448413087
   231   1      23.139291731267914       26.72047616580338     0.28760987897270507
   232   1      19.289722994343862      26.827944298201331      5.4685029394385092
   233   1      17.306707152057442      28.721269307788916      2.7205066967312725
   234   1      19.383621731048645      28.775560555847118      53.004446609246187
   235   1      23.419911879502571      32.488017575388795       52.84746633306262
   236   1      19.059856484190217      32.522095627155672      4.1967046804923616
   237   1      19.147396889786819      34.385790206492118       54.01545081082643
   238   1       25.08652785311687      30.659989270429573      1.3167287681840003
   239   1      21.392477816812335      36.585878360142026      2.3986492342508674
   240   1      19.468484953552771      36.182775039236382      3.6912988945818945
   241   1      23.049766095706044     0.13620323112288368      54.249568279884684
   242   1      25.005651140640325     0.16073387438283349       1.338251453306625
   243   1      25.179215618352412      2.1612251327933514      2.7151726055935224
   244   1      23.366449227056151      1.9877466963779593       4.232242681877378
   245   1      21.080052524961491      3.8892223897982761      1.7442701534811722
   246   1      24.862431269435312       3.837738862259843      1.2901301270230416
   247   1      24.711745501536011      5.7777533605309914      2.8332380999897611
   248   1      22.908858137111746       5.773747696207634      4.4131227129136166
   249   1      23.162109130546785      7.3391215693852008      54.261860146417611
   250   1      24.955834062349599      7.6058447293571207      1.4394306832372745
   251   1      24.861928737945679      9.6803775665975405      2.6586478388431121
   252   1       22.99956714722132      9.7411210841417581      3.9219197992108334
   253   1      23.259243925978748      11.560317963362849     0.12030530168143509
   254   1      25.250490834514412      11.742818727982023      1.2739227773152404
   255   1      24.974780709177587      15.600329780393137       1.398397696311984
   256   1      23.189136414795687      13.728658397382446      3.8356100640433715
   257   1      20.966742229515788      15.134975444903523      1.1676811364417163
   258   1      21.238594731787451      13.414782812143368      51.557579450132629
   259   1      25.091795125033794      17.427718656686597      2.8335949565936498
   260   1      23.265402706630343        17.4998511215327      4.1103427051968433
   261   1       23.27142152605299      19.159827834667212     0.11583377121893378
   262   1      25.142565791393366      19.576525771391509       1.591112982614483
   263   1      25.033859257315722      21.476614499952298      2.7976120526785055
   264   1      23.095157413349078      21.154701654381373      4.1164177893800353
   265   1      23.159335822379738      23.078579365688441      54.070005268345326
   266   1      25.082847470439958      23.203972786649668       1.287625592227621
   267   1      24.919754298479056      24.966361116626885      2.6808529535372054
   268   1      22.833580446699855      24.906659593034103      3.7628580418700248
   269   1      23.382343382049431      28.902694589180292      53.244012307270346
   270   1      25.056782946744789      26.913245224875887      1.3261979484495563
   271   1      24.981543170122237      28.801582931492817      2.7640425412565581
   272   1      22.995857500011887      28.822126418209034      4.1018499633980898
   273   1      21.116173278446901      30.791248071732191      1.4171064329979919
   274   1      25.097352197068055      32.670660684070924      2.6019560573374521
   275   1      22.953167847520177      32.600918142273954      3.7808770022031228
   276   1      20.993748797104995      32.569565605282868      2.7577418811343914
   277   1      21.042360164331576      34.386181346857761      1.0874636142779761
   278   1      24.788199008515829      34.495586575953631       1.401466223513431
   279   1      24.871027723247277         36.489530533381      2.5944339653200363
   280   1      22.793710267973921       36.49855253289212      3.9802908954208327
   281   1       26.89711613976522     0.10960767780098649      54.116386437035274
   282   1      28.907654029551818      3.8495553244660612       1.479586292145689
   283   1      26.859091706524001      1.9752073597351671       4.145362038411486
   284   1      27.008907220090467      38.358438045256932      5.5319070927020624
   285   1      26.903307265777276      3.9463539403866537     0.14146575915605153
   286   1       30.73984297474232      3.9903040540193864     0.18483970962244037
   287   1      28.603137009411466      5.8541172604106757      2.7785186984429751
   288   1      26.882850192655638      3.7287804018405755      5.4426067102105176
   289   1      26.896439755316024      7.7789896676434731     0.14191960687455796
   290   1      28.722975854343687      7.7272542479366386      1.4032603498903087
   291   1      30.734812593107609      9.6805660006599208      4.1547122633829767
   292   1      28.783387813631087      9.5858535783881358      2.8530208107515342
   293   1      27.047629273246791      11.508270709301634      54.287023449796564
   294   1      29.000510045091215      11.492902476994642      1.5590682544598415
   295   1      29.148468674652001      13.412277202367598       2.807186767983195
   296   1      25.178019785921069      13.628390319527949      2.5780904626047803
   297   1      26.813741408772248      15.283858811287375   0.0039106376116592395
   298   1      28.904571826114555      15.367124849023673      1.5699456554599907
   299   1      29.410483358153279      17.337604898100253      2.9140964191465262
   300   1       27.15282321001493      17.350882337724052      4.1375112506662726
   301   1      26.957838429116492      19.258101080876678     0.24974911155215995
   302   1      28.978677121509346      19.231394234300883      1.3710829279214096
   303   1      29.141090335835106      20.971463425448956      2.9784838606235349
   304   1      27.134081323574843      21.324388537813658      4.3589147371136292
   305   1      26.938739227172256      22.959997961366419    0.063178107309852252
   306   1      29.158639769258297      22.934498461430255       1.642221594349369
   307   1       29.04159024554356      24.838942386738786      3.0131836401681302
   308   1      26.682679714197491      24.943393472766761      4.0329174770365146
   309   1      27.117877312581562      26.760173804253402      0.1831671766114257
   310   1      29.022534721479246      26.801566867658099      1.6921091449696382
   311   1      29.311354546705459      28.862416031573879      2.6925374162609281
   312   1      27.092758726212544      28.615293638255789      3.5432860249085456
   313   1      27.028086452479343       30.53986870649328      54.088424978478699
   314   1      28.721019715240761      30.741870559419372      1.4862251574449465
   315   1      28.632491016096868      32.671437005595706      2.8321846997108429
   316   1      26.640304326460736      32.819984941264316      4.1750374612434458
   317   1       26.82330552604062       34.52870043463863      54.297706658422648
   318   1      28.748925125007521      34.489551174624069        1.28868687839313
   319   1      28.734989919234174      38.272979443831474      1.3922662443924756
   320   1      26.693574627574783      36.469181798483667      4.0933157961377793
   321   1      28.780817133361229      1.7962657324238955      2.6860445223312799
   322   1      32.344848984834982       38.22831890877648      1.3632632900455417
   323   1      32.649138238319338      1.7620906457018481      2.8040774485789006
   324   1       30.85764711229417      1.8880539206803406       4.132347810518036
   325   1      30.578593650164311      2.0869265387687035      52.982808899589983
   326   1      32.652430491520782      5.6837701704367021      3.0674113574886088
   327   1      30.501490246068087      5.8776984969739461      4.2776664106460904
   328   1      30.879552780693093      3.8934933024911205      5.3740341722359766
   329   1       30.40276685570382      7.5413081426967157       54.15619512984172
   330   1      32.567476212814903      7.6182224011297492      1.7546177816585986
   331   1      32.787494207880172      9.8483054219252821      2.8615639459052451
   332   1      30.677492000924818      11.493783705196559      5.5623662054600107
   333   1      30.592157050190423      11.328265188989281      54.242912258747914
   334   1      32.486433670709715      11.745020136227337      1.4205101017802102
   335   1      30.889342759710395      13.463017684522496      4.5371627454204617
   336   1      26.991068406089262       11.61226231564113      5.5061558042904988
   337   1      30.770876007067937      15.206310160532661    0.015357156424340716
   338   1      32.334756253682158      13.650382715075896      2.7419862615600912
   339   1      32.749720850427344      17.422277631155634      3.2807287093676574
   340   1      29.035167134823393      15.867744602701828      7.0074846349580779
   341   1        30.9684706109826      21.163498531959572      52.944846982410823
   342   1      31.082248670463667      18.952768180901579      54.296653543070654
   343   1      32.765485408399172      19.016729103140396       1.504156201204945
   344   1      30.585398449066542      23.156865399892826      5.4882926904949301
   345   1      30.904602239732462      22.936535347894463      54.250204747779449
   346   1      32.932118861779728      22.812973130395921      1.4193580337036249
   347   1      32.766315591239099      24.819424608095606      2.5946602986545138
   348   1      30.979064818683163      25.092157031124518        4.00689728876314
   349   1      30.912775969097588      26.809478194638714      54.249519447675262
   350   1      32.822116755218708       26.84086115670933      1.3737343151989536
   351   1      32.864318380043734      28.842443734951669      2.7451325702999041
   352   1      31.022959357482385      28.906873884156941      4.1458176160815494
   353   1      30.707838780208171      30.825901547638892    0.033891247075769113
   354   1      32.589167196193621      30.730880803680861      1.4596759936170209
   355   1       32.52581599122243      32.664972351581682       2.851242263710819
   356   1      30.481669942143839      32.918689741185801      4.1121837668096193
   357   1      30.642308812439911      34.648134987080333    0.022046067817802866
   358   1      32.557267426210373      36.355908601125222        2.64003707910015
   359   1        30.5536695860051      36.587739518225952      4.0900643398256111