dump/Fe_1350_20/steps_11 (written by ASE) 

1980 	 atoms 
1  atom types
0.0      28.699999999999999  xlo xhi
0.0      28.699999999999999  ylo yhi
0.0      28.699999999999999  zlo zhi


Atoms 

     1   1      28.554036833566386      0.1167301595343246     0.33866169892331721
     2   1      1.5527224761341016      1.3224028505920951      1.5689141735222065
     3   1      28.501830952788723       2.820056498881728     0.28355838208650519
     4   1      1.2994412449973212      4.3297479873356961      1.7345552067526693
     5   1   0.0033726200710706435      5.7250567135036254     0.26733599734237701
     6   1      1.4989949539569587      7.4177932425372761       1.354407331625135
     7   1     0.18121360648464371      8.8367710592787123        28.5718108810559
     8   1      3.1260203339353421      8.7134051546868889    0.046802857160923736
     9   1     0.23796112912890771      11.326459029761086       28.63636331145122
    10   1      1.5298111030151187      12.880634089242228        1.29546454002059
    11   1    0.063146421312843315      14.210984839583082    0.066601777306812035
    12   1      1.3376901315931389      15.675661552516768      1.1535187279804859
    13   1     0.13274128811616781      17.136000908827707      28.667334773820915
    14   1      1.3644413931750821      18.731080379840321      1.3754593827957144
    15   1      28.501447628269933      20.121741260025694      28.579330847554104
    16   1      1.3647873012786602      21.215336979358959      1.3818998838571692
    17   1      28.668387968853782      23.000110139148916      28.472681357689211
    18   1       1.304910822937758      24.513237997373984      1.2991937007378049
    19   1      1.2514044822541825      27.550586317787484      27.370547923798455
    20   1      1.4446555779028603      27.257329853086269      1.3338626125427488
    21   1       3.041297154718865   0.0039318176464820959      28.545686112126063
    22   1      4.3384595023820758      1.4978972685867342      1.3317419840472897
    23   1      2.9660193938363077      2.8126693558595091    0.055660884200290119
    24   1      4.3171336735891606      4.5069687784340884      1.3909090163092166
    25   1       2.716305536741185      5.7761205154482154     0.14079419159064621
    26   1      4.4770350957841796       7.033194166761926      1.1239754027808186
    27   1      4.7746402657270677      9.8678697677274911      1.2131464827477538
    28   1      3.2711789351006053       11.44936935352089    0.093496185754224886
    29   1      3.0787786421108638      11.404450403363677      2.8745027147895357
    30   1       3.471437110226371      14.424734901588215     0.11280127848085618
    31   1      4.2836277487589101        15.8659330689336      1.5089218513394378
    32   1      3.0387168330341754       17.50006755564365    0.018847196730280312
    33   1      4.2360942586858981       18.88124958351024      1.4407519620248772
    34   1      2.7711382898355201      19.954862287088272      28.508042529088129
    35   1      4.0877790230810334      21.336256719222469      1.5684717879857766
    36   1      2.7773193981981215      22.981471632483508      28.595306203520639
    37   1       4.158398755301957      24.316280726149955      1.4026662023536907
    38   1      2.7992037678667474      25.869876885071253      28.515122898383996
    39   1      4.0094096806326425      27.193324903894222      1.2465355637461799
    40   1      5.6344125417670003      28.581987098211002    0.058635272248921018
    41   1      7.0715116687265356      1.4665005144201697      1.4600465093423391
    42   1       5.682625147096962      2.8134434676600018      28.491838487277334
    43   1      7.4197922229513535      4.2232042540202714      1.4009611695951094
    44   1      6.0456356373330502      5.4299162441949047   0.0021173346636601314
    45   1      7.2231463543809191      6.9139143139986556      1.4695233352752441
    46   1         6.1092987330824      8.3934277609517594    0.066801318880107055
    47   1      8.5842418307612274      8.3259738513378228      28.697574188498674
    48   1      7.1903328269691027      12.602573598103701       1.559002267711354
    49   1      6.0534076722067294      14.372699952687144      3.0269540897972518
    50   1      4.5708677378198201      13.003225148292332      1.5780526123164673
    51   1      6.1962098744554091      14.140386922528087     0.10753969120843286
    52   1       5.748895301205442      17.316735691641547     0.14863835273979484
    53   1      7.1217826684249719      18.793907608368926      1.4942198154333577
    54   1      5.8423053013208559      20.230674188382274      0.2780140037284014
    55   1      7.1777892875224429      21.661436954747522      1.4408699327733199
    56   1      5.5230116736063017      22.980245393035279     0.18690059026083652
    57   1      7.0097921796793692      24.496062881390255      1.4680373679068206
    58   1      5.6353160994601721      25.835465343494679      28.409070606683631
    59   1      7.1001120018940318      27.214353810156066      1.3163686979257807
    60   1      8.6560825321043957    0.091412167209580342     0.07000194565729323
    61   1      9.9335160146868109      1.4630075366675221      1.5645955793293076
    62   1      8.6474269504009147       2.904746035789334      28.643497238635437
    63   1      9.9040538411580901      4.2002514805450089      1.4498192006700714
    64   1      8.8005384831815849      5.7320173901296192      28.646892703167328
    65   1      10.064494943761259      7.1072068055629254      1.4584272645249152
    66   1      7.2412745460397225      9.8471192704183004      27.033563969126366
    67   1      10.009117898074644      9.8916462771113629      1.3026980353610265
    68   1      8.4205273200371025      11.414301603084496      28.359920244565732
    69   1      9.9920455861362978      12.664966289363296      1.3707313792264706
    70   1       8.800372221712367      14.348522151147936       0.113337964514858
    71   1      10.085313174109569      15.842204040277341      1.4991100950347473
    72   1      8.6230877815260563      17.299318859400916    0.047945491766734107
    73   1       9.964496244324387      18.795273657370608      1.4289154241941548
    74   1      8.6313393869054185      20.090408981574019    0.087940534976917062
    75   1      10.151343553778155      21.575855701544942      1.3226560880282816
    76   1      8.6814863997679765       22.99990267653444    0.038966022509839458
    77   1      10.312745449618822      24.433903091290166      1.2381484848950881
    78   1      8.6718526926639559      25.932990311883746      28.673084554596748
    79   1      11.206050304604506      28.677454207412772       3.031119140121282
    80   1      11.409772489472331      28.630255892161433     0.17473444035092603
    81   1      14.330801448243706       2.786955090550475      3.3145008461779764
    82   1      11.542331074469066      2.8415577323888086     0.10591686207103509
    83   1      11.567028447570802      5.6381650850170413     0.16436833213201674
    84   1      12.912785906281663      6.8369491225574324      1.3887499484171719
    85   1      11.577862397095515      8.7066292612426874    0.089580093378174283
    86   1      13.079379737466454      10.073522348294684      1.3475455013968149
    87   1      11.302606246910754      11.320682937662438      28.668858964068964
    88   1      12.924690466080051      12.789301736838057      1.5347870680531517
    89   1      11.612071608174146      14.090381473535201      28.586243016731942
    90   1      12.971994173507928      15.777259053591608      1.4246396428811638
    91   1      11.598110220529168      16.832852041387536     0.06284336875370411
    92   1      12.964397497447196      18.409987002818657      1.3287204342076733
    93   1      11.423484031765986      20.137515097079639      28.698037963921177
    94   1      12.732290606238434      21.405657480131271      1.4355522247550998
    95   1      11.583194605266716       22.88238737090699       28.65968488597953
    96   1      12.871210366877166      24.348666307751021      1.4940621462147645
    97   1      10.065617248609474      27.274607040248561      27.328600439507085
    98   1      12.806425698128397      27.090780127974199      1.5992894010482133
    99   1      14.141785062508466    0.010594849664755662     0.26164984375939171
   100   1      15.703152200875017      1.3911385649487096      1.5208794939215395
   101   1      14.288358905097166      2.7839607800998341     0.02036913245337928
   102   1      15.706945159911429      4.1114500019451228      1.6434299097379028
   103   1      14.438564434089725      5.5707098658831793      28.588169687789222
   104   1      15.856093159169616        6.91608503142574        1.61679145848624
   105   1      14.445781686922427      8.3650054588045339     0.19262023547929621
   106   1      15.998860040686186      9.9552226792868517      1.4858778845949026
   107   1      14.609970605714414      11.674813077007768      28.549372025190383
   108   1      15.969914377640899      12.865552052805683      1.6699007207374852
   109   1      14.226762150204149      14.152204041124875      28.603980017417602
   110   1      15.659460658667227      15.888275238717586      1.5341372921278531
   111   1      14.344469932509316       17.00952256253256      28.525643911780676
   112   1      15.921131798645504      18.387590897462758      1.5234844036013442
   113   1       15.85168667016918      21.623310148327352      27.351267344638927
   114   1      14.517001858874336      19.986304143777335      28.642897663805829
   115   1      13.012757141688237       24.05002173437267      27.420914827940749
   116   1       15.86520040845777      24.461999988030257      1.8400468116420134
   117   1      14.405871857225524      25.656142769548719      28.665832753727855
   118   1       15.49467443846064      27.392120719200964      1.8823453391764815
   119   1      16.985599524215143      28.534394466262984   0.0091846140804932551
   120   1      18.353382392619849      1.1725274024632655      1.4772279222991747
   121   1      17.158782446154468      2.8554583394733282    0.060508070055630088
   122   1       18.62602353724963      4.1960996002298083      1.2514329216402418
   123   1      17.211699076966262      5.6648740201684902     0.15073311426341432
   124   1      18.656093315716799      7.2522270387047971      1.3462976714501205
   125   1       17.09122140356553      8.2399548599495258      28.635125367957762
   126   1      18.531391268107573      10.000633558526513      1.3809577288538089
   127   1      17.170570028639347      11.335617397606978      28.588567202019068
   128   1      18.584133138884699      12.994529887127838      1.4956701540373376
   129   1      16.759497065280446      14.244720291838037    0.018002401871206074
   130   1      18.597673027141909      15.629645958045078      1.3818452785604118
   131   1      17.115609834415519      17.090673758423865    0.041337933576471773
   132   1      18.489946473733383      18.600223175846391      1.4358856068409078
   133   1      17.176098873681546      19.985968695261185      28.608876627478352
   134   1      18.478522630800434      21.469356637173245      1.3679867803094332
   135   1      17.072461305930972      22.942977846313681     0.24352766683067548
   136   1      18.419954208859597       24.65644387648916      1.6278103314382399
   137   1      17.024766803085594      25.771679743136577     0.28504590215549097
   138   1      18.547417656366324      27.328862576655197      1.7609953980702129
   139   1      20.061299772828679      28.669319231978097     0.22868021674721609
   140   1       21.59347785393313      1.3582614917528297      1.5029365090685121
   141   1      20.087958732871723      2.8206032376924544     0.18128619473518487
   142   1       21.46278661235533      4.2367663036440923       1.677982934915722
   143   1       20.12875113036225      5.7710825684822424      28.637854328665988
   144   1      21.393289384758091      7.2721862970301183      1.3076673416159446
   145   1      19.989158841373168      8.4946812041822835      28.511920804152112
   146   1      21.181175843541283       10.01491126449973      1.2666998408950791
   147   1      19.961333168037878      11.533201406929814      28.625278373119343
   148   1      21.078637411252604      13.078940256064577      1.3807605574460575
   149   1       19.89566329444494      14.565659227397699      28.577142487259412
   150   1       21.55484249167765      15.935816065732901      1.6164499243651897
   151   1      20.067143058747543      17.252554474812861    0.082083669977407611
   152   1      21.744839973365803      18.786665029215648       1.523975594919545
   153   1      20.046652823549433      20.054894252334872      28.688628744273636
   154   1      21.633670973276676      21.674809939691436      1.5618497703559335
   155   1      19.904325406441991      22.867002774135905     0.10538556407224163
   156   1      21.848217915113363      24.195125275157167      1.5213879101933006
   157   1      20.133327536127808      25.897025414387372      0.2626400338650115
   158   1      21.628415996354203      27.331603712416793      1.5673420730723486
   159   1      23.288072139633229    0.071215089567148823      28.573629077309921
   160   1      24.542529409894705        1.70220343606304      1.3937564722499012
   161   1      22.888422118654788      2.9014940913674176      28.690661322718586
   162   1       24.44477379987298      4.2020275214720417        27.4093515920176
   163   1      23.060085356508353      5.7415286778560457      28.667477990988573
   164   1       24.30880587406882      7.2311464377345764      1.1516350774305359
   165   1      22.779427063188145      8.8185410243585505    0.019620786304619733
   166   1      24.339856061210149      10.068234632917751      1.1730144580233841
   167   1      22.777834836351769      11.321513256565581      28.497719484783367
   168   1       24.03620572901108      12.828466363479341      1.3323834826127259
   169   1      22.727551695914979      14.589144386278983    0.085480532400845119
   170   1      24.239766249813272      15.891103412648395       1.454187181888642
   171   1      22.967624259368375      17.501613181840529    0.097334629724525792
   172   1      24.482492517866348      18.691894171751624      1.6254095451358246
   173   1      22.930389267581084      20.043790303729939    0.011930861145140179
   174   1      24.118495993094545      21.453517081749261       1.579926391495531
   175   1      22.830542399379265       22.69050057531431    0.025045148042909214
   176   1      24.189959814725167      24.443904161664584      1.4426856811008288
   177   1        23.0098646279272      25.813321297298412    0.021429545342448349
   178   1       24.58683731239627      27.248211349781148      1.2607869873099851
   179   1      25.990393105087854    0.048172256816271346       28.66970049080884
   180   1      26.170008194471336      2.9059705337050117      28.619547297466941
   181   1      23.142564958793283      5.5720666005706443      26.177190525341405
   182   1      27.276485268082851      4.3363230553421799      1.8038209879315563
   183   1      25.866337521173119      5.3996220402515993      28.687614220032742
   184   1      27.384858951612014      7.3152223582527895      1.5041896223467699
   185   1      25.847489481045031      8.7002665730164175     0.15733765914216075
   186   1      27.353798080737853      10.127974726578097      1.3495834234651976
   187   1      25.976777205508295      11.490342658898939      0.2561898251834237
   188   1      27.414632552810339      12.710972335847952      1.4735248153008564
   189   1      25.685496629740975      14.151890562232882     0.12966891192977509
   190   1      27.080961356969024      15.517476738141699      1.2528118584305148
   191   1      25.758530688132431      17.210606563163246     0.11343983174809859
   192   1      27.221547758303384      18.642583132924472      1.3643068963674627
   193   1      25.579642043587032      20.105372731252217     0.11920297104335302
   194   1      27.128983839616346      21.589336865642153      1.4143851483039387
   195   1      25.519192279320546      22.729097810150257     0.12403913213998981
   196   1      27.198687117379471      24.452394874489958      1.2186836200673723
   197   1       25.74664067776202      26.031417903852223      28.440620158884258
   198   1      27.289242177377471      26.988588015621225      1.4089052934087369
   199   1      28.560178321702697      28.651055690772441      2.8944127678180509
   200   1      1.5737457494475284      1.2836856439184305      4.2276384855288169
   201   1      28.616966473948683      2.4316192343271394      2.6661709791781849
   202   1      1.6422053083356107      4.1978799782597953      4.1877113760076234
   203   1       0.042583019207678      5.8625856719558911      2.9423366003910871
   204   1      1.6154706979873716      7.2867214382791108      3.9868410227890538
   205   1     0.11555778500506986      8.8973757451789464      2.9551995864883449
   206   1      1.4035480934955333      10.124333210877305      4.2425120739652691
   207   1     0.16020514779401163      11.595209134921532      2.9514868830469561
   208   1      1.6399296568993242      13.015839677766209      4.4780838631938957
   209   1    0.014943483679224897      14.498679686391139      2.7102994246212919
   210   1      1.3726511754290531      15.889049501612368      3.9313104096662737
   211   1      28.568563949667649      17.032635559613595      2.4418122265804638
   212   1      1.1947818213395083      18.529035424880565      4.2042773034535061
   213   1      28.647063455964474      20.147733810215655      2.8243866929464057
   214   1       1.400547915053268      21.524267427385194      4.1724706600912222
   215   1     0.09655985566124782      22.743981945206379      2.6381698749936042
   216   1      1.3855292227948792       24.29874287529946      4.1706448372044278
   217   1      28.647350235606453      25.989769522777781       2.982249464382662
   218   1      1.6448884417920016      27.422646377970853      4.0765515174700768
   219   1      2.9094663056093228     0.03086336722401507      2.6715691393791317
   220   1      4.1295266640395418      1.1566898997429902      4.2107803940861936
   221   1      2.9061186741316685      2.8558350435062709      2.7399865389220737
   222   1      4.1764051582782589      4.2365461188580955      4.2968660921078961
   223   1      2.8943445349095764       5.817440889120598      2.7392574400440015
   224   1      4.5423177524652507      7.5423270067321306      4.6361575921765859
   225   1       3.089411659980315       8.788307977846852      2.5519750696627046
   226   1      4.3640166636894788      9.8924311787611323      4.2725142829972578
   227   1      1.5961873767637025      10.096319372213889      1.4907721484717853
   228   1      4.3187256271160761      12.870691584500804      4.3912306923952276
   229   1      2.9019208692023102      14.375734180797147      2.7551988605869169
   230   1      4.4323121026029781      15.814294081493289      4.0272983283659824
   231   1      2.8529762735846815      17.257722388001991      2.6767527666048174
   232   1      4.4279574072980985      18.684265827983783      4.2157819051038663
   233   1      2.6482977668046264      19.898196543260074      3.0522951738534432
   234   1      3.9525645688958195      21.572674703020727      4.1244818135991288
   235   1      2.7080033551128753        22.8838041619411      2.4713246770049069
   236   1      4.0415271298247371      24.197260133739331      4.2162187736065455
   237   1      2.7805072995768683      25.727926479931202      2.9241337220268862
   238   1      4.2422965659572958      26.967867725829105      4.2824903553617721
   239   1       5.504564840506772      28.577851586147435      2.6597920910336468
   240   1      7.0589309239800304      1.0767597163888931      4.1008753772592925
   241   1      5.6505098019652618      2.8606315388718118      2.8985803088293629
   242   1      7.3614139895563344      4.3568334776608006      4.2334868127634309
   243   1      5.6583208552737441      5.7046387570456458      3.0037444699316138
   244   1      7.3395021241885061      7.0798455691869737      4.3821075575901185
   245   1      6.0489542201173023      8.6348665663956812      2.6556552201637582
   246   1      7.3413819401444789      9.9280171853572874      4.3824533900910678
   247   1       5.701722803543273      11.403163888474209      2.9113390006570201
   248   1      7.2920242915745908      12.799935433551877      4.6047866926060266
   249   1      7.0912589767066709      15.793852061919043      1.4302515209187718
   250   1      7.2072346181305056      15.737658380793794      4.4870022175368929
   251   1      5.8753400696453211      17.111793148094286      2.9346890756496253
   252   1      7.1545349398127867      18.514551434801067      4.3744708217647696
   253   1      5.8564090291531707      20.135158487783478      2.8623392466404876
   254   1      7.2814224931475264      21.687481620767262      4.2579927562238629
   255   1      5.5181379502059684      22.844941255672282      2.7125988366328766
   256   1      6.9760092329473231      24.165219605557979      4.0972365630658807
   257   1      5.4324270831476218      25.819538749624133      2.8183756574222918
   258   1        6.93910656757925      27.068128040648016      4.1302590099117413
   259   1      8.6816952925350677      28.416344350852345      2.8870131021159202
   260   1      9.8779931689202325      1.4924946879864942      4.4501032228423654
   261   1      8.4748185727755398        2.75803521049877      3.1390757186018585
   262   1      9.9421310940676229       4.141287811973358      4.4275489318626127
   263   1      8.7234146032485675      5.8317360140443943      2.9980639471631667
   264   1      10.189668095387416      6.9752420878643724      4.3903324929967047
   265   1      8.6934255816879507      8.6701613261454966      2.8694904248432413
   266   1      10.385404532863266      9.8373689206837529      4.3094629644785316
   267   1      8.9237381351464329      11.492432399505912      2.9767554167990831
   268   1      10.205158689811848      12.960384668505744      4.3837898307487411
   269   1      8.7121732146945519      14.265571791774374      2.9976636603194655
   270   1      10.187853800522042      15.754969083214332      4.2877094685712329
   271   1      8.6434828741567653      17.166538302611794      2.8712612737843966
   272   1      9.8621584215763693       18.76772108861125      4.4341171117102718
   273   1       8.791398409010359      20.236056937952316      2.8852601300251441
   274   1      9.9681057843934102      21.447749074442541      4.2300181693744294
   275   1      8.7149536054970813      23.216181884867499      2.7974324361990273
   276   1       10.35674170488311      24.439945312587728      4.3747422033017704
   277   1      8.4421265399526444      25.607748401386321      2.9639233803618596
   278   1      9.9804666742797092      26.977341820863217      4.2649796186865467
   279   1      12.833331833700516      1.6097787869046321      1.6365446624301052
   280   1      12.703730378811811      1.4087820774253266      4.7192495907973315
   281   1      11.342660967766021       2.881565458825583      3.0794035001935738
   282   1      12.581619240008257      4.2732657940771626      4.4317784225032817
   283   1      11.397598424081069      5.7218595285561165      2.7280627860091724
   284   1      12.866082142829811      7.1701716115583762      4.3380342005390204
   285   1      11.754654004739741       8.666833508290944      2.5299099802892768
   286   1      12.802993263801538      9.9347657349894778      4.2729054512758946
   287   1      11.710670144895902      11.332150815577938       2.701983110337097
   288   1      12.830678979295106      13.041599733809683      4.3028042404915494
   289   1      11.431621353776052      14.337052081050034      2.7400465412104604
   290   1      12.830958454492364      15.888405002548478      4.3730841351559224
   291   1      11.170526279179329      17.495317547189028      3.0511212390375704
   292   1      12.904773834001789      18.832647534124956      4.2331919726374299
   293   1      11.330892255064018      20.169440624366683      2.8434860587604693
   294   1      13.156242797096263      21.434288296197188       4.121087260499567
   295   1      11.567670472343002      22.934166330372452      2.9646073371492951
   296   1      12.852003659075635      24.445586967160796      4.4438576107275134
   297   1      10.316452596030919      27.073242199321935      1.4355230586330787
   298   1      13.148194128265887      27.220394251233902      4.5528097595540933
   299   1       14.10690705834369     0.31671335296214331      3.3197791547888942
   300   1      15.933735273603823       1.424723242297534      4.3732366450591691
   301   1       12.92852263938201      4.2901615055393671      1.6334423006663983
   302   1      15.937844337410889       4.317651354192118      4.4240544275836591
   303   1      14.314111704404763      5.5593530711413397      3.1220282687316128
   304   1      15.956967343908227      7.0408257899268873       4.425152528965711
   305   1      14.270303235616952      8.6121674537554131      2.8032079072507377
   306   1      15.764352531307711      9.7414825541176828      4.4826805976860076
   307   1      14.399574919416592      11.365725706353127      2.8720613589798889
   308   1      15.588597892117646      12.843832061816768      4.4307954492880777
   309   1       14.36158519743271      14.362816919436586      3.0459883476580312
   310   1      15.929915381129097       15.91908842024147      4.3045697223219381
   311   1      14.313375098461327       17.20261040476062      2.9393487698953495
   312   1      15.853202528359592      18.789656916251651      4.3555753326203357
   313   1      14.506577126357055      19.991319934394877      2.7704563150140076
   314   1       15.86639509105296      21.656464458313845      4.4651422136821823
   315   1       14.28311577207219      22.951503754990316      2.9488131818978562
   316   1      15.809362357340831       24.29749113885617      4.4134385567289884
   317   1      14.208630165499994      25.558664032807695      3.0419958109061547
   318   1      15.478985165166776      27.326648375425926      4.6270891562522358
   319   1      17.219194043609463      28.598133380230014      3.2524693098401372
   320   1      18.678644262594634      1.4639523086453312      4.3355385929648236
   321   1      17.184526902513159      2.7753638482099174       2.763416775299254
   322   1      18.885463111380389      4.3082253737978657      4.1235003862032054
   323   1      17.389533474965809      5.7068620185335535      2.7891404065532464
   324   1      18.612001184140595      7.1225861640422981      4.3748137748241342
   325   1      17.219233266560625      8.4851658763471018      3.0085099827969271
   326   1      18.651206311590617      9.9046528200040509      4.4406238535669162
   327   1      17.220660304130298      11.369885091120162      3.1308745683265027
   328   1      18.324111320460879      12.913900881643086      4.5793607456453387
   329   1      17.157804250316328      14.382882146650305      3.2303414649227307
   330   1      18.760409507191444      16.120455873362513      4.6315257285479383
   331   1      17.311509085772027      17.130280192917414      3.1401399178377263
   332   1      18.640761445642436      18.651599460037389      4.5517868780437958
   333   1      17.187916480323238      20.301410998248155      3.0659809783304088
   334   1      18.722783719343848      21.608871850230017      4.5641421068594807
   335   1      15.628454285508386      21.463818273910654       1.540798897187823
   336   1      17.226930321800122      22.952643000705546      2.9659979435050117
   337   1      17.067165765309046       25.96449805181599      3.1291895044291302
   338   1      19.081732126458228      26.891108224659071      4.7012231064254619
   339   1      19.903005085528779      28.632479438197553      3.1970789474584516
   340   1      22.880285778379214      2.6044590143685586      3.0409198543972038
   341   1      20.061285406023593       2.559225013599892       2.913160997694161
   342   1      21.354433013174596      4.3376688874501994      4.2490853777724222
   343   1      19.939332678150894      5.8081711511269267        2.68552043935814
   344   1      21.128214093511154      7.0325353712424477       4.185047870585584
   345   1      20.079866377491275      8.5755957287606712      2.7913873784311258
   346   1      21.364471845125721      9.9212968155805541      4.4095450654617938
   347   1      19.773383455379889      11.516442981953597      2.9082399906857117
   348   1      21.615504163657359      12.888094390622918      4.4826824592313219
   349   1      19.698315462614939      14.184799187273416      3.1159664536462035
   350   1      21.457967804134082      15.863644715672685      4.1866142716887964
   351   1      20.081424149725322      17.542864185788478       2.880015721057859
   352   1      21.476889228501843      18.788164178913249      4.3360746501472445
   353   1      19.840048931049651      20.219636674850182      2.8224723453139844
   354   1      21.575982500650888      21.726124680414465      4.4047618176882315
   355   1      20.004421443030147      23.051005605868934      2.8035214744996666
   356   1      21.178789774525434      24.471282322482573      4.3871167849009876
   357   1       20.01529401181072      25.970126800681086      2.7414213049062925
   358   1      21.587206271444654      27.261836288424067      4.2753329654431607
   359   1      23.041167235405151    0.056107834861313946      2.9845946981775922