dump/Fe_1350_20/steps_21 (written by ASE) 

1980 	 atoms 
1  atom types
0.0      28.699999999999999  xlo xhi
0.0      28.699999999999999  ylo yhi
0.0      28.699999999999999  zlo zhi


Atoms 

     1   1     0.26424764550713636      28.665626861465753     0.06001741738857614
     2   1      1.4911819899227798      1.4571595109624473       1.571321069176258
     3   1     0.22801245096402464      2.8060890261963198    0.085098378906991332
     4   1      1.4818416364890357      4.1061276876060706      1.4295534415249107
     5   1     0.10363292476221225      5.9585925878904735     0.09056751157470444
     6   1       1.620205020171978      7.2120843675807009      1.5945581585766138
     7   1    0.082549940663307619       8.508061073669797     0.38945667473609658
     8   1      2.9163573670690908      8.7861498926192425      28.686413962146307
     9   1    0.043854502543025121      11.602025511627044    0.089359223072062691
    10   1      1.4010590195690844      12.899974395602424      1.4895183013087494
    11   1      28.621384644294952      14.362585149040555     0.16801792648740282
    12   1      1.2944192799284906       15.79740276318589      1.4395374457827188
    13   1    0.023388567514294269      17.170936915568504      28.603221904877305
    14   1       1.453271914197241      18.757367305169652      1.3504755535174129
    15   1      28.624017783031793      20.024888119346961      28.564223484803506
    16   1      1.6797116635610914      21.564794976712403      1.4203618371041113
    17   1      28.571775676491299      22.716260111105626      28.660157835250558
    18   1       3.072705765250153      25.976363552733702      28.626846088059153
    19   1      1.3829836509154387      27.378414702701701      27.173345675376488
    20   1      1.4578023453297448      27.176876725968349      1.4534320574595325
    21   1      2.7439256131967582      28.504738049194756    0.032033222640348004
    22   1      4.3078729980760722      1.3878195081985734      1.5982012472106708
    23   1      2.9623730152303613      2.9361493535138328      28.670296300715282
    24   1      4.3101823250790972      4.0123483013125867      1.4016283489302173
    25   1      2.8975638438449098      5.8739446060095366    0.080098777459977621
    26   1      4.3857170310325291      7.3082166713244092      1.3908484072650038
    27   1      4.4668234459123282      10.105316402660415      1.4202873375764624
    28   1      3.0442409640925021      11.413722571881683      28.680145449249597
    29   1      2.8722523043839434      11.435998175245077      2.8657637707130115
    30   1      2.8875783613373982       14.36816523194191      28.676960346499104
    31   1       4.411619128768244      15.566287038397725      1.3915875176028063
    32   1      2.8495751095446287      17.494356234668398     0.12244911138560607
    33   1      4.1888283636301979        18.7369959372135      1.5417043658840393
    34   1      2.9113468082469804      20.139949824378558     0.06471909939792779
    35   1      4.3158298419795402      21.481452137093161      1.4481865672027863
    36   1      2.8312715038269642      22.919668325137486      28.600577586434078
    37   1      4.1808755775623316        24.3402529171513       1.120098865161093
    38   1      1.3834874085830293      24.322489457556049      27.343562143715246
    39   1      4.0782865141931284      27.222126783522217      1.6563913907986023
    40   1      5.6550747111662298      28.371515330521945     0.18895958983201819
    41   1      7.1768597891635331       1.335131019010259      1.3779784883638633
    42   1      5.7334614132864088      2.6218012687153074     0.20985654820169655
    43   1      6.9847207841424153      4.2050293612893643      1.3671028796047962
    44   1      5.7041769445978963      5.8466630385521094    0.051627461777923017
    45   1      7.2108560167666536      7.3000063018555919      1.4206929926142147
    46   1      5.8538916028305179      8.5222255663521658      28.692574080119943
    47   1      8.6413926766385831      8.6694469315941287      28.555253664801558
    48   1      6.0642969468209218      14.075614908766271     0.19881794102385597
    49   1      5.8407128507208208       14.46961793784708       3.051027833030191
    50   1       3.991214522924035      12.963303090452838      1.5443339334288222
    51   1      7.0959183176746832      12.890289482360291      27.199654906588908
    52   1      5.9988092145172454      17.359442620708812      28.688686307040516
    53   1      7.3290497469137179       18.72656299968925      1.5274549357908427
    54   1      5.9646135072526985      20.167908857835982     0.11007380674068382
    55   1      7.2874477662465136      21.407446147756669      1.5845970894809163
    56   1       5.764709199789209       22.79418357636802     0.13256200916483751
    57   1      7.2248495092311957      24.364737590847739      1.3915372311764145
    58   1      5.5862515332512324      25.897634976543301     0.17046002501427876
    59   1      8.8228598645087661      25.639555224695975     0.21644284504274064
    60   1      8.5704566094230152      28.415253813112813     0.13609800912637399
    61   1       10.00950885773887      1.3452117270650426       1.538148455853924
    62   1      8.6127086467021812      2.6908657484252316      0.3060326741991149
    63   1       10.08015821949577      4.6445270955991402      1.3887723289305642
    64   1      8.7186274112668336      5.8842642732546748      28.653660141359882
    65   1      9.9632505349641836      7.0755237988388586      1.3368712890349681
    66   1      7.3995923740948077      10.134207089172671      27.191325194549979
    67   1      10.052894199256597      10.076573414646472      1.3234940220611169
    68   1      8.6509388687557802      11.497943534668867      28.656416064224079
    69   1      10.071029586799838      12.740709400639261      1.3281443478201471
    70   1      8.5997074931498467      14.006669284594636     0.12468047306265362
    71   1      10.049838210211901      15.582446379948356      1.4756247213070646
    72   1      8.5395038699248005        17.2681580422155     0.15462978419817533
    73   1      9.7969869966280942      18.769808319564238      1.6158167736428808
    74   1      8.7016175702606287      20.013596502783948      28.459189905998841
    75   1      10.068847812922334      21.422319105494783      1.2856533709046394
    76   1      8.8439713152055894      22.977488329392386      28.455922109479346
    77   1      10.217314215636398      24.081565970197573      1.4511254407571854
    78   1      10.250017098128973      27.301401865078919      1.4625245829713904
    79   1      11.456553040371656      28.683406031364942      2.8261229200400382
    80   1      11.496433701691963    0.087461424668049306     0.11203979491551758
    81   1      14.412699594638671      2.7617289861770917      2.8976610093330764
    82   1      11.423728280059805      2.7499483980751283    0.034624589107613589
    83   1      11.789558555092732      5.7353915633058294      28.673957384382053
    84   1      13.005518016371797      7.2297227214304227      1.5878156689297267
    85   1      11.647897140130382      8.6807673141474488    0.029806872238316323
    86   1      13.052715357070037      9.9356246845055782      1.4774542249625378
    87   1      11.754869051333861      11.316752862422959    0.083923904258847479
    88   1      13.016963214564241      12.786665127008993      1.6058789528772766
    89   1      11.641078857466113      14.273473914916689    0.080425455905526702
    90   1      12.928019641280784      15.870136189737799      1.7542453654605084
    91   1      11.543169178386753      17.031004276294759      0.1955017050858372
    92   1      12.927809668725152      18.594761840461388      1.5180950012680896
    93   1      11.475173693926914      20.252514837140154    0.049220603577691549
    94   1      13.032747434865607      21.508516807540584      1.4649925772709478
    95   1      11.674160612877561      22.814017834933718     0.19228163686800592
    96   1       13.09226983632947      24.343280733845038      1.4841096379977337
    97   1      10.079864048592153      26.925649978664065       27.22396286083729
    98   1      13.042038684257404      27.505001128977003      1.2771822054471047
    99   1      14.443904737562372    0.049390455876175576     0.10740119217658738
   100   1      15.907799216544406      1.4481576730329051       1.376874956843279
   101   1      14.219246416289598      2.6901454569932874    0.033833087718585335
   102   1        15.7254542722366       4.276613683963018      1.4195439042930378
   103   1      14.354843900346971      5.4794946845643766      28.634783292694411
   104   1      15.896438175728806      7.0554382889270819      1.2751354948079652
   105   1       14.49661594263876      8.6509358573138577      28.685485015855239
   106   1      16.064266076559779      10.068180715066168      1.6585276626091729
   107   1      14.443880382440678      11.301754000078891     0.18569110534693892
   108   1      15.714221351388357       12.91010560171938      1.5585134086187178
   109   1      14.208965421037144      14.747473038756096     0.21463935174991761
   110   1       15.95178102259478      15.603266123801072      1.6636288266373866
   111   1      14.351004092087218      17.207698444374575     0.19428696731177961
   112   1      16.208194511847712      18.506078869026094      1.3531770581630893
   113   1      15.896441744410129      21.613906829093995      27.152876995719041
   114   1      14.464797762598831      20.052304153355951      28.624159029286282
   115   1      12.818708429712949      24.446025663500656        27.2105548164228
   116   1      15.451917249604582      24.331186943224335      1.5108208355016257
   117   1      14.046216606992868      25.873320285723096      28.624867508114356
   118   1      15.705627451731015      27.267510528621422      1.2056284714326806
   119   1      17.304079876939714     0.10569284009385457     0.05314473042333244
   120   1      18.608744128389535      1.4550429341195577      1.4620492571951784
   121   1      17.282855544023064      2.7677452297205396      28.655605807757954
   122   1      18.911510801048227      4.3303113124664687      1.4139395755350495
   123   1      17.289056285111968      5.6743151921512984      28.519893352019842
   124   1      18.906038241269364      6.9461430636122232      1.3198039318075305
   125   1      17.294820297150761      8.5766005534797305     0.13488530006455898
   126   1      18.670487071633911        9.90052740169976      1.4920291869033795
   127   1      17.130560210952041      11.310846921089267     0.15986326254542277
   128   1      18.543337883859078       12.89627458850147      1.3132341063996602
   129   1       17.17486878326978      14.502054754837353    0.080391174483509104
   130   1      18.809387532154211      15.876722919632339      1.4600651573127272
   131   1      17.499358140711493      17.481543093362838      28.517844210564377
   132   1      18.858897405046449      18.684360608379023       1.487631132987143
   133   1      17.606261869106991      20.013890742493754    0.010162692692324513
   134   1      18.701686458705563      21.563398954013294      1.8027317985948696
   135   1       17.08514652460731      23.105810268505625      28.654896277891595
   136   1      18.648960224633104       24.65690093806694      1.4318637186914773
   137   1      17.154025560729202      26.178039730764038      28.534257011950988
   138   1      18.572949653087473      27.211046453354697       1.449760809209248
   139   1      20.040249479958256    0.056176508197224459      28.541962033242186
   140   1      21.601849911038087      1.2754543021561955      1.3898832783503718
   141   1      20.091842851541045      2.9014729113274709      28.631424432902623
   142   1      21.922459847454167      4.3170327661773982      1.4598553437310902
   143   1      20.310286115956764      5.4702481621388994       28.63595374912892
   144   1      21.719534791905605      7.0623435610467711      1.3813809155201049
   145   1      20.222057331398549      8.5281317169169135     0.15589303030951682
   146   1       21.68326007918882      9.9545892300596428      1.5616176819270775
   147   1      20.200451321016054      11.408719633204202    0.041210476638650656
   148   1      21.663388257856063      12.926306716686467      1.5827587265691256
   149   1      20.222161777189882        14.2309073719842     0.21411018202481963
   150   1      21.613433521455249      15.862235784048512       1.377397811773766
   151   1      20.084726277599291      17.265509164975903    0.042549409422508795
   152   1        21.6396113704558      18.860025404898522        1.42162484100711
   153   1      20.236428935124103      20.155423714584497       28.62639441913344
   154   1      21.605947870672853      21.345853309670723      1.3380188559361605
   155   1        19.7858720336157      22.721025233643967      0.2229529669673069
   156   1      21.321620328370987      24.255390856566667      1.1729895696080903
   157   1      20.102580196755209      26.003338256690125     0.19323613231342737
   158   1      21.823695479683604      27.343871797165427      1.1881634105006247
   159   1      23.417633265444799     0.13575568956811304      28.560788356318756
   160   1      24.670256897969779     0.98453112832606715      1.8545437773939504
   161   1      23.188737075761718      2.7534298968007747    0.016127492695432018
   162   1      24.647785754007675      3.9743504563879739      27.325269396912432
   163   1      23.398962033275058      5.7963960257687894      28.430104748041259
   164   1      24.583797781263623      7.1402646632141256      1.2992662793369509
   165   1      23.192732461620803      8.6584786921893109      28.604525068752409
   166   1      24.453540487713802      10.167991783489786      1.4343429358905371
   167   1      22.934494400152929       11.49218050463214    0.016179554352709128
   168   1      24.558663684139809      13.050496841920081      1.7152777538077535
   169   1      22.817290510680589      14.325675154697954     0.22696309309950483
   170   1      24.275384555653432      15.964443529937911      1.4689425310341455
   171   1      22.961611175339804      17.452631887141834      28.672389553413367
   172   1      24.294662802097978      18.557622906861678      1.4727036181374964
   173   1      23.207156613439999      20.182095722936712      28.532911986832691
   174   1      24.406211491588831      21.473264958075415       1.611366712975973
   175   1      23.388331422551872      22.852552913118146      28.593390195627421
   176   1      24.644347796454252      24.433373727705078      1.6189598277195603
   177   1      23.205301941100188      25.850729443979915      28.603507116775532
   178   1      24.605373692705669      27.236857745227891      1.2936567327157262
   179   1      26.003459955123255      28.694185610766631    0.051813715998628031
   180   1      25.971024492986373       2.666380851461077     0.22757750889421702
   181   1      23.155447330716576      5.6339932829687056      25.799577294352698
   182   1      27.505102126543534      4.2088771648193148      1.4137796431483143
   183   1      26.075687666920565      5.8837458452849756       28.65058736094857
   184   1      27.379292300690672      7.2235285489437988      1.4931576352714053
   185   1      25.771072606689021      8.5748772788240473      28.595224433256384
   186   1      27.275797399457609      9.9699519539293568      1.4548063697681299
   187   1      25.659296841414715      11.474877999874028       28.57430392821648
   188   1      27.140710483526021      12.728767117011639      1.4451916326609988
   189   1      25.736233258046255      14.185406657434894     0.41544587849448433
   190   1      27.328509143648482      15.914664535358535      1.3844062141711106
   191   1      25.920277220160724      17.265357609207051      28.624140714641531
   192   1      27.235445985130493      18.553983434307824      1.5365770504189651
   193   1      26.032210799186423       20.11086303670011  0.00086240383258200343
   194   1      27.291292023481283      21.603529111991431      1.5615742809154758
   195   1      26.001096106906143      22.986737063446647     0.10385762965578338
   196   1      27.338184200760324      24.315797089863711      1.5078834613269112
   197   1       25.96964861699783      25.643176860678853      28.690978694342959
   198   1      27.503278312266819      27.384773926088926      1.4518231937393136
   199   1      27.479771862537234        1.46951252824074      1.5501205844773143
   200   1     0.28332818538724519    0.037194872394786707      2.7905386726021559
   201   1     0.31817602114301813      2.9299223465058075      2.9748614835942271
   202   1      1.5991979459937282      4.3755085423983155      4.5730989552022399
   203   1    0.010892116690059152      5.6411594589326288      2.7792346869658897
   204   1      1.5377685081483945      6.9845532154013741      4.2224411375773023
   205   1     0.20047129804406805      8.4130439876361418      3.1134233004437966
   206   1      1.5801247431309906      10.180299934179541      4.3701885025950187
   207   1     0.12134898356223499      11.356645169323754      2.7236247716189594
   208   1        1.46688793110425      12.995480992752798      4.2580524297382425
   209   1      28.484959661980156      14.374070673210468      3.0108914867273167
   210   1      1.3017805590915963      15.593656779636422      4.3053534684695842
   211   1     0.08799063533491687      17.237834617870046      2.7649923549641127
   212   1      1.4691108251342255       18.61160360654042      4.3316908490823698
   213   1     0.11765335442710392      20.122779557129618      2.8986895487033699
   214   1      1.4328033637471556      21.535308416422499      4.1290371012888256
   215   1    0.051104051131780431      23.012422383346578      2.9406764414253281
   216   1      1.6649574918438019       24.41225670536808      4.3948288117110712
   217   1      1.4480056562090924      24.520136649727263      1.2717142373912782
   218   1      1.6212658866245773      27.040241448500403      4.2835520543829029
   219   1      2.8676820897099793    0.020616493127499951       2.768510238274871
   220   1      4.3319290931458552      1.2464361675418001       4.474434998997153
   221   1      2.8768687864337408      2.8597657871034814      2.9569961845812052
   222   1      4.3264503181305489      4.2753169367475277      4.3748043086064152
   223   1      3.0605072091412353      5.6495348976716855      2.8681601479217753
   224   1      4.3440296845244104      7.0548838966224903      4.5736015848895502
   225   1      3.1476929250784975      8.4998014751443662      3.1236920292286583
   226   1      4.5965109529680053      10.138141839738232      4.2518697971692117
   227   1      1.4362883087366634      9.9418156946223775      1.6130423952342769
   228   1      4.5489278673690823      12.901994755016187      4.3486418272101179
   229   1      2.8773513058463087      14.343357867596012      2.9931225486092701
   230   1      4.3024239063711862      15.850451476190495      4.3244712043831424
   231   1      2.7777657346412652      17.260104958754514      2.6829052869276326
   232   1      4.2957833842890087      18.710321457858562      4.2333723151089471
   233   1      2.7779308319292699      19.953573320900148      3.1384640976897082
   234   1      4.3429706937483541      21.567572930973977       4.279784961440642
   235   1      3.0223606746129961      23.176725560442922      2.7519669500834065
   236   1      4.1688178024765774      24.151910730593844      4.6002074704951053
   237   1      2.9102285424470891      25.676615374411703      2.9558375435223274
   238   1      4.3276663992468221      27.124120977002054      4.3373491678392408
   239   1      5.7718453442615179    0.020144661611118587      2.7703641678746287
   240   1      7.4197192686883051      1.3467331273802297      4.3363089896685745
   241   1       5.814026920565456      2.8297012029485682       3.279017770188402
   242   1      6.9616771131522199      4.4125569855874645      4.2209125566574306
   243   1        5.62934480866637        5.73369553761224      2.7392943959181681
   244   1      6.9345042085796091      6.9196404171219479      4.4729158944684331
   245   1      5.8531498489883367      8.4925653195189046      2.9292617763525373
   246   1      7.3422196075533321       10.16016371086322      4.0569234074897365
   247   1      5.5902173457305935      11.716689109823776      2.6167567054382515
   248   1      7.1019179162522743      12.917685419468789      4.3545944588779779
   249   1       7.021748638738317      15.806052984963305      1.4093629859589565
   250   1      7.1620374458427793       15.84912578026721      4.3253863938094828
   251   1      5.7670079275499138      17.184717526194138      2.9678657798924846
   252   1      7.1578187935987447      18.696474502559589      4.3951412529961189
   253   1      5.7700336368095391      20.077301865707817      2.9537430757953818
   254   1      7.0699008242802535      21.584079997919972      4.3445603993183513
   255   1      5.7331886726934833      22.956485249512998      2.6232645328879931
   256   1      7.1332492676671988      24.219499411408123      4.3205894099813564
   257   1      5.4930936449213474      25.739825055901594      3.0473080606342982
   258   1      8.5367865442157917      28.611513070380326      2.8707394462482387
   259   1      7.0609130606250785      26.928068992226603      1.7479264223387416
   260   1      10.113990555015398      1.3001172534599392      4.3110508856817642
   261   1       8.475100223961876      2.7398073481906624       2.782762396823022
   262   1      10.179627021623272      4.3498410129136023      4.0861342373739653
   263   1      8.2889662136355522      5.7905647231608475      2.8247962037896843
   264   1      10.110272458282408      6.8117177369472062      4.3381957584620681
   265   1      8.6447294781833239      8.5098740322406261      3.0068771586247749
   266   1      10.076339337455227      10.012007280666488      4.0956649914852665
   267   1      8.3022439977577811      11.680000816026162      2.5925622925238589
   268   1      10.074831381029316       12.87221450603697      4.0542442607135509
   269   1      8.4359898200819856      14.207315482768736      2.5031569501227975
   270   1      9.7978747139420896      15.710929424266201      4.2377611198497513
   271   1      8.3905936746779037      17.264022379088633      2.9154000782061202
   272   1      9.7453349856139901      18.590955994621758      3.9929430814528848
   273   1      8.6104150414555569      20.164261071822509      3.0572512328524559
   274   1      10.029731610385586      21.856718075718312      4.5381539658414534
   275   1      8.6890794109792786      22.987044099690717      3.0401909258672974
   276   1      10.166072477038604      24.398899690715499      4.3157041125866007
   277   1      8.5673364112514605      25.687812214736287      2.9739337029983082
   278   1      10.013223468378831      27.118647524122963      4.1316295598976582
   279   1      13.033931572824905      1.3163783383939742      1.5828810547772159
   280   1      12.964962248240939      1.4964318438939797      4.2940499778149945
   281   1      11.270842368282317      2.8537649048246063      2.7443801272360133
   282   1      13.118615427574325      4.3295991882092251      4.2511738511781934
   283   1      11.725163867712661      5.6820535669011241      2.8750889036529599
   284   1      13.100675492628522      6.9852184226960148      4.2753648074268904
   285   1      11.395680364914888      8.4171153391643188      2.9341224172885982
   286   1      12.983958739216401      10.001224118214045      4.4377784721581417
   287   1      11.633174900926788       11.41206247007714      2.7935118446332914
   288   1      12.971039304689109      12.778328695607939      4.4230401674967954
   289   1      11.571170580387761      14.318920949985674      2.9604448627568005
   290   1      13.057301135524826      15.885074068525531      4.4293710911887247
   291   1      11.416631182294585      17.161001209428242      2.8157473034609439
   292   1      12.828078479465917      18.752585349202167      4.4046188900543681
   293   1      11.434623704523661      19.999706954874252      3.0095051003265541
   294   1      12.869495239225474      21.416361739029558      4.5789814502640773
   295   1      11.652290393121847      22.895945029359783        2.96116034768457
   296   1      12.946665968163231      24.288152146883046      4.4790953854550191
   297   1      11.634923644266062      25.800433822760962      2.7296856984298516
   298   1      12.734376967524673      27.218469170561036      4.2898679678236125
   299   1       14.64700791816546      28.379613091873271      2.9041636709875522
   300   1      15.648278672657549       1.289749762738541       4.372504481415036
   301   1      12.953943118789503      4.1205803535427696       1.510866916949374
   302   1      15.876891286692183      4.1320537364000538      4.2709327768581185
   303   1      14.560839996299661      5.7695072715106948      2.8480291809274711
   304   1      16.010713850565878      6.9235156648540954      4.1877236983541453
   305   1      14.682318596402935      8.5187590086408704      2.9867379086651149
   306   1      15.986672476590396      10.014766561657847      4.2993910722879152
   307   1      14.283356381325406      11.156644238335002      2.7859546954024723
   308   1      15.935600166980336      12.869199783165383      4.4025115460989692
   309   1      14.463737056598294      14.206854782776817      3.0604694867378481
   310   1      15.767165245525128      15.860704517540521      4.3385490315583839
   311   1      14.518880909779117      17.160550803475168      2.7687310284136846
   312   1      15.867188867711903       18.63851571388771      4.2963457431053049
   313   1      14.334833399878413       20.08170092171855      2.8924366969334434
   314   1      15.778257964724515      21.413927072748475      4.4944110883958608
   315   1       14.59589088315197      22.798119597537923      2.9686168241063622
   316   1      15.856924487968596      24.389638429331843       4.377673113858477
   317   1      14.417808062801639      25.752409280094742      2.9972707975123227
   318   1      15.740492785293023      27.133314470884798      4.3089023051403998
   319   1      17.250413635766652      28.464551502318248      2.7701125390016155
   320   1      18.934036741364324      1.4751023120212612      4.2680771172514529
   321   1      17.192082249575289      2.8458408988978592      2.7114442627738762
   322   1      18.956809339544787      3.9836236580721955      4.0110984890704158
   323   1      17.433150288204978      5.5989246083537942      2.8896592364299907
   324   1      18.657702439264536      6.8912203032808694        4.36471365883778
   325   1         17.324210091908       8.222355945603784      2.5793855794205913
   326   1       18.67914165106021       9.909766490561255      4.0809348591375239
   327   1      17.037999875860592      11.650477226164968      2.7697903751853801
   328   1      18.742574237992923      12.856047329227739      4.2721504752818991
   329   1      17.180547486736522      14.282596304687964      3.0082757950061558
   330   1       18.71679451636339      15.835039817980959      4.7558198499704281
   331   1       17.47479273079799       17.11677038851343      3.1450847173121765
   332   1      18.694311602824119      18.654632770556471      4.3388179699374545
   333   1      17.239586237981936      20.212499498767968      3.1324366975699496
   334   1      18.547487773330239      21.507476717622485      4.6081096101962009
   335   1      15.910310571755625      21.363982286688437      1.2995551446403046
   336   1      17.174179937386601      23.106421129636054      2.8138028288963932
   337   1      17.119188259435862      25.819723033673974      2.6200720347190556
   338   1        18.7793649786265      26.980603022568651      4.3043897448579669
   339   1      20.246300850674775      28.551677390413364      2.6202092574757891
   340   1      23.232011970266075      2.8004859723495876      2.9656474334396914
   341   1      20.527026923542198      2.7568530590537752      2.8805084841477555
   342   1      21.573316858909042      4.4892780314383876      4.4561929805115579
   343   1      20.242181447485546      5.6864719895557814       2.827238782041321
   344   1      21.787132125622907      7.0971652992706069      4.4802780308343158
   345   1      20.024571747051844      8.2097060312802768      2.8541311045141349
   346   1      21.516237050226117      9.8038949739454004      3.9030846891147437
   347   1       20.14221624229112      11.394195124344421      2.6575412937204987
   348   1      21.752952098207192      12.803641312991138      4.1136150196829684
   349   1      20.197475979253905      14.561686549201097      2.9931136500230209
   350   1      21.563962207512315      15.836558386383921      4.4642081217078093
   351   1      20.212816419336292      17.317149473192817      2.9142943543791562
   352   1      23.203258788636134      20.227076269830544      5.6450835101723742
   353   1      19.845939788516539      20.012342602698087      2.9963715106021791
   354   1      21.407975694594363      21.262650930881847      4.3860003250839839
   355   1      20.172240401243187      22.750669346327498      3.0447890727851386
   356   1      21.657202118083639      24.177378983324896      4.2503592728970157
   357   1      20.427111130023988      25.834694294016405      2.6936365361481194
   358   1      21.688249361101359      27.112736361712205      4.4650177099940365
   359   1      22.927205183917817       28.32106474698033      2.8616113783385808