dump/Fe_1350_20/steps_91 (written by ASE) 

1980 	 atoms 
1  atom types
0.0      28.699999999999999  xlo xhi
0.0      28.699999999999999  ylo yhi
0.0      28.699999999999999  zlo zhi


Atoms 

     1   1      2.8343955536308982      25.937422287138034       25.85542956822319
     2   1      2.8705191251550071      2.7958916475487281      28.634507938636194
     3   1      24.369108729665911      4.3727590448418123      4.2375083234609399
     4   1      1.3428900516423934      4.4076560615048672      1.2544373515627505
     5   1      1.5569876900857269      4.2851321528861153      27.144191695607105
     6   1      1.4944732794359663      7.3011564701023612      1.2503717967859656
     7   1       0.143821950862141      8.7300625537036147      28.364732124226407
     8   1      2.8401544128506222      8.7374086017230965      28.670506905264602
     9   1      27.346030025292791      9.8602491553466027       1.509785636477057
    10   1      1.3948411817258037      13.024860405711351      1.5146732224409556
    11   1   0.0079787676851433322      14.405226095864395     0.10780022584262955
    12   1      1.4332017853455115      15.616492738772424       1.737937486500106
    13   1    0.027954868428652267      20.125195479693083     0.02940968232221618
    14   1      1.3229537040831374      18.591038852622773      1.5574180582376587
    15   1      1.6203092167986626      18.563217569939727      27.408922883486955
    16   1      28.519828943714632      23.084083722778157      3.1348407627833201
    17   1      28.697719425673387      23.012593026293001      28.578586261254831
    18   1      3.0832439811995593        25.9482117337799      28.634759801044986
    19   1     0.40336835696366569     0.12861233395432792      25.765220405744198
    20   1      1.6355574444201566      1.3373041784338306       1.136851490504875
    21   1      1.4986532347659387      27.229386068957737      27.187894612999635
    22   1      1.5831978583084616      1.4724975495334436      27.145445174344804
    23   1      4.1902453273682196      4.3779729464983204      27.267020380726112
    24   1        4.45028948153639      4.1194971988882463      1.2474482371005258
    25   1      2.7621138680965371      5.6000739519541414   0.0028532076000033165
    26   1      4.1777824592510919      7.0473596778495562       1.182169114687895
    27   1      4.3696690368259148      9.9744511630712012      1.1883948994138327
    28   1      3.0613924965443622      11.568172685868401    0.053034867381563808
    29   1      2.8474827434994512       11.60246274263144      2.8626691456350732
    30   1      3.1259164281948899      14.284299879148939  0.00025806556955103592
    31   1      4.4640830867228809        15.6861613719821       1.358061187621159
    32   1      2.8807631830529972      16.961344506677644    0.097799367776156124
    33   1       4.397871108556723      18.506759818003104      1.3529632701041816
    34   1      4.1843564551594676      21.297904113874697      27.411404251897284
    35   1      4.2036295794357645      21.651009297934777      1.6205652733405156
    36   1      1.4820453099180915      21.690647111043745       1.345677816527824
    37   1      2.9862190504675494      22.961329080600276      2.9948783480410541
    38   1       2.828024294962646      22.951555499848094      28.647540753751773
    39   1       5.738592151356694     0.11444153606696235    0.083989677506087962
    40   1      6.9499731058670928      1.7331876658333598      1.2842000391435358
    41   1      4.7594963224138027      4.1167315018800643      3.9336352960159191
    42   1      4.3673547865818154      1.5975626210815663      1.2466099968527591
    43   1      6.9176275623525347      4.1577609837686467      1.3602596766377939
    44   1      5.8544530501084342      5.9294752923661358      28.536931421042244
    45   1      7.4487624755709598      7.4201742901046597      1.3476150614704683
    46   1      5.8225440427725701      8.5354445935622696      28.641619897127757
    47   1      8.7083890599882778      8.8247865600616109      28.410365647598415
    48   1      6.0708912477482313      14.428323931195324      28.612406638275576
    49   1      5.9011560151142319       14.53181358551959      2.8678618858659877
    50   1      4.6951097138938813      13.127508781708311      1.3809434704328285
    51   1      8.7635318191383824      11.685436789734746      25.833057129568232
    52   1      6.0196204620427611      17.164517080986851    0.057609501524916694
    53   1      7.1829516728974721      18.748594112299216      1.4358742082422267
    54   1      5.7812599278125285      20.091367775843079     0.13684532431129795
    55   1       7.139501297815305      21.462130245425318      1.6065575045650013
    56   1      5.7517634619020006      22.957740671181963      28.557765425335607
    57   1      7.1671970417450108      24.329536464007788       1.347685229719275
    58   1      5.8040309047309488        25.5237119407908      28.404553288654867
    59   1       9.870658671442051      24.239982528813965      27.355903999798702
    60   1      8.7243097033572248    0.081442703563597577       28.60159093531864
    61   1      10.198734872984183      1.4271782666574047      1.2265108909589797
    62   1      8.5861754964640919      2.7259730047018609      28.555860972302042
    63   1      10.063356644940255      4.0453628496045564      1.5269754078387436
    64   1      8.7609296908298351       5.427300479132243    0.085179625157070518
    65   1      10.037311267754685      6.9163074651377121      1.2862343918813055
    66   1      7.0722024141733417      10.093404407049972      27.233872854245366
    67   1      9.9273014640061472      10.236352307422296      1.4946387418261327
    68   1      7.2794994855056796       13.09421261753034      1.2832973762407158
    69   1      10.206442657971976      12.987108717466823       1.636136521821139
    70   1      8.9861589242702689      14.351049921623009      28.349313032053182
    71   1      10.123500541039641      15.748393997422259      1.4059915231747606
    72   1      8.6168491500381013      17.246065119334126   0.0053614194505144062
    73   1      10.277898453123637      18.805862389050326      1.2997112199555427
    74   1      8.9378273246606881       20.12654337646628   0.0071974920051502429
    75   1      10.102835312111178      21.613570786706866       1.408476926561421
    76   1      8.5816302932819788      22.987310232061052    0.090450410349410509
    77   1      8.4620442315150033      25.888052344288358       2.945895974529364
    78   1      11.797449206503686     0.10043510866289507      2.6282612233974869
    79   1      12.906666402796413      1.4308407042770948      4.2246648750376927
    80   1      11.539135487754676      28.501189083902261     0.11997530757054174
    81   1      15.854164031252227      1.2980477035396927      1.3206544665308575
    82   1      11.460434605622888      2.8540055362095034      28.601485472688186
    83   1      11.463571090741688      5.4465393788345056      28.656243115484148
    84   1      13.003440133986057      7.1358244631964975       1.315887496620848
    85   1      11.443980825324388      8.4241789832536327     0.12695103077918479
    86   1      12.808057551088588      9.7723265767772052      1.2697206184368268
    87   1      11.646833377807933      11.454811786354586      28.640311140533075
    88   1      12.950091362264651      13.081120315751875      1.4470065493009314
    89   1      11.650334189253016      14.510210953152692      28.579767554542684
    90   1      13.124717515629568      15.852619935963597      1.4454581314092709
    91   1      11.652708458464993      17.263245662934239    0.088305820341622571
    92   1      12.965082716541653      18.810490984342778      1.5141880175773061
    93   1      11.612706715317842      20.259774961410447    0.027875615512141381
    94   1      12.973105740613994      21.643771509235897      1.5045717905363287
    95   1      11.555710396499093      22.828355981586785      28.679366793501792
    96   1      12.968702935677689      24.353665616527024      1.1792876242776615
    97   1      10.086853119345742      27.098461982779675      1.4021887557658375
    98   1      14.448875217225721      28.667214599550167      2.7625425961534811
    99   1      15.781538219618783      1.4458441779797582      27.021818626744476
   100   1      12.996564742948859      27.025985363330637      27.324432535379025
   101   1      14.431884922572605      2.8176901807124981      28.664848315232621
   102   1      15.923797095899641      4.1491454595555934      1.2013231980035703
   103   1      14.486267452999058      5.7287220226133853       28.58879255900851
   104   1      14.652747547701036      8.3483223330679497     0.20855130946839595
   105   1      15.661153332685904       10.08158670541475      27.189877221018293
   106   1       15.68927145339315      10.304498620784505      1.2346604392257399
   107   1      14.089950039040758      11.564590448565221      28.606967991756051
   108   1        15.8150342357222      12.718798069419904      1.3361127821397636
   109   1      14.309268640858182      14.539731013202466     0.10601644034034044
   110   1       15.76951826292836      15.979703419675875      1.3515180979610919
   111   1      15.496237700666693      15.803946426503826      27.180349098998054
   112   1      14.393012895627697      17.519228216713749        28.6308691632833
   113   1      15.817269362544291      21.355265671308551      27.124833670124104
   114   1      13.059977265194854      21.658204555292031      27.060238959489922
   115   1      11.544290118182008      23.168123579980772      25.710548419189255
   116   1      14.381117337605293      25.541343653662601      28.695327212385664
   117   1      15.867128886948262       27.23952591978319      27.276017700964193
   118   1      15.891560920657234      27.219666796320507      1.3692866559354122
   119   1      18.700585600769223      1.5855207229282913       27.00584181461257
   120   1      18.779585950386473      1.3116773959434345        1.14072057153495
   121   1      18.592898883795609      4.4406528164287851      27.273833198759007
   122   1      17.305896112401829      5.9951576806712117      2.4085678004932216
   123   1      17.064531540184621      5.7401324761753934      28.582708631904882
   124   1      18.829656663683366      6.9972155330152486      1.1582237251343253
   125   1      17.072850832091707      8.6253355415492727      28.420436240511084
   126   1      18.658205973445806      10.001745800855268      1.3181904979184087
   127   1      18.595746063340208      13.001826911377069      1.4950727999022209
   128   1      17.356378818543696      11.570275240687577      2.8703516989401447
   129   1      17.238541471520723      14.367958936719225      28.559021513124012
   130   1      17.384933469807851      17.609541784593731      5.7480471360929783
   131   1      16.935877289719844      17.495681582952084    0.078650829890489216
   132   1      17.372907741548442      20.234732336030412      5.6102475377670133
   133   1      21.726140017765864      18.573909971889258      1.4175878167826235
   134   1      17.467206154488675      22.905139692148268      2.8618689978262304
   135   1      15.986899154685988       21.51579390610544      1.4353678907548655
   136   1      20.211174533124066      25.968116496164889      2.8430888294263368
   137   1      17.396484335271069      25.887900524988673      28.564090050289252
   138   1       18.73014060026544       27.39269004354388      1.4839796166754686
   139   1      21.394847723745901      1.3432967604053609      1.2919910543017521
   140   1      23.294708128227033      2.9684977247935849      28.672056782493087
   141   1      20.172131302573934      3.0378813935061322      28.473041152785015
   142   1      25.723656514659346      5.5376806897252413      2.7634033284342987
   143   1      20.302233993472303      5.5415825631440283      28.475126789645376
   144   1      20.172781702100956      5.6512939282794807       2.730027570943685
   145   1      20.271783385932437      8.6075642609016985       28.51004329325227
   146   1      21.395872356603299      10.053475785646015      1.3552582169115348
   147   1      19.907457339673403      11.654133947977094      28.627009950028494
   148   1      21.409938216439034      13.056023713956007      1.4733055799410193
   149   1      18.493222071938767       13.06746540097094       27.34993724791606
   150   1      20.025578631134003      17.215099790291223      28.687460427586505
   151   1      18.501323067229688       15.78781368473636      1.3979538441975476
   152   1      20.216525858621175      17.258658655074655      3.1803478062845834
   153   1      20.246636798045543      20.131767303524498      2.7782316850919302
   154   1      20.335078098684704      23.183885156319505      28.638726395759136
   155   1      21.659871233914576      21.512178991962756      1.4487342415433542
   156   1      21.652596956801382      24.376828484247785      1.4065175433985573
   157   1      20.211388603576111       25.69017047759959      28.591350703795598
   158   1      21.687692109780407      27.127222042036088      1.3750679557108023
   159   1      24.616434296732614      1.4853159012075594      1.3137642330390704
   160   1       27.62730528888461      27.193442509941836      1.1564916553268059
   161   1      23.057820788372144    0.051047586717231953      2.8549315114881559
   162   1      24.777604752426054      4.4208515208870569      27.028265592629538
   163   1      22.912998186009379      5.8259168239319346       28.33697901501154
   164   1      25.973952250873594      5.9178401726368861      28.441737552400653
   165   1      22.831642555869717      8.4896820068965653      28.379065002028248
   166   1      22.931177144171706      8.4217123196398571      2.7160589405700759
   167   1      22.665341740820566       11.71857783882354      28.655075399123476
   168   1      24.484975884008538      13.007433153242616      1.3579390631463302
   169   1      23.007556163530172      14.523538062581228      28.599912848579798
   170   1      23.135130394769231      17.159933491409273      2.9784409956661237
   171   1      22.697238903658565      17.303449390806062    0.016669716380897624
   172   1      24.417798356139127      21.689603485238838      1.3200321581140535
   173   1      22.801748238227272       20.27814565148099      28.606032541479465
   174   1      22.928931646934878      23.026854300303278   0.0088015408455476094
   175   1      21.496462751829156      24.468295116087759      27.031665130764569
   176   1      24.696023957711542       24.74220800321806      1.3004498687718193
   177   1      22.973783851856318      25.705390458135394        28.5820906056518
   178   1      24.362189926334334      27.144838863158714      1.0731602331457353
   179   1      24.316710614909919       27.32242828328328      27.320896451964543
   180   1       26.01500623939906      2.8716506998942544      2.5289058242150637
   181   1      23.023614501324698      5.8925589848505293       25.84965208867073
   182   1      25.971796390776255      3.1425060709412871      28.546055323099271
   183   1      24.503929324855225      4.5048401048192117      1.2779404676248649
   184   1      27.411341013114477      7.0432698923490618      1.5448677067731751
   185   1      27.437551889654593      7.2791895372897848      26.879108503760499
   186   1      25.930564343023505      8.4779353679872642      28.631744526017478
   187   1      25.941283463702025      11.193762693960602      28.676422851165313
   188   1      28.636072684400549      11.636223771347177       28.65077279159631
   189   1      27.322746100469132       12.75165934219954       1.459398317988758
   190   1      25.987631694870068      14.574996839795057     0.30083242898451668
   191   1      24.572952794516244      18.713693659428294      1.2370030582192733
   192   1      25.957222412224166      20.186751761465604      28.651450992964044
   193   1      25.925344536645898      20.037604893701754      2.9090747689787553
   194   1      27.561075794327241      21.441957160380039       1.415951325698948
   195   1       25.96132603575839      23.154396505503385      28.628609696317483
   196   1      27.489745888635575      24.651019000671958      1.3351908132193202
   197   1      26.203247391451701      25.932299708463884      28.565690866080772
   198   1    0.077533798879142066      25.783503205635522      2.9060290527156845
   199   1      25.902439250502187      28.437029519529574      2.5629739282601225
   200   1      3.1006856271501109      2.7813684847295024      5.4690672019662294
   201   1      3.2405027269436668      5.6033021783837142      5.5907969999869893
   202   1      1.6557965302840545      1.3173132611782306      4.0677772561069618
   203   1    0.057192350395655851      5.6480268314390871      2.8288815145389536
   204   1      1.8590161543686343      6.9446402056763077      4.0265996647818971
   205   1     0.35602059016371185      8.6335607640017802      3.1074158854438196
   206   1      1.5698905978262352      10.040278581122585      4.1236385309034294
   207   1         28.588804506391      11.622293006960289      3.1254039045058573
   208   1      1.3352880425900953       13.00151612987481      4.5808920753278874
   209   1      28.559595755742027      14.264949221738755      3.3325403390298791
   210   1      2.9723373589366404       17.28856087809676      5.5582516625010374
   211   1      28.442334528403567      17.147368209227881      3.0569892976234665
   212   1      1.2824181722009502      18.785317588371527      4.1078602200542447
   213   1      28.691581764978967      20.041869151554774      2.8418675107329134
   214   1      27.161704107444368      21.565721630039331      4.4760077094395427
   215   1      1.6655726639518682       24.44838405209973      4.3504610544426621
   216   1      2.9651880854494652      25.804283858560208      5.7128964811409331
   217   1      1.5639853432101301      24.280684156502609      1.4897821579948063
   218   1      1.5336641249825462      27.218516356852479      4.3462116248999436
   219   1      3.0837075616315097      28.639701289730809       2.628394382497766
   220   1        4.31917349489163      27.349427946898505       4.295436795879283
   221   1      3.0570700541319611      3.0481875632670605      2.8563956005389288
   222   1      5.8538050493291873      2.7293578768906643      5.7282444064637099
   223   1      3.1358925374813817      5.5868196414689848      2.8816590110983213
   224   1      4.4315499988455347      7.3572481497785622      4.0558965955207844
   225   1       2.968212005793974      8.7528601238730452      2.7054094210733983
   226   1       4.343779798593471      10.177152955406298      4.1574719459212428
   227   1      1.3231830679887262      10.138103771473505      1.4529289191161185
   228   1      5.9680510096796935      11.520782032223838       5.883896500191387
   229   1      2.9235304550201588      14.292613621120077      2.9443460890280466
   230   1      4.1919608195771785      15.894959218538594      4.2627911747072753
   231   1      2.9091273212488122      17.104433513884519      2.7382181662204741
   232   1      2.8231534951236323      19.807509282971807      5.8822004229583955
   233   1      2.8863531573165098      19.869072281468451       2.508656186736129
   234   1      3.0121188629034599      19.960637574786215      28.663635495541886
   235   1      25.808851428941843      23.125245363147314      8.7040344075306617
   236   1      5.6422562038102759      22.937924768891218      2.9246822814509588
   237   1      1.7813525179223815      27.077059306353458      1.4271485034994722
   238   1      3.0512345714569586       25.85692276574045      2.7587947020748156
   239   1       5.630311750647456      28.435739331773917       2.450555374917827
   240   1      7.3173977451002479      1.2703251681822951      3.9888519398525943
   241   1      4.5143289939530264      1.4629733146678405      3.9692268417872665
   242   1      7.4160489475661278      4.0687603726183399      4.2538998864815971
   243   1      5.7923462139468649      5.9844525801468045      2.4268477556641423
   244   1      7.1529155202293708      7.2689527150400899      4.0092531060451444
   245   1      5.8217619113711265      8.6649196084338396       2.735742283423019
   246   1      6.0446325553407281      11.523641107215109       2.862582008021842
   247   1      4.5306730407335865      12.947608726375741      4.1220964852808324
   248   1      7.2902213129349276      12.969958916031473      4.4265135631913664
   249   1      7.3677693347257636      15.679687178814714      1.4489971685922105
   250   1      7.3375968016937874      15.810184894903351      4.3406191536062213
   251   1      5.9549170187468814      17.187422458277251      2.9771696616631784
   252   1      7.2746347346562912       18.69436671525979      4.1903681951377978
   253   1      5.5713008348154647      19.894353331293313      2.7724602998381211
   254   1      7.0946499676570864      21.266161249378715      4.3789300774215976
   255   1      4.3755793854521725      24.372625398316522      1.4150010560064965
   256   1      6.9781058282432129      27.298620122747781      4.2755090559548048
   257   1      4.3855087249875995      24.680782549967976      4.1447970473732152
   258   1       8.750478412078655      28.597909399501312      2.7535026470010044
   259   1      7.4321341395975002      27.391009520923205      1.2852334540134269
   260   1      10.165536258503607        1.45374446835475      4.1619953416409663
   261   1      8.6761583931397155      2.7118957098153018      2.6413434593284251
   262   1      9.9114226343559189      4.1888002474452541      4.3660280127395614
   263   1      8.6998660602980085      5.5813456577466507      2.7312560115078997
   264   1      10.236987070828704      6.8804231340518474      4.1895855435624902
   265   1      8.8585372755401437      8.5075855482029361       2.920424877232938
   266   1      10.049942726303776      10.034728379979116      4.4829504973352474
   267   1      8.5407603474463603      11.592733392000822      2.7884721580206691
   268   1      8.6648395030554184      11.539338121743127      5.7769479578169154
   269   1      8.6596848999248053      14.362796608469511      3.0175978578322815
   270   1      10.024863970981555      15.860940291142876      4.4010310915715829
   271   1      8.6965988180536584      17.286801122345263      2.9858517929253434
   272   1      10.085675797397972      18.640504696124918      4.3716829369318386
   273   1      8.6549496638623733       20.05993549727966      2.9031384338116499
   274   1       9.880944530669888      24.496217317008572      1.3325784998596295
   275   1      8.5273000002902766      23.013535069039317      3.0098655384084352
   276   1      8.5104569876734253      25.834038587440457      8.5277526381994431
   277   1      10.356649734591421      24.480920794672649      4.3631786188221886
   278   1      8.5563779854135671      25.848564923589279      5.4754345952558614
   279   1      13.076292111988666      1.3339298103599151     0.99330016059210491
   280   1      14.572519089080036      2.9154010404942756      2.8507195899657409
   281   1      11.590958616131365      2.9740114692666322      5.7645009338246584
   282   1      11.634689884797702      2.7984768395614656      2.8529654323134883
   283   1      11.476736161165062      5.6055102439435149      2.8685362509512293
   284   1      12.827809051266932      7.0761998672165038      4.1634570601085308
   285   1      11.299641367545334      8.6146290288993139        2.81280100447675
   286   1      11.795544000935092       11.56581868642396      2.6677605875163652
   287   1      10.313570934678681      12.859534119210332      4.3580998361100018
   288   1      14.397847971127989      11.482337287564198      5.6395779351547279
   289   1       11.60662546214269      14.524184809990324      2.9477525550074697
   290   1      12.931070174250873      15.885519160835525      4.3044292357153751
   291   1      11.429374224157518      17.265472153115144      2.8620042888447643
   292   1      12.957403496297188       18.64453824206759      4.4338140559144357
   293   1      11.796022748846653      20.119140418779086      2.9379324870670693
   294   1      15.623475752408721      18.830968317457916      1.4688550567900507
   295   1      13.127960474860398       21.55130611032272      7.1971430643377277
   296   1      15.952718094090994      21.736871384871783      4.3236241999215244
   297   1      11.608702335921377      25.802104777276117      2.7693333426205058
   298   1      12.869449435560522      24.508210265245374      7.0955767527592082
   299   1      15.800430782545941      1.3695984177528651      4.1151826424483451
   300   1      17.181170485952702      2.7975037554276909      2.8824585199995938
   301   1      13.019893548353636      4.2001441825076071      1.5392598414790992
   302   1      16.174845341376141      4.3827673092669448      4.2458689650821793
   303   1      14.803287192488012      5.7165674535922175      2.7997583610496104
   304   1      15.875615400465776      7.1305549513492803      4.2498886872104382
   305   1      14.565570087328073      8.4369744585452011      2.8251172501677715
   306   1       15.92634413342126      10.028311893741064      4.0210202689341754
   307   1      14.398142992503185      11.535947740488337      2.7179930852342058
   308   1      15.847872322768781      13.029464278065293      6.9782507626403669
   309   1      14.569465980331778      14.345209901276698      2.8478624161303285
   310   1      20.208260219387128      14.544584035357744      5.7323453603649481
   311   1      17.251691165768488      20.244480727849201    0.070339402878130466
   312   1      15.999822345555238      15.830281709575342      4.4024579662942935
   313   1      14.448914060790106      17.144139371363604      2.9878266153372506
   314   1      17.430085596107819      20.184279007506049      3.0876617004473452
   315   1      14.484002798062264      22.842782521008001      2.8546292733139014
   316   1      17.291937860192167      23.108506102967674       5.711083402661739
   317   1      14.579686423234641      25.642447943777611      2.8051095362028473
   318   1      15.960256137980183      27.348183314201115      4.1133580917516452
   319   1      18.657113755831094      27.350969665660745      4.2396283912160193
   320   1      18.733296700954607      1.4386161398755122      4.1019919991988942
   321   1      17.227363785045966      28.684387171590959      2.7805946130980947
   322   1      18.697267661682375      4.3357548138385278      4.0518748357401648
   323   1      18.525871505325146      7.1462162609620474      4.0654991681786745
   324   1      18.739090378237631      4.1565789062263416      1.4086966487263224
   325   1      17.050574059864953       8.481884027278646      2.4477483234807074
   326   1      18.571797401303439      9.9157849962842182      4.1249761940715848
   327   1      15.765383648762985      12.914989859092747      4.1954726561953377
   328   1      18.502463625564523      15.933133914572236       4.253176151520023
   329   1      17.278739454275172      14.421244772521881      2.6898118185613726
   330   1      18.734195795097822      12.954304587730814      4.1696159231947805
   331   1      15.864229310603376      18.891751940859461      4.1075719262063553
   332   1      17.212566931943375      17.285732355403947      2.7467535738440803
   333   1       20.12404971132252      20.058600806504103       5.448266219564518
   334   1      20.013093061896285      23.309995140310352       5.782983310388965
   335   1       14.53091263481339      20.295333872850239      2.9525012297941293
   336   1      18.637035907044854      24.432025338935709      1.3831564599189059
   337   1      17.350426173296011      23.014586584539554    0.015790687648768651
   338   1      15.972587874041993       24.25841806349624       1.337064736575531
   339   1      20.242273581283293      28.680918870457933      2.8544641274980886
   340   1      22.736037018186245      5.7216858765039538      2.8408067630695188
   341   1      20.235762416417128      2.7035630114923599      2.6829750957515683
   342   1      21.551267937214025      4.2474729299965386      4.3346368186399724
   343   1      21.596033306554254      4.2970817103206302      1.3452430325249563
   344   1      21.421079551080762      7.1705369603456335      4.3586950742069783
   345   1      19.930178753752799      8.5065228410185085      2.9637673381772118
   346   1      21.718861272815364      10.132594839247178      4.3330960666800076
   347   1      20.275595967440111      11.565804898170954      2.8598787139585742
   348   1      22.907305719286022      11.263505052243346      5.6773092379062913
   349   1      20.121974307238428      14.553324360008446      2.8465984789129357
   350   1      22.894519852271753       14.21962539460055      5.6690540416454427
   351   1       21.30114008841316       15.65288682771684      1.3883155297481273
   352   1      23.014656155458816      20.489009081066499      5.7101531291630421
   353   1      18.819984881560583      21.860716009347602      4.4187227150402011
   354   1      22.951112120087103      23.138117295686492       5.532287140050915
   355   1      20.082277846900062      22.899955605740494      2.5602971648997479
   356   1      21.351044346459155      24.414508899670629      4.1180650832766474
   357   1      17.159061256697296      25.792872856105074      2.8622332278734697
   358   1      21.635711090167074      27.424147934250268      4.3971227315678467
   359   1      24.683212591907662      1.2974824288524929      4.2951082203172444