dump/Fe_1350_20/steps_51 (written by ASE) 

1980 	 atoms 
1  atom types
0.0      28.699999999999999  xlo xhi
0.0      28.699999999999999  ylo yhi
0.0      28.699999999999999  zlo zhi


Atoms 

     1   1      28.512044529127706    0.052183725625070461    0.067508148199976886
     2   1      1.2558060515895828      1.3907545928514082      1.2168456650788932
     3   1      25.615549534381728      2.8133830926997239      2.8701403030642361
     4   1       1.361158474889602      4.2179739570356807      1.1799478408954305
     5   1      1.5133405268620348      4.4741397700320453      27.060790982356565
     6   1      1.3804577861870146      7.1571359050201391      1.3346362144994592
     7   1    0.080963331091029558      8.5999605286799472       28.58835906735662
     8   1      2.8759140291378484      8.5280444016892609      28.563318612733724
     9   1      27.226127953911845      10.240518210694367      1.2490236861093309
    10   1      1.6825202523668172      13.074626765053575      1.4381590615170681
    11   1    0.078416158586835816      14.258656908284248      28.699356132717707
    12   1      1.3847721114077334      15.688197244231093      1.5121535871585035
    13   1      28.573698974143326       19.94279651943069      28.647860383490197
    14   1       1.107452607053609      18.652852014050055      1.4095336583294051
    15   1      1.3762232455841652       18.59505930917091      27.305595797433515
    16   1      28.580331950706267      22.877532054289954      2.5971409621394943
    17   1      28.594065364271533      22.822055456886787      28.506412629343604
    18   1      2.9182513534120851      25.605473842192758    0.046300593809132706
    19   1      1.3751707485125209      27.090754367122056      27.449207768145818
    20   1        1.26120148595561      27.076456615161284      1.5193982855540191
    21   1      2.7307892553122821      28.604548088378934      28.668818909929442
    22   1      4.1761732692561768      1.3714493125881191      1.3090820770946594
    23   1      2.9761810351558995      2.9602300413032796      28.390628649964658
    24   1      4.2318366134537442       4.070984295142213      1.3521527637441633
    25   1      2.9393291109230018      5.8976536359727207      28.671579349429582
    26   1      4.4611729548475827      7.2182645450564227      1.6254795388502767
    27   1      4.4887380082032822       10.04722969270356      1.3372504458380732
    28   1      2.8668320050230816      11.500579310477427      0.1453844986721832
    29   1      2.9581721119377722      11.402560457579689      2.6569753758808008
    30   1      2.9200612478824848       14.56841892275315      28.628209211532013
    31   1      4.3572420685346076      15.868738134045671      1.5305106836484692
    32   1      2.9654924526837636      17.361673053342489    0.094096909953486865
    33   1      4.8075193630868389      18.590172515303625      1.2539002469588798
    34   1      2.9074855549057586      19.905623973174535    0.079213167756279235
    35   1      4.3993756505050916      21.240422444311974      1.4576508650199345
    36   1      2.9504842578711878      22.600678244882172      28.637420332470771
    37   1      3.1091698377519008      22.885919577291347      2.8270036860076053
    38   1      1.3157026060403176      24.138634465532572      27.367708298227033
    39   1      4.1933874802007018      27.155319656314262      1.3364873462311946
    40   1      5.5251841211493726     0.14816946721984997     0.18946648416826961
    41   1        7.19593436667191       1.321266752570557      1.3527021798881038
    42   1      5.6364477294845168      2.9027074845887482      28.487636066395286
    43   1      6.9648867404818198      4.1718219212018468      1.4650534402011088
    44   1      5.8980460909283243       5.609749393386136     0.12245280177634191
    45   1      7.3101140795058663      7.3137115964086776      1.2881622374482173
    46   1      5.6894540162720268      8.5029960829237137      28.548012757087466
    47   1      8.7310973527791607      8.5234575621189972      28.596529283719921
    48   1      5.7526949268752858      14.291929958370742      28.671412209542812
    49   1      5.8250972233931257      14.490807799661365       2.747333126059289
    50   1      4.3840053133524561      12.907482803025429      1.2985037188934816
    51   1      8.6754255726523173      11.604756640186881      25.875400092040767
    52   1      5.7472997622100594      17.010341528770887       28.67202850015433
    53   1      7.4455315430040647      18.616977303793515      1.2006500311926502
    54   1      5.8391375776036831      20.096967628884059     0.12713364859564544
    55   1      7.3676292962925762      21.602200415628424      1.4117611193144182
    56   1      5.8397542892958327      22.730678764299853      28.624446100933657
    57   1      7.1466576213098207      24.162084995610016      1.2493616111750281
    58   1      5.6979253176844189      25.811320215757281    0.099015906720455751
    59   1      10.031189581105467      24.526704426924343      27.388578101272458
    60   1      8.6451872562681729      28.374755391969291      28.596248283859431
    61   1      10.079582397947439      1.1011722569024738      1.2801459601700895
    62   1      8.4545104493251699      2.6047583999998443      28.689744379604093
    63   1      9.9804636842679315      3.9878709780501991       1.359404980582462
    64   1      8.5424427331328321       5.582709262715972     0.20790810770191687
    65   1      9.9446437264642586      7.0132847643544896       1.497899428258471
    66   1      7.1271792804476162      10.012980261708432      27.339997208072692
    67   1      10.066658397176417      10.084141889901225       1.524585676498885
    68   1      7.0510062928854147      12.797685787336048      1.3016319840746393
    69   1      10.104209093002263      12.800868672711983      1.4607542388394799
    70   1      8.4506893402945789      14.273793444824467    0.032759951271305023
    71   1      10.079141549267369      15.654812476859703      1.3143977579080566
    72   1      8.7362058108078351      17.193569265484342      28.647551897627597
    73   1      10.231592079223017      18.588364405356614       1.406832325565414
    74   1      8.8613543933957928       20.01237077917979      28.560878510209395
    75   1      10.156016983654229      21.569837328954502      1.3504515855969212
    76   1      8.7453283822459795      22.712431057694936      28.645187704797152
    77   1      10.218416981123735       24.26853701624254      1.5633676268198082
    78   1      11.511614405260753      28.609344359938415      2.6451912666954298
    79   1       12.79577539524681      1.4625690220466285      4.3825072747533431
    80   1      11.518597478205198      28.547565023527699    0.080002017797130537
    81   1      15.787754002157884      1.4911930122278476      1.4683630136298791
    82   1       11.63665063851464      2.5695009989901334      0.1805455454430443
    83   1        11.6138446236618      5.2805210769381983      28.587795612884708
    84   1      12.841709273160141      6.9613165453343742      1.4720861869071766
    85   1        11.3696062939679      8.5477637684592853    0.097295605645035574
    86   1      13.123723515074776      9.9705709418800073      1.4679905096781003
    87   1      11.398076238136619      11.545909730770568      28.685342867876901
    88   1      13.094649381786182      12.948823288806281      1.2610218300189546
    89   1      11.478484541493648      14.024521428265192     0.13314167200569513
    90   1      12.870830754689893      15.941673495404496      1.4642502643295743
    91   1      11.508777639816698      17.289947127090738      28.687884497677164
    92   1      13.031359106748953       18.50564079308386      1.4026901973751014
    93   1      11.657918379497074      19.982581467044586   0.0070956327103317623
    94   1      12.975829187032492      21.263939038907914       1.451444048085238
    95   1      11.502901086107579      22.904447394921007      28.633802371468349
    96   1      13.068533193966076      24.542160391748794      1.4399411175755179
    97   1      10.164883962636624      27.123330864308326      1.6748644320655333
    98   1      14.442876805730986    0.017228551725513901      3.0414797855702713
    99   1      15.839520593936824      1.3349158177719027      27.330868384650703
   100   1      14.461519618479812      28.691390331291803    0.067138600891189629
   101   1      14.387737178283553       2.784222970849429     0.03772038236043055
   102   1      15.922743397264735      4.0260695840437375      1.5692963485343063
   103   1      14.598335459073462      5.6732485067145015    0.069666735871317123
   104   1      16.109965967338791      6.8837488623949215      1.4795984900203278
   105   1      14.668452541400496      8.5355513489972417    0.073492280822415462
   106   1      15.997781319730182      9.8614984564170047      1.5338166369903212
   107   1       14.54539941767743      11.623951913032224       0.075028919746535
   108   1      15.794373352037395      13.033906607896659      1.6545509049934946
   109   1      14.359031028741272      14.586800773843944    0.036022154656836787
   110   1      15.928861809172894      15.802293715990288      1.8602557921344454
   111   1      14.344188981437666      17.402991069819009      28.530919634263768
   112   1      15.692231869825283      18.517662275171617      1.4961221459455722
   113   1      15.914101921990664      21.565840218121622      27.156121369568215
   114   1       14.28725018037694      20.016164553521207      28.404726974682688
   115   1      13.117605959508007      24.484962210237825      27.164552650666664
   116   1      15.911641188808932      24.568332497468923      1.4907302678360688
   117   1      14.486674645894864      25.832997177457006      28.667496746403359
   118   1      15.690488275513692      27.224637459683453      1.3726739833219082
   119   1      18.812207292401617      1.2720323560544693      27.347567429873326
   120   1      17.421685373056768       28.61409356081602     0.12164134486775978
   121   1      18.694318190008076      4.2460067400111736      27.091265653846367
   122   1      17.426276180092501       5.487957489966079      3.0557522748222388
   123   1      17.347113531453335      5.4596360198563785    0.024011994762463455
   124   1      18.771815801186634      7.1555129574622471      1.1670924194032186
   125   1       17.34485326629434      8.6939640452726969   0.0014046414404674575
   126   1      18.579291322505682      10.145139875551353      1.3905204450725033
   127   1      17.083898097301681      11.355243846071991     0.15944122565174426
   128   1      18.444730157736632       12.81155817194302      1.4586202637159207
   129   1       17.23547704484028      14.402873180055375     0.29166783326534118
   130   1      18.616194564562775      15.722004174943205      1.2946369655340839
   131   1      17.198941596826344      17.144337407713511      28.655206377798894
   132   1      19.017060833494888      18.597419530436124      1.5374117950169435
   133   1      17.440592874427196      19.869052651022905      28.651269956510319
   134   1      18.618928926243253       21.61710354558647      1.3308390042470921
   135   1      17.358306149783719      22.965522231317191     0.02221270012169042
   136   1      18.768811575261662      24.492754513254127      1.2879186695094622
   137   1      17.425162478128382      25.970450079367652      28.536775421522137
   138   1      18.735535886591141      27.413544856262469      1.4244856381628881
   139   1      21.629555847914926      1.6020328752445026      1.3333301455370599
   140   1       22.89808324358447      2.8174288305840611      28.412431540612545
   141   1      20.085535661995625      2.7499697892222796   0.0035706879723761756
   142   1      24.385867901013693      4.2433976976892609      4.2624570156251265
   143   1      20.132279450991714      5.8051575553742572       28.50855539050109
   144   1      20.062649496809346      5.5992323500863979      2.7099719032836669
   145   1      20.318470289167504      8.9105861408770561    0.012312023631557168
   146   1      21.699303666396514      10.219772595811721      1.5796887185122832
   147   1      19.918298421519729      11.303672994112556      28.605430546277788
   148   1       21.36076552983674      12.835032591042879      1.3932160176155537
   149   1      20.035131843354883      14.283649758638036    0.077855547913543308
   150   1      21.593485676943104      15.768603491096314      1.3221475874226154
   151   1      20.001772958721244      17.242700773911526      28.638374535871648
   152   1      21.461478344123687         18.869329989293      1.6290085239938892
   153   1      20.088410319290688      20.102824767920659      28.466761006801093
   154   1      21.383328219647606      21.483546997104771      1.3708981882281941
   155   1      20.130216111175507      22.994323144852572      28.546807832069508
   156   1      21.652668982399536      24.459806828957717      1.5438087062054355
   157   1      20.093155015766264      25.903491521888377      28.680661965092213
   158   1      21.434587787703485      26.996843854975857      1.5226599294096677
   159   1       24.22197869915572      1.2185561822202646      1.3932721412032609
   160   1      27.260081396830653      27.047127620216742      1.3899948235480446
   161   1      22.948961935286228    0.081052863980403622      2.8321140485528304
   162   1      24.332801458432264       4.289834965440309      27.222843802776016
   163   1      22.832500537041845      5.6894587587174259      28.309552021813335
   164   1      25.851100061898958      5.5504741509056617      28.570246997037771
   165   1      22.932037935228827      8.8028775648820528    0.023258389652085047
   166   1      23.128665717528506      8.4736368227053998      2.8768881831673312
   167   1        23.1267623901619      11.626685776089753     0.20630088132940042
   168   1      25.889011978189956       14.25676977288769     0.13251308143219373
   169   1       23.21663984176098      14.276296973704135     0.20224706650344598
   170   1       24.40018622907764      15.740810213636497      1.2917754768024101
   171   1      22.800713021717296      17.164846149634876      28.675557058641189
   172   1      23.126523586780614      20.161705210638569      2.9011939163672285
   173   1      22.755929349876538      20.192851855528186    0.010774830088087139
   174   1      24.119579877274703      21.481106689333249      1.1974629808401693
   175   1      22.834349152163245      23.033972965740318       28.68621742560515
   176   1      24.324329068167252      24.567572829560703      1.4126135382204554
   177   1      22.586427011174891      25.861970646583021      28.563290213623816
   178   1      24.371006013733272      27.330559596654954      1.2783258860420008
   179   1      24.284075371774609      27.425853935930309      26.951759650853674
   180   1      27.036259327891585      1.4643645365889835      1.5549980728432371
   181   1      22.987487541947619      5.6926340651123315      25.590339431350216
   182   1        27.2921694397577      4.2469348408423215      1.3687651258535194
   183   1      24.203997899013558      3.9351555553256752      1.3532179217247631
   184   1      27.332384607701833       7.000123155324629       1.360810776764811
   185   1       27.16517456046244      7.0426888720804346      27.320125434892518
   186   1       25.90181975936386      8.5978644526541075     0.12486763826379964
   187   1      25.562106443675642      11.750417033139479    0.087240073472355573
   188   1    0.029547190787213722      11.480274972443951    0.025859410966756969
   189   1      27.255216771606033      12.863283259438548      1.3584315829348492
   190   1      27.009388324490399      15.714981915878209      1.5651897421762901
   191   1      25.567533865305364      17.155724928873756      28.265647318786392
   192   1      25.825894731165945      19.929055068731746     0.12967291502191086
   193   1      24.219755523593975      18.384144523106677      1.5423307837084514
   194   1      27.146795421346116      21.464131347757107      1.3827575786131425
   195   1      25.709931593370467      22.846395749036962      28.450184172165436
   196   1      27.138995387676978      24.178729199275661      1.2936542501430386
   197   1      25.710443486677686      25.812338462429725      28.661690580925111
   198   1       28.60962390949188      25.608884848988829      3.0764517545185988
   199   1      25.600275783256482      28.484145724347265      2.8751824362150256
   200   1      1.6427394169404457      1.4917858919478146      4.1863043718930459
   201   1      2.7066336197369885      5.7447936212893183      5.7704100247542645
   202   1      28.674753348621199      2.7360575946907701      5.3986136298943901
   203   1      28.623056394476237      5.5268001341349713      2.8136352288193147
   204   1      1.3346483187106524      7.1734192951814499      4.0539312629004014
   205   1      28.689340993674424      8.8028482204212271      2.7141554696788832
   206   1      1.4907761433514224       9.987839483735101      4.3823478037641408
   207   1     0.04363404799097538      11.598405093022247      2.7260511878629599
   208   1      1.3119187151813543      12.941686881308861      4.2158364072500873
   209   1   0.0083810418262156728      14.083080646161807       2.838704348636099
   210   1      1.6472502567387102       15.83704746017613      4.0856180797310548
   211   1      28.450237286820315      17.051686440621761       2.809119106364891
   212   1      1.0300004425067872      18.531939320813635      3.9272893679490655
   213   1      28.401406336595912      20.228195382039818      2.9588236032800692
   214   1       27.31353180752058      21.754732566489842       4.222052236065676
   215   1      1.3392216049373267      24.225655408815332      4.5625739242020771
   216   1      4.3852606387586643      24.332666484872338      6.9867698448285962
   217   1      1.6578553739287045      24.011477246293193      1.2868834813370094
   218   1      1.4654445066539121      27.146923483196268       4.274917263152628
   219   1      2.8295437124929341      28.461638264025439      2.7523326135264825
   220   1      4.1839471448747281      1.5515117508229763      4.1510744962219093
   221   1      2.7064546287843068      2.6802245745007651      2.7074084416396191
   222   1      4.2463120195832289      4.2455764241588394       4.247509584879519
   223   1      2.7083263183344242      5.7945781523879711      2.7407566474770753
   224   1      4.3708913514340377      6.9189644669625006      4.3050217911705433
   225   1      2.9621165538844374      8.8050038083380606      2.7273771311824593
   226   1      4.3452431019819144      10.034205265606101      4.2840057979579909
   227   1      1.5601368053320941      9.9907107360311009      1.1770485402059661
   228   1       5.798282366752133      11.420902641216637      5.7730511453266269
   229   1      2.9914622414531267      14.250110832579539      2.6877528566495688
   230   1      4.4522375236043956      15.857544260808334      4.2409901151218738
   231   1      2.8626306510741202      17.395742620390116      2.5611435161169971
   232   1      4.3913149950716193      18.439796018463579      4.2835118291904477
   233   1      2.9027685930912197      19.859527897539802      2.8634066175158175
   234   1      1.5047614913830674      21.247865835169783      1.3091535612617451
   235   1      28.584550627677505      20.114154581942735      5.8908584109663424
   236   1      5.7545249146211557      22.875659777551089      2.6680824704044634
   237   1      2.8307621568836927      25.680984092575553      2.8570724433613703
   238   1      4.2147537979583323      27.000644512118541      4.1443313118015555
   239   1      5.7694061352811863      28.525315253574863      2.8325907659217235
   240   1      7.0116473145293492      1.5073813017292883      4.1632276405197999
   241   1        5.55218918860486      2.7413306632089087      2.7833568153276596
   242   1       7.140916764650119      4.4175919384468338      4.2366308361302663
   243   1      6.0080962559514264      5.7569813076035103       2.826801005468631
   244   1      7.4020745172109441      7.3096316281718776      4.4310656788794311
   245   1      5.7989149617000511      8.6704834363178502      2.9246018567541556
   246   1      5.7350680127780853      11.495809477195191      2.7925766961668383
   247   1      4.3413786045080673      12.972982013272869      4.0730465276774348
   248   1      7.2156779017774264      13.027966615655393      4.2279183626914989
   249   1      7.4706527124937967      15.857482933031841      1.3339991351293401
   250   1      7.3704059196497749      15.693908186083881      4.1316672953784002
   251   1       6.000432394654915      17.135009195249815      2.7177087229217114
   252   1      7.3333318838162569      18.652045933649166      4.2174370616988037
   253   1       6.193516737291743      20.122831550049252       2.723519212634391
   254   1      7.1207291760683313       21.46260451406669      4.1737026067788401
   255   1      4.3409627763219145      24.100826998361025      1.2650669454435488
   256   1      8.2658578751553939      25.671804729332283      5.7353963262416778
   257   1      5.5545160308473092       25.42833818144182      2.7811678429065512
   258   1      8.5038396146470152      28.647474061216975      2.7872332411014442
   259   1      7.1831051500353187      27.271723349387958      1.5251096229934187
   260   1      10.086017691635607      1.3269241029704391       4.340174623478771
   261   1      8.4030061271645486      2.9285503788214551      2.9186345975564048
   262   1      9.7948735318750924      4.0106305834643425        4.20058620896177
   263   1      8.5648451838363062      5.8139888463819496      2.9493162690379666
   264   1      10.207539128205664      7.0407150699499095       4.265060825949293
   265   1      8.9528832477243405      8.6979455876198202      3.0681935961495483
   266   1      10.124824194289099      10.389180151155452      4.2845728323777275
   267   1      8.6470181773023107      11.427638002914096      2.9397431344933893
   268   1      8.7004045398705223       11.52909914221333      5.8294370582751052
   269   1      8.6156181966745038      14.241847851868595      2.6596218616356393
   270   1      9.7695822349991417      15.652839966437401      4.1403203269950763
   271   1      8.7973740229586017      17.148474290218598      2.7453321691510384
   272   1       9.914329395423163      18.578273430716287      4.3928062844228615
   273   1      8.8079365606674465      20.098701996416171      2.7243023657757011
   274   1      11.663947166230468      23.166284464592717      3.0019013527336873
   275   1      8.5774316438160909      23.070347000164961      2.6610673496907351
   276   1      9.7407625351207816      24.439709519503118      4.0276959434036756
   277   1      8.5077080919002128      25.818955487947033      2.9664288593069377
   278   1      10.055519144985441      27.307913436494758      4.5204711733079606
   279   1      13.115874870123353      1.4063309975835854      1.5149978453017394
   280   1      14.411718578236393      2.8058165355543903      2.9644619281532405
   281   1      11.261171481674211      2.7701820666951216      5.7891858006160284
   282   1      11.439829489256065      2.6982153625712493      2.9274447260422014
   283   1      11.340038559340295       5.693418482860956      2.7633322794480604
   284   1      13.031584930705561      6.8900240528783234      4.1437863514421194
   285   1      11.599890183862268      8.5085960078705281      2.7610331123235805
   286   1      11.732753718446554      11.649165121071693      2.7047260873852106
   287   1      9.8848359032919113      12.868483304013052      4.3193231503627283
   288   1      14.466075378526826      11.307064593525245      5.7306544278690446
   289   1      11.517046417549809      14.151101302359971      2.8689535255811949
   290   1      12.729822295524398      15.649623992938002      4.2821611944772968
   291   1      11.414779724128275      17.228098748936731      2.9746041350603005
   292   1      12.849801987332484      18.490942687492883      4.1332415439692234
   293   1      11.273974324232682      20.085412100695748      2.7381760461204405
   294   1      14.270942874274997      20.128957596807521      5.7015492204571832
   295   1      13.031283969853774      21.482936855620192      4.2312223812248533
   296   1      13.125939012834706      24.297777761393768      4.6003913419721485
   297   1       11.67003076105094      25.915364059882922      2.9276739533795317
   298   1       12.79238270606465      27.101569585761823      4.5934566359807754
   299   1      15.514603024993558      1.4155740924802784      4.6110612090609475
   300   1      17.290648780141698      2.7249657341004294      2.9803617355979903
   301   1      12.887683264155715      4.0048000704178266      1.4570133818539601
   302   1      15.974634712609461       4.075011311215472      4.2978758595666147
   303   1       14.68887745130286      5.6599283484529685      2.9004757322975916
   304   1      15.914544560649549      7.0637153391715239      4.2337979802009009
   305   1      14.315214730085028       8.195376744937418      2.6640502989018953
   306   1         15.763288655658       9.928147141074195      4.2499306370275658
   307   1      14.556055249149646      11.363879072147016      2.7471845721494668
   308   1      15.944947855450922      12.945500596679659      4.3010297797771058
   309   1      14.304872924890493      14.383263999459697      2.9956023405135541
   310   1      16.004177941771541      15.777028864129282      4.3786274714402884
   311   1      14.409475257876103      16.974922245876758      2.9824672314932883
   312   1      15.732591195959831      18.799224827301369       4.232758405454712
   313   1      14.393775685985224      19.967280679067805      2.9565787854096865
   314   1      17.229273289447988      20.062009586398212      2.7409623696716161
   315   1      14.392064114922889      22.963522681594608      2.8173645787829065
   316   1       15.90511017483329      24.660781660269475      4.2117683968449242
   317   1      14.594971623403266      25.833779215186375      2.8444418756317984
   318   1      15.631554155403672      27.104082678929547      4.3572637838617263
   319   1       16.92486268573348     0.18440675481133448      3.0850634817774436
   320   1      18.700954165270016      1.3890167071887387      4.3570748584027346
   321   1      19.022927058735949      1.5297796636265502      1.6722690814695962
   322   1       19.04097198515888      4.3737418957929206      4.6101214580584848
   323   1      18.897168292938581      7.1994003410348144      4.0379961953693959
   324   1      18.918612060572894      4.2308650372090666      1.2439296716238244
   325   1      17.495318501558334      8.7404906550745043      2.8489694520221982
   326   1      18.668624266568187      10.262577286535153      4.3185768799759812
   327   1      17.256951941631716      11.448067357389982      3.0623865599050224
   328   1      18.731283566467589      12.776060894103107      4.3437381904254195
   329   1      17.319227513191962      14.370353943775266      3.0513910901524963
   330   1         18.574111296795      15.783300277731316      4.2038580046890299
   331   1      17.328055098565056      17.407080180798328      2.9708654981705362
   332   1      18.705242635679408      18.845388506767854      4.3856898235277528
   333   1       18.55901566435363      21.634061307505476      4.1445267465220299
   334   1      19.879113581348772      22.959290869352099      5.8432996613429404
   335   1      15.738756614877676      21.590129148742271      1.3834279735573873
   336   1      17.326854866800701      22.919359924538664      2.7360747699549601
   337   1      17.212574199668396      25.919838585840377      2.8905356828517865
   338   1      18.648327772498483      27.313347319572703      4.3229301983871373
   339   1      20.366280239827645     0.14286876050898661      2.9733712487153663
   340   1       22.94026568966277       5.479048815600664      2.7288917862924205
   341   1       20.17572125983444      2.9551314596212888      3.0410905706883691
   342   1       21.61491339202081      4.2766236462456284      4.3960896049804656
   343   1      21.480553698856799      4.2154409090303444      1.2458244330968222
   344   1      21.654267062727566      7.0654225744001566      4.1682351983638384
   345   1      20.136166079321651      8.7311092804134844      2.6653898168287133
   346   1      21.398982942728988      10.101424307844239       4.123545536933773
   347   1      19.969342412924576      11.450385620475485      2.6567156788855533
   348   1       21.51793460903691      12.883802204930801       4.176126597118663
   349   1      20.017507669550113      14.341643844817375       2.622007290276132
   350   1      21.398400562719264      15.684057138775563      4.2100081093235264
   351   1      20.268591995752541      17.145354872864118      3.0109118751926789
   352   1      22.980474172000189      20.446618795254604      5.8581662169148245
   353   1      19.955941830103278      20.284297467467042      2.7962140805502385
   354   1      23.085568005429352      23.045989193104877      5.6313707079633568
   355   1      20.116801666916299      22.882299477773266      2.8022679579410799
   356   1      21.518226544551947      24.438156452015903      4.3906054925427274
   357   1      20.074244151274947      25.900984992343862      2.9869143057864633
   358   1      21.636328162295545      27.231464108733398       4.269361937449319
   359   1      24.285431995927752      1.6020441144189144      4.2092813573079981