dump/Fe_1350_20/steps_61 (written by ASE) 

1980 	 atoms 
1  atom types
0.0      28.699999999999999  xlo xhi
0.0      28.699999999999999  ylo yhi
0.0      28.699999999999999  zlo zhi


Atoms 

     1   1     0.21377608319052463      28.651404484968854      28.437784610647004
     2   1      1.7660395829850342      1.4378378661459232      1.3501872151027652
     3   1      26.075562183372387      2.7117246889830313      2.6093877351545518
     4   1      1.5208858827689358      4.1870769874950771      1.5411180091293659
     5   1       1.737327920125348      4.4232244903023208      27.023256129167752
     6   1        1.47336993191051      7.0852460978763752      1.1680087378572006
     7   1      28.558475899673542      8.4368695320535192    0.015493466984764837
     8   1      3.1380219046689817      8.4921074903449565      28.577271437946937
     9   1      27.384123521943398      10.273455992176142      1.4179051500118585
    10   1      1.5240960456826336      13.158376361271868       1.344294852879089
    11   1       28.42732987607684      14.235279161319042      28.561417365767198
    12   1      1.1833750648504651      15.863949222408529      1.2851562512425736
    13   1      28.672595981749001      19.983048828935615      28.624860927947068
    14   1      1.4110949006262792      18.775670012351245      1.4957463899259902
    15   1      1.4604400682933059      18.508212401448031      27.283672121463557
    16   1      28.554941557294047      23.194578834655093       2.605603643371615
    17   1      28.614569263615071      22.688993424046036      28.581691209798919
    18   1      3.1799979061595884      25.762152711039189      28.679568709434978
    19   1      1.1717884481433589      26.993889463492941      27.086850515696771
    20   1      1.4525406107511361      27.215606666791327      1.2479372014058068
    21   1      2.7269831883648994       28.53978158751363      28.596071112619555
    22   1      4.3424014230950183      1.2320114261324309      1.6755484567455716
    23   1      3.0090648248475387      2.8544338878684274      28.575663993607151
    24   1      4.2732395724082641      4.3009442994441152      1.7272917846210007
    25   1      3.0334423063652713      5.5684068106709219   0.0098295992740417993
    26   1      4.4664429623421071       7.164236860039594      1.4011070395123182
    27   1      4.3687471137414597      10.032912558528736       1.098920427620544
    28   1      2.9942737221187152      11.440668224332157    0.032407425385110905
    29   1       2.928617362157647      11.628267732310984       2.595514067710972
    30   1      2.8032349283053697      14.557079042260307    0.042427549969602241
    31   1      4.3146207819327449      15.633409092279241       1.507715709026592
    32   1      2.8998320661872574      17.199532911766834     0.26624061304438551
    33   1      4.3627927592336633        18.6360963508845      1.2817731273207762
    34   1      2.7253968080084436      20.009005545463069      28.683416274688259
    35   1      4.2445636477020603      21.554140584910385      1.2259430888615275
    36   1      2.6560102845048306      23.094700539916882      28.522413424713278
    37   1      2.7958627106360048       23.05730643732878      2.9201425168972088
    38   1      1.2050763497615697        24.2314521054656      27.162331150805361
    39   1      4.1080016093732761      27.227890722927537       1.329026119099318
    40   1       5.870599733565915      28.674918155179572    0.088127232574652284
    41   1      7.4244996029010668       1.243005286597439      1.6613887530624087
    42   1      5.6495815190822354      2.7300021051019807     0.22228323332005859
    43   1      7.2459399730987633      4.4486999155527771      1.4872670816441305
    44   1      5.5599400928440907      5.4461264441363735    0.016492325459137196
    45   1      7.0483428656697003      7.1017220379720642      1.1296670854471229
    46   1      5.8921918024378641      8.5947627861858908       28.64319602593044
    47   1       8.714023475314157      8.5338672331425798      28.525930275706134
    48   1      5.9059952170637935      14.570309509007604      28.611233851243657
    49   1      5.8236359783497997      14.363844992303015      2.9583074022189102
    50   1      4.3210539433828901      12.984374641595643      1.3812346588128208
    51   1      8.7114177733386953      11.496658894561929       25.67380760809894
    52   1       5.649173749409341      17.267036858505467      28.607404600282738
    53   1      7.3444041120327039      18.723042971304565      1.3526816438457332
    54   1      5.6954539583650288      20.050901003154454       28.65841569764433
    55   1       7.160314784628417      21.501122243633692      1.2661128075147194
    56   1      5.8816163090543485      23.149155426614488      28.471429520212954
    57   1      7.1649890995031713      24.172121078752735      1.3923387678730694
    58   1      5.9115964787032373      25.825066765657496    0.042328848502779792
    59   1      9.8977823285362359      24.630245917602153      27.157535580204005
    60   1      8.5914280202771032    0.061885708455452028   0.0084917147175588101
    61   1      10.128183105860092      1.0415402543452035      1.6742525467774825
    62   1      8.4536969233531671      2.7865133931378852     0.15785093873997755
    63   1      10.061619770788539      4.5402802359089609      1.5115734034194577
    64   1       8.487029614143168      5.9949744907043101      28.624850923872717
    65   1      10.019350830598617      7.1613825978627901      1.5037418440212147
    66   1      7.2772101038324726      10.188033722286514      27.396173711543728
    67   1      9.8793149817445709       9.667462116869137      1.4296212523853447
    68   1      7.5912735486596885      12.669171800650593      1.3253678121151327
    69   1      9.9419420660356099      12.895974829137899      1.4141181427006255
    70   1      8.5141824568807554      14.363434758443386       28.56325845258721
    71   1       9.725649118065455      15.727366866854616      1.3329591570016874
    72   1      8.5126021191807819      17.160629871847028      28.578381186317404
    73   1      9.6434016978455386      18.448764046878164       1.418740458923001
    74   1      8.7135915700709514      19.982904886325709      28.451211463182123
    75   1      10.007963806459298      21.847376324127094      1.1913234265351422
    76   1       8.527237621020344      23.131688608994093      28.564403289292741
    77   1       10.05464414471707       24.49376495088795        1.29019720938944
    78   1      11.598316435992396      28.683730669198749      2.9226405299862415
    79   1      13.090823021441972      1.3990283480632917       4.374348377694206
    80   1      11.656450181717364     0.12815020358477971      28.696368415831461
    81   1      15.905272874861359      1.4279587225623454      1.5647571864196821
    82   1      11.726208651780009      2.8036495862936919    0.014589298522491835
    83   1      11.824014659956608      6.0877848848971521     0.10775404489215819
    84   1      13.166440230405748       7.465999216896372       1.517189638414242
    85   1      11.315278569478313      8.6919833816176997      28.626209219354141
    86   1      12.969607631299487      9.9861881146974483      1.5117471243234826
    87   1       11.43079456166951      11.304406102879202    0.054720407515765047
    88   1      12.747822825755129      12.796876583321012      1.4642850681180455
    89   1      11.433122407344202      14.229026521452466      28.682304240435588
    90   1      13.167857368381206      15.765000405271216      1.4083405062281034
    91   1      11.175385035348619      17.189844702960322    0.027849450544397299
    92   1      12.729150737642076      18.857721604548015      1.4109302736791831
    93   1      11.122079650504311      19.997357589540066     0.12804292247159305
    94   1      12.651591042115907      21.780707161672026      1.3047441162545634
    95   1      11.309057548608346      23.077814753534724      28.287781273402917
    96   1      12.706421236118077      24.223410390993283      1.2838229263976817
    97   1      9.9650557136365876      27.188973933536509      1.4708154154815707
    98   1      14.379710755910684    0.048482486260575365      2.8266599207820704
    99   1      15.747809955065126      1.6723051734293917      27.327511180218966
   100   1      12.996188115830186      27.296732452935203      27.401245442338166
   101   1      14.441299946887101      2.9963664780927948     0.35910019612535837
   102   1      15.775661971452438      4.3938078843642892      1.5553071063819297
   103   1       14.40963308841139      5.9404750556761439     0.15967675980283508
   104   1      15.858099895268788      7.1168626042811756      1.5915264296339739
   105   1      14.566149107509116      8.9239263705140974      28.641184843130436
   106   1      15.742413126088307      10.145646233376871      1.5173657702559125
   107   1      14.156888836256943      11.489599720447099     0.11581581768220987
   108   1      15.825896340908626       12.83336912808493      1.5040929042978282
   109   1      14.364398511041825       14.04771674512682   0.0072656291141811472
   110   1      15.772397519614065      15.575732676335235      1.3041681395660476
   111   1       14.30288446530032      17.452716252992804    0.051933518512703426
   112   1      15.909196125054601      18.604366751449575      1.4441692923599005
   113   1      15.750292446525656      21.604739840702415      27.035333287851003
   114   1      12.739235528643055      21.664421121976293      27.156228401567319
   115   1      11.399833109170551      23.194706320194712      25.765704829774467
   116   1      14.383932341742671      25.734672342399307      28.609905384641351
   117   1      15.863069047150264      27.208791095723054      26.904242649255508
   118   1      15.784641751446546      27.173740289657978      1.3633567991015862
   119   1      18.565862753382209      1.4453067978868628      27.201542223118867
   120   1      17.171386427445764     0.13578863601702723      28.648455876363858
   121   1      18.643234911368165      4.3897952525032382      27.210478582894797
   122   1      17.260498595167913      5.7739417691439812      2.9986042800717878
   123   1       17.21362017021502      5.8572359925802058      28.625047509049359
   124   1      18.708238644342259       7.366808575069105      1.4797230951786784
   125   1      17.260256732874051      8.5487404492268961    0.026733756254930071
   126   1      18.509641233404547      10.220644720593027      1.1457087536513777
   127   1       17.32733534432252      11.529098910237172      28.437954371059796
   128   1      18.504786444159105      12.981271616808918      1.5683529430875189
   129   1      16.929206317840471      14.203676634925952       28.44979041473923
   130   1      18.714927136231299      15.831048235409147      1.1726474271095977
   131   1        16.9282496658752      17.092510408137379    0.043178504048296401
   132   1        18.8186828958315      18.378832418364876      1.1622189960380285
   133   1      17.051996330087469      20.520420899447952     0.22335529449451305
   134   1      17.288024272272484      22.716764622750407      2.6725203358864515
   135   1      17.316299309908036      22.857754012461964      28.683659465313774
   136   1      20.025006244276344      25.794740292987289      2.9352879780576759
   137   1      17.087721737325126      25.931784182038101      28.509470647828167
   138   1      18.696472671456302      27.137900121163263      1.3136108216501494
   139   1      21.638279374825135      1.5354747915354552      1.4265207188079669
   140   1      23.057824734387907      2.9057735205566879      28.669393058983047
   141   1      20.102600119956616      2.7924592852908767      28.659020193993872
   142   1      24.635583915920762      4.1413796318363785      4.2531852724995582
   143   1       19.77549802231087      5.9528524108027794      28.527248722799335
   144   1      19.873369408291651      5.6732163995620599      2.7306094733690771
   145   1      19.982111521665335      8.6341586700219999      28.638379698816866
   146   1      21.338908250345433      10.084637638467607      1.4160778130431717
   147   1      19.884094482480084      11.751516109678224      28.351581035457571
   148   1      21.291087291041599      12.714776429081049      1.0959654603817968
   149   1      19.852681830910157      14.276297804298668      28.325524803965891
   150   1      21.312726511002491      15.778418223284795      1.3987668042641521
   151   1      19.811378355923146      17.060555103107621      28.255722916655884
   152   1      21.380284540629042      18.707839016446339      1.2924437198599878
   153   1      19.878755987434186      20.508975116484514    0.030096837990356499
   154   1      21.508881012901398      21.632092929986293      1.4440906076229898
   155   1      19.956375898878107       23.04504785846061      28.567309613059937
   156   1        21.3803872393541      24.480455556118656      1.5172607480072204
   157   1      19.911871758397378      25.959385609508558      28.322669991481533
   158   1      21.412303341799142      27.094349717217408      1.4146509815788129
   159   1      24.669587364437348      1.3722905801579144      1.4006531579855281
   160   1      27.189463717571176       27.49848194345271      1.4086539557417139
   161   1      23.053282158262327      28.585980608695365      2.8446756194125533
   162   1       24.44226498968796      4.3284462076825738      27.308382212278179
   163   1      23.039452885934182      6.0290002115035373      28.659242461883188
   164   1       25.95786997975415      5.6719806997854842    0.010213798022596166
   165   1      23.064266281875664      8.7620559689774247      28.631241479856669
   166   1      23.117900051071455      8.6872043943427766      2.7700999535517221
   167   1      22.972173991072889      11.549540412257635    0.048832125579099314
   168   1      24.141336920775775      13.156250639138216      1.2989055516837316
   169   1      22.863182234606331      14.580960370211834      28.532434365689276
   170   1      24.349774394496816      15.812656298025997      1.2173036806540507
   171   1      22.548850204031719      17.166418894297649       28.64953637928518
   172   1      23.085893949693222      20.020304241336778       2.625012571998194
   173   1      22.734140548004596      20.199850579412921    0.056877049079480518
   174   1      24.392469817609097      21.360769721183367      1.2169461255995757
   175   1      22.927277564141221      23.095332577181704      28.693202873193357
   176   1      24.269002501432496      24.319145141366437      1.2555144490771457
   177   1      23.017423584227416      26.010232836632845      28.672803208644869
   178   1      24.756326169676491      27.448461084129079      1.3222078857296431
   179   1      24.403689855347601       27.37143255893929      27.248600301177902
   180   1      27.457294314908012      1.2969967578373816      1.2640420264538417
   181   1       23.05637964494079      5.6587029190598495      25.903202635610029
   182   1      27.391072559972947      4.1156013000506633      1.3619899436306138
   183   1      24.543177704052962      4.2348229620943485      1.3704041768417934
   184   1      27.156596854634937      7.2515634748690774      1.4049431297355448
   185   1       27.18172921365214      6.8532337208826393      27.031058933148827
   186   1      25.859426008226777      8.5749845605571817     0.13560476904268623
   187   1      25.733872125258976      11.789807308628749     0.23182225023906525
   188   1     0.23393731656305428      11.532285485935299      28.636414860385287
   189   1      27.409185979569063      12.912822295026874       1.349401530394378
   190   1      27.354032658170414       15.90270587943831      1.2342698529316534
   191   1      25.893759255367293      17.297886663644832      28.555429464637399
   192   1      25.967069243349368      19.866177061216089      28.487184834221466
   193   1      24.379584840379191      18.652497891803591      1.1903103398273276
   194   1      27.296412183354388      21.419407699005141      1.2803386283292171
   195   1      25.792071222088534      22.638116437963067      28.523585293790493
   196   1      27.056368729775397      24.383870465508622      1.3682528571760832
   197   1       25.86163735765702       25.92411842028725       28.68705679401592
   198   1      28.581211180302017      25.864378072444065      2.5208196407670012
   199   1      25.978724028782153    0.046820683284375005      2.9964007315753407
   200   1      1.3986738871010844      1.6184370564573658        4.30313281527705
   201   1      2.7408939418949556       5.641440253676441      5.8889047722748131
   202   1      28.615381248910001      2.8660574677681887       5.656530683945423
   203   1    0.083915664042843383      5.8324062256642684      2.7913358937467256
   204   1      1.4481586616976436      7.1066042516666474      4.3278746829904433
   205   1    0.013020975515201596        8.45789889943884       2.591700075718939
   206   1      1.3585098314729172      9.9717977802761819      4.1956859559581012
   207   1     0.16810092876998028      11.605375455166079       2.968499198087073
   208   1       1.425971295632668      12.957180248304738      4.5924990621013775
   209   1     0.12459301496948101      14.495187158877204      2.7073029726336233
   210   1      2.9193023233114324      17.319053072482191      5.7139095907830439
   211   1     0.23526112820898246       17.16536637560008       3.007448386567428
   212   1      1.4180218544922376      18.806237081800962      4.2118225223320858
   213   1   0.0014175063828602559      20.193663592637279      2.8066080717184723
   214   1      27.260242073668767      21.379992011670421      4.0369415729834328
   215   1      1.4508926499786301      24.584586139676997      4.0702101215310051
   216   1      3.0036662375640417      25.867038271260387      5.7940136434436456
   217   1      1.2436234744151891      24.444600573108815      1.1502220022501444
   218   1      1.4526523609545641      27.154475168479301      4.2116119998065891
   219   1      2.7886358827055577      28.641299388426862      3.0353797584214499
   220   1      4.1414964698310124      1.5201798545640939      4.3828544851203111
   221   1       2.895979916927498      3.0152863161987251      2.8983156242732249
   222   1      4.2821606775303716       4.224338823349032      4.2877208401799436
   223   1      2.8263790425037554      5.8563704142531714       2.686889840449123
   224   1      4.1628357181334525      7.1346608584964128       4.371798171446768
   225   1      2.9791793245343081      8.5085911649109551      2.9115414024310984
   226   1      4.4220184477532012      10.259000883443704      4.0043643108928224
   227   1      1.5629373991384674       9.811720069376527      1.3903202020728831
   228   1      5.6071195203442299      11.467162422670661      5.9864394274803301
   229   1      2.6776192574914841      14.495376845987501      2.9800066484498702
   230   1      4.2830566759075257      16.001477218249622      4.3455982839245273
   231   1      2.9077151964309844      17.280321490063344       2.764170382677285
   232   1      2.6927934913212335      20.041606774495332      5.6842157860270319
   233   1      2.9617793020478436      20.226435717712313      2.7282269201933098
   234   1      1.5376781007470319      21.438381147099996      1.2941774304411633
   235   1      27.261023786619436      21.584540580391938      6.7905950276394025
   236   1      5.6797109081502422      22.916731304899585      2.7212770505267709
   237   1      2.8861954170926039      25.689023881068572      2.7898419148038682
   238   1       4.506455608078463      27.220592161055205      4.4026023217184855
   239   1      5.9077073569615903      28.546540348994416      2.9178266203783441
   240   1      7.1445898910044914      1.4555394302157889      4.5394888305869197
   241   1      5.9869586270039514      2.7495023311924793      3.0041049245787903
   242   1      7.1748663431218187      4.2861431426334349       4.429312480649644
   243   1      5.8612771925550513      6.0163655986796245      2.9398055944722605
   244   1      7.0394202406513262      7.3351964867861605      4.6044375951328353
   245   1      5.6742309597265095       8.544392326942102      2.7432650800242069
   246   1      5.7235981100493944      11.524437058221928      2.4875506592638201
   247   1      4.0197364521489813      12.965624989590191      4.1332449708486969
   248   1      6.7847559318794683      12.924090188083412       4.547749292126178
   249   1      7.2742092057769465      15.847911112565292      1.6492997920237698
   250   1      7.1536012607538373      15.428953086738316      4.6912616093662507
   251   1      5.5758246588608475      17.381245167917967      2.9332815261135594
   252   1      7.3075813456505863      19.006778850781657      4.1403480118133951
   253   1      5.6879657997981843       20.14438397756004       2.777734062588082
   254   1       7.360966912836556      21.348297193207134      4.2929760887054362
   255   1      4.2990811719407516      24.225127269903993      1.2690116445226738
   256   1      8.5231688200618585      25.782186778973529      5.5906255182466218
   257   1      4.4019009429688634      24.258628798293767      4.1835094935059347
   258   1      8.6576250303508466      28.546982330506584      3.0746998561703895
   259   1      7.2121479663626005      27.314689250179516      1.6254260846508373
   260   1      9.8915206180124695      1.2827220053716004      4.2350287713537931
   261   1       8.637509702883543      2.9888727285307577      2.8064936231627917
   262   1      10.196737450905571       4.536605180087312      4.3084234367625438
   263   1       8.552774228773842      5.8324117666438049      2.9510340755172346
   264   1      9.9823446100825226      7.2290944277956735      4.3788986789454265
   265   1      8.4650651657533196      8.3878855042960438      2.7394643606760027
   266   1      10.040150068880354      9.7726364024255616      4.6164279455152313
   267   1      8.5430624858866775      11.479106670625438      3.0152019442365163
   268   1      8.6896969875743988      11.477854524689462       5.819377973284908
   269   1       8.610931860574917      14.341215619605466      2.8465670648144279
   270   1      10.235209053945825      15.888179572589509      4.2052665437381558
   271   1      8.4076577613634917      17.114102494984134      3.1761324551680152
   272   1       9.986207087640695      18.650386448317114      4.3007026616774082
   273   1      8.6194526507409535      20.326818941366522      2.6736262016816448
   274   1      11.198551053448369        23.1545286774072      2.9168149305522402
   275   1      8.7301891807973373      22.815230607307161      2.7035187385790205
   276   1      10.140537814603105      24.539687575577226      4.4610722475897679
   277   1      8.4623984778461985      25.549522163381702      2.9307863410539619
   278   1      10.209473429076922      27.261441556821641      4.4752301470291407
   279   1      12.989694576620261      1.4081184333472838      1.4550711399992005
   280   1      14.465864661361541      2.8846369158940748      3.0258012898346696
   281   1      11.600141265662794      2.9128889222940191      5.7214463497017496
   282   1      11.615720518236238      2.8818964440560375      2.7428354443670955
   283   1      11.688361364539812      6.2072269713967225       2.858017464056831
   284   1      12.826006214670542      7.3311736559743785      4.4173208392115848
   285   1      11.548972831307069      8.6965511043775567      2.7060541305886785
   286   1       11.26997197922576      11.363746888918007       2.834238328105823
   287   1      10.066299790064013      12.898685250357696      4.2163523027717353
   288   1      14.697990415279444      11.477056647089899       5.635022696100509
   289   1      11.458508966310891      14.481033588442541      2.7785230692373952
   290   1      12.954615113020738      15.980753221840782      4.4562186341900949
   291   1      11.430610194404903      17.576153912924042      2.7681951523956627
   292   1      12.672019111441811      18.795319641906286      4.3022636257086049
   293   1      11.186254146791356      20.231168212718785       2.644943044815069
   294   1      14.364244900888899      19.908094964788038      5.6318002374322447
   295   1       12.83844314313343      21.555849754516842      4.3366499622367973
   296   1      14.269437218862599      23.123828847142171        5.55456607357754
   297   1      11.439431924312336      25.838689753044076       2.987568258855362
   298   1      12.879215109128625      27.297951916621969      4.3638192286073565
   299   1      15.870988209634538      1.1273525946750411      4.2296677839746479
   300   1      17.245733882328771      3.0449069747502486      2.8517746613962451
   301   1      12.754565102235977      4.6399286741971979      1.5624657943842759
   302   1      15.854488155813057      4.4245436955229778      4.3837932743533976
   303   1      14.523509446141942      5.8717155745155187      3.0099429483091455
   304   1      15.832423453490735      7.1263120527559467      4.4038667511669845
   305   1      14.360654925493659      8.7935870115231758      2.9689125138033923
   306   1      15.871777031983905        10.0240354206499       4.284928229590891
   307   1      14.509156179261293      11.636002947810221      2.8948390044078813
   308   1      15.723629027467936      12.848925342035761       4.417737691111614
   309   1      14.385620114974914       14.39371789800763      2.9445011408838915
   310   1      15.748724521242124      15.787573425618749       4.364344918882515
   311   1      14.226075922688617      17.131915976587496      2.8755601397289481
   312   1      15.884567462448945      18.960086728880722      4.1654498999556484
   313   1      14.207150746191171      19.869285251230377      2.9717292904243595
   314   1      17.297296265300112      20.177512107990758      2.6094637496646538
   315   1       14.21232590378926      23.029890747494296      3.0790737241287021
   316   1      17.402316111577331      23.023553394189378      5.7745636737584229
   317   1      14.221022557874395      25.718079238383407      3.0962019450922087
   318   1      15.638867447085264      26.993326543244557      4.3262826640669916
   319   1        17.4261371588867     0.12383321818018671      2.9749099115912823
   320   1      18.822284144676992      1.6170819549510052      4.2823334807162627
   321   1      18.807091480924058      1.5629051717154883       1.606826716831075
   322   1      18.669164754421232      4.3174209165863777      4.3790045905160202
   323   1      18.684816292792302      7.0866838749794985      4.2711703405241002
   324   1      18.716471400592322      4.4413891193939845      1.3850070735649973
   325   1      17.380455504807149      8.6706954424342548      3.0554122317313261
   326   1      18.805557256898663      10.131952955399067      4.3213489710716271
   327   1      17.269341476758139       11.44961511866677      2.6511857321613421
   328   1       18.76696980727576      12.836905166136546      4.4299392975584109
   329   1      17.138089968335688      14.376220210359422      2.9663135652456507
   330   1      18.670392570209128      15.904733913988148      4.2203360391251437
   331   1      17.170994162617504      17.142128835814191      2.6534555963932349
   332   1       17.07868677165828      17.372882479534617      5.5108426852389849
   333   1      19.865134109534281      20.088027102038467       5.760450595975418
   334   1       20.01819513013784      22.759674302846438       5.597116963615294
   335   1      15.435568969132616      21.478888257802609      1.6766633391037884
   336   1      18.469088313052978      24.474705398013274      1.3481342020057128
   337   1      15.655657260152125      24.353176864953859      1.5812268511844758
   338   1      17.127642499710706      25.782117876310856      2.8459334521692639
   339   1      20.065544288811086    0.014080455024623195      2.8651700778578171
   340   1       22.92602042262433      5.8340370576904981      2.7828525260272268
   341   1      20.215073571765895      3.1490970660851221      2.6032424732283843
   342   1      21.410026050923701      4.3847551560455118      4.2044510560459596
   343   1      21.664146533959507      4.5536323697957481      1.2911521294670365
   344   1      21.426627921466824      7.0379803270457009      4.2977734590006182
   345   1      19.988911303619698      8.6828785043842291      2.9106765610526506
   346   1      21.385014518010454      10.122186738376946      4.1683754826172903
   347   1      19.958328314484895      11.636025856993827      2.8483370449861578
   348   1       21.28578896891463      12.991577775597003      4.2250614425756385
   349   1      19.945811742057437      14.291116734293663      2.9206823944771156
   350   1      21.432106516502124      15.868189092312699      4.1012479273537448
   351   1      20.062262231966773      17.163569508129452      2.7880767704592135
   352   1      23.108478947667887      20.093986873010333      5.6647762442831837
   353   1      19.968760596513434      20.267262532070728      2.7595590359546236
   354   1      22.725818071641719      22.795289681833086       5.658253590885427
   355   1      19.937236495542031      23.077186229698796      2.7282687454493146
   356   1      21.351678057895736       24.33826480452532      4.1721971218451088
   357   1      18.438278834373957      27.418775511611504      4.4359709479838072
   358   1      21.599097572384547      27.281075110288707      4.2305347322488576
   359   1      24.673321182394851      1.3390036299920671      4.2640177759263285