dump/Fe_1350_5/steps_91 (written by ASE) 

1995 	 atoms 
1  atom types
0.0      28.699999999999999  xlo xhi
0.0      28.699999999999999  ylo yhi
0.0      28.699999999999999  zlo zhi


Atoms 

     1   1    0.048380887556688179     0.06598695614030882      28.659087125909792
     2   1      1.3217818595553121      1.5952682585721036      1.5565082882674226
     3   1    0.005631806302894447       2.950748792700141      28.646827817866711
     4   1     0.93596582157712227      4.3782514981076419      1.3189719498979333
     5   1      28.563466534553612      6.0074597210989893    0.021731736117828842
     6   1      1.4893990058748503      7.0117627491949772      1.4737457767699427
     7   1      28.608197288195072       8.533294561852534      28.620029637043078
     8   1      1.6646991003095188      9.9393040037656686      1.5047599319317444
     9   1      28.611603967743505      11.529487408168281      28.429815157879691
    10   1      1.1829704531948095      12.910758001523247      1.2225436129385348
    11   1      28.591234314382152      14.414720532382637      28.557459147737802
    12   1      1.2113278461527439      15.734860593420315      1.4039457611069208
    13   1      28.572277694965777      17.209704285458244     0.13556964152124912
    14   1      28.658004580746979      20.165088953127572      2.8694055225467876
    15   1    0.013678210643662495      20.126335881585831    0.011697124487102412
    16   1      1.4880594717285927      21.453080679962515      1.5361012321571366
    17   1    0.068854732480839648      22.991800992379005    0.094063974852633597
    18   1       1.350248150281381      24.232709659561849      1.5847230553559606
    19   1      28.684424176975032      25.758710799410878      28.672378762833233
    20   1      1.1519105703785175      27.158913607420104      1.2931448577096378
    21   1      2.5003745485306688     0.13204854091774224     0.19290954533103097
    22   1      4.1926230644634428      1.3884492301620082      1.5867935675969995
    23   1      1.1242401611809336      4.5756900471365034      27.243760319161723
    24   1      2.8787973771388793      5.6765556434718327      0.0700162376982916
    25   1      4.3971061294101084      4.2518699061243126      1.1893256757477715
    26   1      4.2805394135248669      7.2152841703900972      1.0964049433759224
    27   1      2.9445488290644031      8.5755778854389195      28.656094891945489
    28   1      4.3579551584048151      10.099564783134877      1.2404157759394712
    29   1      2.6913230428112116      11.476917223005094    0.062509953073981619
    30   1       4.432655116340861      12.814132332739941      1.2191919810442524
    31   1      2.7768269130378256      14.282142259208138      0.1549619799711309
    32   1      4.3038512366249151       15.94807848355744      1.3463254462437464
    33   1      2.6372859867985885      17.011090866661213    0.063136571496090574
    34   1      5.9530253406934568      20.226979427745768      2.6733717436176092
    35   1      2.7312058059862037      20.061079533038175     0.13408508265340507
    36   1      4.1559758719364339      18.667009241372906      1.4150313392044946
    37   1      4.3428076418162149      21.734967219311542       1.501316586476888
    38   1      2.8296585262192964      25.814347240227146      28.697722499358349
    39   1       1.406751238830968      24.427271461748266       27.20920354486092
    40   1      4.3026472745656061      27.448207172556739      1.5363161701126493
    41   1      5.6649963607981118     0.14211614855623794    0.058848632145293261
    42   1      7.1677264174122799      1.6818470577861033        1.35780637359736
    43   1      5.6351700093325254      2.7946518805788179      28.582738993721964
    44   1      7.2930924605076699      4.1538860427114646       1.209216217283051
    45   1      7.1146086653855667      7.0173337186310603      1.4027181161566327
    46   1      8.6326047149650353      8.4574660035046954      28.697489373689638
    47   1      5.8818271236472013      8.6428836326217908      28.690717946191967
    48   1      7.1982053779128226      9.9894415298124049      1.3877784696163877
    49   1      5.8539747056925302      11.357399289782286    0.081702341890218175
    50   1       7.292062791290788      12.927461957457773      1.5205179764458865
    51   1        5.72941993408008      14.414441715066214      28.689678533773961
    52   1      7.4043438221641873      15.727740879318679      1.2220864530619913
    53   1      5.6275271938732123      17.216856829931004      28.581256048549704
    54   1      6.9789664040917376      18.487977737128663      1.3371508234914369
    55   1      5.6134508105217868      19.955828755240471     0.26019035176635741
    56   1      7.1271048870233544      21.567578654775414      1.7187777365344235
    57   1      5.8286225807495819      23.005448601122946     0.34195937650408575
    58   1      7.0529274352362297      24.701546943163819      1.5231828156533664
    59   1      5.6636253060094743      25.974241814950613    0.071071752698333074
    60   1      7.4022604930583187      27.446348344562203      1.4384328712715715
    61   1      8.7024739311202151     0.12873789641538438    0.020758087227147819
    62   1      9.8012659729977685      1.5449398731062034      1.4778977894084941
    63   1      8.5909909074354562      2.9963111993874594      28.576617307301124
    64   1      10.022044685019772      4.3079177097952552      1.5241542614508039
    65   1      8.5089413100731406      5.6361637738750447       28.44267406330167
    66   1       11.64815824152484      8.6818875348710858    0.065404304530807131
    67   1      10.029738903302777      9.9418427125120754      1.4653262516460022
    68   1      8.6511515899990954      8.3166132802599755      2.8287720133887415
    69   1      8.4588111450841659      11.584910833774916   0.0051961392492557877
    70   1      10.140541288111443      12.930434149503231      1.4544215968788197
    71   1      8.7164825505174033      14.205685450712306      28.496143555756152
    72   1      10.164535514789369      15.856474369792288      1.3851331267267923
    73   1      8.7674196779955071      17.368599635296775    0.054855972972700243
    74   1      10.175719336992296      18.909877007598983      1.6357442709870729
    75   1      8.6072733179276018      20.151272168528095   0.0058583125983659515
    76   1      9.9420588659075797      21.402394438483579      1.4918114005812981
    77   1      8.7208583905651338      22.995623062634099     0.17887377122789314
    78   1      9.9754982249632729      24.317199434643261      1.5612290235895891
    79   1      8.5043803568591123      25.675458288911624     0.16425009957551981
    80   1      9.9772296228272346      27.233376186303353      1.4810058715248362
    81   1      11.541081230744025    0.034299054196185216    0.061784633253569178
    82   1       12.92987983844923      1.3236391466965416      1.4714236617388115
    83   1      11.446222170254183      2.8366594737269115     0.04126235213617524
    84   1      12.817519699857705      4.2510351247381255      1.2216164443743982
    85   1      11.507227460792761      5.8962600415955437     0.14093103068960311
    86   1      12.857222135279725      7.2531197796435469      1.5261370558331333
    87   1      12.897654758305244       7.296740669639397      27.477594551790464
    88   1      12.977524011606597      9.9778447444334795      1.4105006451252169
    89   1      11.474193488819619      11.535552704915808   0.0087643368377712302
    90   1      12.916289774423895      12.894851418238725      1.4837839268944426
    91   1      11.485047858987565      14.446669650666845     0.21257737905854135
    92   1      12.847699723791072      16.141721678211752      1.4555807390567101
    93   1      11.501099359993026      17.486337964118711    0.092227092882376474
    94   1      12.954423414249662      18.736248686831303      1.4853192450517425
    95   1      9.9759187443784469      21.653389010225617      27.331804220386132
    96   1      13.030185453937962      21.749732480443409      1.3157703470961457
    97   1       11.54907745203082      23.116317550655548    0.097128281174445899
    98   1      13.018342428729447      24.527122059357538       1.461658758367298
    99   1      11.359922051729606      25.698428343689198    0.035020275219653653
   100   1      12.846329703855554      27.265838367727142       1.398513148685526
   101   1      14.322548261950221     0.10517461724087028      28.662375465423072
   102   1      15.842446504210944      1.6918619577370235      1.3796703132421728
   103   1      14.272133697181918      2.8933437557057506      28.668207472419954
   104   1      15.950879522375528      4.2483802475228778      1.2864202625682193
   105   1      14.303107975397722      5.7012487367068729     0.12766050953196087
   106   1      15.773032013117382      6.9580928574668617      1.5943596209967477
   107   1      14.504182791172809      8.5094547670863747      28.652768143338992
   108   1      15.702117953929296      9.9499192726575814      1.6768654396061047
   109   1      14.320805010031641      11.430150161227401     0.16380311648214263
   110   1      15.661345432381566      12.951574281977186      1.8437059059754233
   111   1      14.051820281925682      14.504094186974392     0.20549428586423332
   112   1      15.857912707583605      15.734630745760413      1.3067381979116806
   113   1      14.358056580689986       17.09826473384263      0.1667739542517212
   114   1      15.963355499173661       18.61191204482142      1.5608774853990783
   115   1      14.288556764961561      20.174696479957998      28.534520095587098
   116   1       14.37478758016969      22.895548627696705      28.589845433556533
   117   1      12.841142246933362      21.478474255368738       27.45129723699155
   118   1      14.399344393936792      22.910531745160803      2.6257159065524984
   119   1      12.914512438561731      24.611909569867095      27.313896019051356
   120   1      15.783758730128518      27.616652068102681      1.3212881768809324
   121   1       17.38769790848314     0.35028329628289684    0.024481416326568691
   122   1      18.605322139032719      1.5533319617118411      1.5528720454800333
   123   1      17.358778004948963      2.9225801913769707      28.640597889791753
   124   1      18.953137792639527      4.2996480137631963      1.5016024361847597
   125   1      17.328097019871755      5.7689212460717627      28.514362302892525
   126   1      18.746309189092539      7.0523081942381607      1.4932769177878311
   127   1      17.199495393945028      8.5940065665416494      28.643922529213643
   128   1       18.77255828305686      10.121795209156229       1.339472933021467
   129   1      17.125157202851575       11.51804147770615     0.33593947649989031
   130   1      18.734751290200311      12.976798256706473      1.7900900625591687
   131   1      17.477395905043423      14.354802200643972     0.10161342630998443
   132   1      18.840584270132265      15.746846324189178       1.451400060413472
   133   1      17.467247683823949      17.286653812190092    0.016950884723223678
   134   1      18.699042850685863      18.842439421495342      1.5568932710795484
   135   1      17.322753257602788      20.243508305214718      28.445166276009449
   136   1      17.236478947286816      23.252506242336242      2.8874205967631181
   137   1      17.224254926321574      23.123448382936711      28.633522107159934
   138   1      18.937163505025403      24.538345546123512      1.4665052451357483
   139   1      17.691044548190973      25.915345493146756     0.21852796524004819
   140   1      18.811134856385511        27.4231066709694      1.6776358861982439
   141   1      20.199399183558519      28.616326738270917     0.23900498442698118
   142   1      21.652735863991477      1.3216619331946735      1.3633997503345201
   143   1      20.390027409964709      2.9019415934796018       28.69538440478583
   144   1      21.854591700108632      4.4413141326893211      1.3809765166683288
   145   1      20.191554263028966      5.6957494178935102      28.685171035857298
   146   1      21.686785494492813      6.9503403603520617      1.4030743134635713
   147   1      20.065921726063202       8.360286844737745      28.626769541062988
   148   1      21.489320123440869      9.9771789462957603      1.5315764216363608
   149   1      19.881315953562225      11.619538237531213      28.566493970335209
   150   1      21.185335172980835      12.834114283379501      1.5283289050725328
   151   1      20.143845904886316      14.255841295022256      28.684210100879952
   152   1      21.817485791604653      15.595815743222884      1.4098623007040592
   153   1      20.353947776755806      17.268783248192292     0.17615998242366698
   154   1      21.392155229558526      18.934367466914082      1.4938187244793657
   155   1      19.810439560787639      19.908016841555003      28.578641226560499
   156   1      21.494571618329296      21.578340189588793      1.4237349772837655
   157   1      20.151334751319229       23.01525771288243      28.637065004223658
   158   1      21.592482389018382      24.169986671818823      1.3756365492196769
   159   1      20.230630726874871       26.18323170644625     0.39784692633276042
   160   1      21.864010321702999      27.318584483331641      1.4626988757778809
   161   1      22.991366237163916     0.13663826226248993      28.468243377219199
   162   1      24.423889662110618      1.5326522784370364      1.5384594551260549
   163   1      22.951482992662147      2.8465406595242499      28.452436203642211
   164   1      24.392617527615371      4.0887538703667667      1.4778158828728925
   165   1      23.139454473517841      5.9330584123611825      28.672683785326676
   166   1       24.42474538412463      7.4606614380344904      1.3269546610407925
   167   1      22.790199332797382      8.5682706065917227    0.018510596630642338
   168   1      24.211207581312674      10.006152802374974      1.2848636553277981
   169   1      22.727901769053851      11.544949188113776     0.14083376151252197
   170   1      24.072993047336347       12.94777709458082      1.6114480841819721
   171   1       22.73230647061721      14.153741893919557      28.630125983626428
   172   1      24.481191684846443       15.65692012942494      1.4814682400504349
   173   1      23.091452375208458      17.192232689566804    0.029189076861837294
   174   1      24.470817457200827      18.664409449547893      1.4427486072931501
   175   1      23.062370194937408      20.117456577529239     0.10880751088526495
   176   1      24.450875636110894      21.514806234257883       1.465199963454052
   177   1      22.887013725352212      23.023561751285836      28.501811275432075
   178   1      24.460821095123244      24.420177540911549       1.329434091696295
   179   1      22.822674168483765        25.8080563185937      28.636929509807928
   180   1      24.409172095081217      27.135747777672741      1.4502569961670706
   181   1      25.773074866229379     0.17495409684846649     0.03456706796280299
   182   1      27.354651987316636      1.6243753021478702      1.4892490978294297
   183   1      26.010067556069416      2.9268321544183564    0.018399427090332651
   184   1      27.273243256682658      4.3390173488106196      1.4726995288842757
   185   1      25.764538436030634      5.8953831409217434    0.018760644305689321
   186   1      27.249756675672042      7.3249288185164083      1.4367397343022605
   187   1      25.688754385309782      8.6091342607595553      28.562412314552322
   188   1      27.408498726855107      10.023327031679665       1.473162438514658
   189   1      25.758978095534996      11.407303319291131      28.618971543533881
   190   1      27.336865225616869       12.87132894352658      1.3488778542890936
   191   1      25.939203180111601      14.150994119587969    0.028807878318082084
   192   1      27.252801243359958       15.45421283600799      1.4732253197291136
   193   1      26.016977471438466       17.32411853839163   0.0054551230459537635
   194   1      27.008109991422376       18.73741199295473      1.4216385335879285
   195   1      25.790371118878049      20.105021078837183       28.64209317654317
   196   1      27.255107691153047      21.552527939277564      1.3227618775044325
   197   1      25.845637126646203      22.822935643431073    0.052312337425496389
   198   1      27.277422926731937      24.385034852291778      1.4044394827164417
   199   1      25.782071878701064      25.939715699927689      28.583440734495269
   200   1      27.201226824794389       27.26232804508323      1.4478972533280048
   201   1      28.630420644379313      28.682977688078388      2.8648426987070241
   202   1      1.2614148822160254      1.4893242019496602      4.3340083478345273
   203   1      28.532864764844451      2.9170781694933092      2.9873194769165323
   204   1      1.5448452387576821      4.2336236537058554      4.1615481507880032
   205   1      28.412995382587468      5.9038421980406497      2.7762503484003309
   206   1      1.4928041805473991      7.0709828119018567      4.2383235843583309
   207   1     0.35363795430828482      8.5819216240413176      2.8090890809257982
   208   1      1.6010876485774941      10.358935751848438      4.2206364403263317
   209   1      28.560691927289724      11.604958353556531      2.7932622284716895
   210   1      1.4665783559909322      13.128606620946231       4.187053262520342
   211   1      28.594503040292498      14.160557674636523      2.8449040321137526
   212   1      1.4799758334470108      15.865103718292831      4.4039019463036766
   213   1      28.495973212174395      16.885755827760487      2.8254308708093605
   214   1       28.53830118194637      17.383785251081601      5.7377128988609076
   215   1      1.4917006034746927      18.658734099018798      3.8933265821550096
   216   1      2.8949749214002161      20.263827474067618      2.7116950906819515
   217   1      28.637476103014027      23.021129468185656      3.0041637612210046
   218   1      1.2641729046330195       24.29889873808164      4.3062743808228978
   219   1      28.542504867894138      25.668587685767509      2.9857987458465653
   220   1      1.2468370567789548      27.122649930927555      4.3355452480511785
   221   1      2.4894834225935467    0.069975356612053646       3.027633365855424
   222   1      4.2512290822431957      1.6774465269516328      4.4725440826700851
   223   1      2.6931637686712055       2.892844281079582      2.8475436592936934
   224   1      4.2961965275428362      4.1775785071289295      4.2012117684805732
   225   1      2.8749566952643804      5.4595498273623901      2.5779216756714503
   226   1      4.4504975492067853      7.0038708586592806      4.2568953206937188
   227   1      3.3224962779882063      8.5929747320409842      2.6927495474364034
   228   1      4.0314849537553554      10.184921500640288      4.1515776614932944
   229   1      2.9892650862545507      11.727082219853257      2.7118305232902218
   230   1      4.5297216995499276      13.031806488991936      4.0997406847495865
   231   1      2.9832643363871347       14.39771960646925      2.8749696547695853
   232   1      4.3839424932211015      15.700162229491555      4.2352717294174491
   233   1      2.7901276294378361      17.284195241577503      2.9526578293062573
   234   1      4.4143850535141969       18.86000135683032      3.9318796589383975
   235   1      1.2873996216283004      18.529743240966198      1.3804143239226387
   236   1       4.276789869892319      21.556764145213258      4.0293450413021583
   237   1       2.710062150184037      22.977444629771473      2.9059844070880412
   238   1      4.3465848729099514      24.410326499163055      4.1577225690323747
   239   1      2.8372756478283008       25.94411291133034      3.0251547744898475
   240   1      4.2484582078795734      27.489553226081931      4.2446798266575891
   241   1      5.9350532004954859     0.24904433724038894      2.8554183392158836
   242   1      7.2197306288437808      1.4276060158413093      4.4002709626867116
   243   1      5.6570153835201999      2.8288407110652307      2.8364636080280992
   244   1      7.0793403239771688      4.1256832504897156      4.2479415522238444
   245   1      5.6859123118575532      5.6199052604579585      2.7672845797931935
   246   1      7.1073347215099094      7.1155700531270591      4.2431412246233187
   247   1       5.698157628245526      8.6462773658255809      3.1024394245203211
   248   1      7.3484201684599491      9.8637593976372298      4.3184044008950284
   249   1      5.7942758285975149      11.179415989234906      2.7682740160293058
   250   1      7.2961776408926919      12.988549949069153      4.0669170029407438
   251   1      5.8006309410338535      14.446946185195861        2.61708528965654
   252   1      7.4988310733745758      15.874100125858719      4.1103051918755895
   253   1       5.800453594567907      17.338066179997885      2.9300898719558237
   254   1      7.1202220804426712      18.846845430239192      4.1662386218397431
   255   1       7.118691677382472      21.626341582331342      4.4172489816286866
   256   1      5.7797186876738316      23.189876883173344       2.909179945434496
   257   1      4.1646515311494792      24.423436427348232      1.5202826916454346
   258   1      7.1881302068504125      24.533329450560259      4.3825126315340679
   259   1        5.65229816576087      26.030220416442507      2.8299108850421351
   260   1      7.2769366972114735       27.29695489906868      4.3159373480538301
   261   1      8.5347855313013774     0.17314355906570447      2.8190929796200521
   262   1      10.172323725583306      1.4416132313156484      4.2590608252300832
   263   1      8.5693135472680577      2.8443787405379237      3.0160551343995756
   264   1      10.096373094459874       4.101065039908292        4.28506993541576
   265   1      8.5364714719131456      5.5480815103314516      2.9473736583646906
   266   1      10.120928658442633      7.1794436342938965       4.339879576291481
   267   1      9.9705123578969541      7.0138059956476297      1.5503636587003704
   268   1      10.122931487209947      10.031680641777395      4.2199341552523215
   269   1      8.5805096241402712      11.397573240169187      2.6573067717231305
   270   1      10.098484533355588      12.895316359504825      4.3606085487500046
   271   1      8.8979257886801104      14.209697613208048      2.8166058118872446
   272   1       9.922814342063198      15.909870185154993      4.3813914823021456
   273   1       8.914055445563017      17.406233969249033      2.6993227400338808
   274   1      10.017891234482713      18.880244151673192      4.3845193140513405
   275   1      8.5309753901521219      20.185947608385064      3.1448986565044508
   276   1      9.9256115800900027      21.670088652578766      4.4678569761193732
   277   1      8.6084473728932664       22.97000222600899      3.1202152860159678
   278   1      10.159991890651753      24.320840543461571      4.3585127382616156
   279   1      8.6642641805281357      25.825279119697367      2.8113807860835087
   280   1      9.9882781141531343      27.243785329038452      4.3372005766028545
   281   1      11.551586649541022      28.551884895114856      2.9247628908816532
   282   1      12.886954338839688      1.6267628390083135      4.3302005695519066
   283   1      11.539514355456319      2.8066901413359577      2.8167634583542482
   284   1      12.827663263154955      4.2597193831222011      4.1418551760709166
   285   1      11.399427037530423      5.6299682458759079      2.8955723784509511
   286   1        13.0607006333576      7.1263345240244513       4.052007422425711
   287   1      11.396091907586392      8.4601102296152302      2.9395372143701226
   288   1      12.886988684937164      9.9577344794640723      4.4011767165201006
   289   1      11.480712402502705      11.344785099892123      2.9625161452205759
   290   1      12.969370848329866      12.774354463115289      4.2431240063617945
   291   1       11.54315977811701      14.446528996730246      2.9334820334498897
   292   1      12.623639158563371      16.078478513811156      4.2205147050299381
   293   1       11.17650219755447      17.442074265446948      2.9869978532034129
   294   1      12.997263102615014      18.539498385285864       4.242829208528371
   295   1      11.761870205455786      20.317607869444995       2.707541297973763
   296   1       12.90830504481729       21.76181506824722      4.2336630986979102
   297   1      11.503981791306961      22.813385932631924      2.5955368006668187
   298   1      12.867910002204122       24.30921726479118      4.2392559007135562
   299   1       11.55090568358759      25.809687121173038      2.8303104564522639
   300   1      12.931167924470889      27.145285205944752      4.1934388517601331
   301   1      14.368627954639265     0.01117247720901576      2.8758733511649215
   302   1      15.913326975151691      1.5682900244779709      4.3551752213093957
   303   1      14.209779684450393      2.9221994595817704      2.7502569186051122
   304   1      15.815301316265776      4.0574442834397679      4.1329815723626337
   305   1      14.413202698118958      5.4222946828609464      2.8105543544524605
   306   1      15.788595591904297      7.1887458330767036      4.2401415131351703
   307   1      14.344346250051432      8.5635317591704077      3.0699347979486076
   308   1      15.857416574269665       9.984982731265811      4.5563436663367298
   309   1      14.343484205943909      11.215274686290881      3.1444481688211865
   310   1       15.72006738406658      12.915638714314419      4.3739823284040078
   311   1      14.318838592447857      14.342255682549935      3.0996924284608105
   312   1      16.039507942239521      15.843770839019454      4.4140017863605081
   313   1      14.427341607834421      17.003405954333097      2.8619960991827718
   314   1      15.959437858443115      18.518145800323229      4.2300687903598106
   315   1      14.485502304734396      20.303612436723068      2.7306697538056821
   316   1       15.72775152928466      21.729064899650513      4.3067141673858211
   317   1      15.739551133770938      21.542118840355474      1.2805743316147067
   318   1      15.678406874290291      24.618606907533749      4.1902396751430926
   319   1      14.339827681456889      25.979388229241476      2.8294258474563425
   320   1      15.924402382564285      27.380210396633405      4.1855279258048741
   321   1      17.048904542158557     0.18179557916816988      2.9612004747283907
   322   1      18.755288811815809      1.4967134241402495      4.5083540111762144
   323   1      17.367827658080273      2.9976658102517049      2.7112708324134913
   324   1      18.645361353813271      4.4160489592716416      4.0231604045800662
   325   1      17.100801209774815        5.79469275140824      2.8959247065878855
   326   1      18.849824993600723      7.1160563131776611      4.1654956902495854
   327   1      17.153968932736813      8.5537824507819558      2.9439533142678824
   328   1      18.648964474508031      9.8809829243446572      4.3026237499405733
   329   1      17.213712820897694      11.359363137695846      3.1179541328826086
   330   1      18.702468774736523      12.984294506721398      4.3138937176008305
   331   1      17.212050521119263      14.251089507770477      2.9367158885209941
   332   1      20.155634015832582      17.522216049356427      6.4854194334498132
   333   1      17.348531896419125      17.080330641405887      2.8923321104463824
   334   1      18.864441647913015      18.342323595688448      4.3439179314855956
   335   1      17.254961885518128      20.260465719226577      2.9780326336590339
   336   1      18.484353259624594      21.763300335576012      4.1918319435672666
   337   1      15.818563201324825      24.693240811062747      1.2523771241626949
   338   1      18.707977652790365      24.672698335695632      4.1706003354635435
   339   1      17.342727977165243      25.989284813238399      2.6890712372792902
   340   1      18.758298311000022      27.363280526815917      4.1791252868049602
   341   1       20.05269681287032     0.26867534365832174      2.9129629583196204
   342   1      21.564695744190253      1.5609541241047384      4.3782740928018153
   343   1       20.32512214318907      2.8527027003351217      2.7069629040536372
   344   1      21.559510524268429      4.3822562746503477      4.1944971645923053
   345   1      20.327267771603179      5.6812908208460646      2.7698774009983484
   346   1      21.604139023999132      7.1052732797988227      4.3284375943085127
   347   1        20.0801882566304      8.5159670897908413      2.7259024416462472
   348   1      21.384585176766659      10.095153071585816       4.483864325046464
   349   1      19.934581654478734      11.328890744564214      2.8182847126390111
   350   1      21.400319138440803      12.739940404683638      4.3000713042750105
   351   1       20.12988470117909      14.418512224299409      2.8700135838645782
   352   1      21.382790606417007      15.866992720660781       4.462322813730828
   353   1      20.422461454233449      17.088697690795559      2.7683765882551246
   354   1       21.55466649421815      18.684332456616414      4.3400748343730715
   355   1      18.512491826451114       21.47761818603491      1.3457858254569601
   356   1      19.929458595616545      20.235394860862701      2.7739477463926825
   357   1      20.200142445563881      22.981423526216041      2.7130757921642257
   358   1       21.40683402202874      24.223731575372021       4.511466461646731
   359   1      20.171032187432857      25.830292205169524      2.9020631261161682