dump/Fe_1350_5/steps_21 (written by ASE) 

1995 	 atoms 
1  atom types
0.0      28.699999999999999  xlo xhi
0.0      28.699999999999999  ylo yhi
0.0      28.699999999999999  zlo zhi


Atoms 

     1   1    0.028866853019646303      28.525098402443291      0.1837556827208231
     2   1      1.5669287520017616      1.2484247074069457      1.5580120997732827
     3   1     0.21727697973627935      2.7510775749606098      28.623823956109366
     4   1      1.4240780047058819      4.2060933276680981      1.3222459011727214
     5   1       28.50433738145199      5.5873098735464941       28.67563008202201
     6   1      1.4043820603989519      7.0565231149702186      1.3474063127728644
     7   1     0.20704033711745115      8.6736575229364909    0.010163959456338032
     8   1      1.5100361707940231      10.112437556755276      1.4714318761851251
     9   1     0.24423226606079479      11.459676783507145    0.026809980629116128
    10   1      1.5289308531167778      13.163877583746935      1.4128122166559254
    11   1     0.18165298923538645      14.461746491358745    0.058687449351020923
    12   1      1.3073829737044684      15.837953151428767      1.5758474602848522
    13   1      28.613886356857709      17.298232433258342        28.5548580092686
    14   1      28.666643173182877      20.029213283414634      2.7916928771108123
    15   1      28.637461566541081      20.197071550704027      28.496896679425532
    16   1      1.2528850864532852      21.503656230487135      1.3889468005456924
    17   1    0.064730635481727403      22.775567744002871    0.062512986017839001
    18   1      1.3280999784515528      24.398892266231908      1.6077449473941794
    19   1     0.30865197851578846      25.707259656884027      28.556676071992033
    20   1      1.3971337453783585       27.12945258658096      1.4274763384749232
    21   1      2.6402189414353892      28.555451782974647   0.0088143728922659773
    22   1      4.3141239566905378      1.6141034729017638      1.3747607091393326
    23   1      2.7608374914988301      2.8742757217379635    0.006440698063534013
    24   1      4.3633373296740103      4.0861746507947947      1.4640794084846662
    25   1      2.9381901894236382      5.4711856818345757      28.428547326693295
    26   1      4.3422156500542712       6.930441579804751      1.3013494110263866
    27   1      2.8694238340951319      8.4937532748510556    0.059360724174075674
    28   1      4.1206865911270274      9.8239796139392315      1.4120079585715644
    29   1       2.800422096734374      11.618999591754296        28.6683449678026
    30   1      4.2015965850622221      12.899158151994932      1.4484537018307493
    31   1      2.9203208810049173      14.283605480641231      28.328802216037108
    32   1       3.977749916620108      15.717219448831813      1.3739121310723024
    33   1      2.7650960662866315       17.38422734822786      28.395643925465738
    34   1      4.1225814439718098       18.58853049901612       1.102963642195983
    35   1      2.7503087388403888      20.126126487363667      28.651694282659964
    36   1      2.7352364819592037      19.994422833491566      2.8570131179466447
    37   1      4.3555891698089964      21.506353886198781      1.7017772178461086
    38   1      3.0820986538633224      25.494867225577018     0.16074325891346472
    39   1      1.5719889967623117       24.08009441274579      27.209288396131885
    40   1      4.1456500505934599      27.463906916978587       1.441514997595799
    41   1      5.7744664305043942      28.619273096298954       28.63951547025863
    42   1      6.9965164099554125      1.4831541615029769      1.5184643079183726
    43   1      5.7649442272451186      2.5384653080472392      28.372129107875669
    44   1      7.1135092487736946      4.2340177641765049      1.2844859627410523
    45   1      5.8760337737091204      5.5945874097882093      28.569012367682234
    46   1      7.1511053739906023      7.0136043020930332      1.2168259991991823
    47   1      5.8551833727140066      8.6068135758386148     0.10536401329526371
    48   1      7.0753767462827151      10.153092399351129      1.4070350173545638
    49   1      6.0070481850803494      11.414790905103899      28.611580353136645
    50   1       7.044473296679552      12.788872620777255      1.5603848543192946
    51   1      5.7214497103037392       14.38787629580756      28.661505270063373
    52   1      7.2286355327653782      15.710997567953061      1.3803333336597587
    53   1      5.7808109046262031      17.199656212942262     0.13718190314392589
    54   1      7.4588499554685646      18.503716544561865      1.3565986863983874
    55   1      6.0098501104208362      20.240692881332862      28.576585496149367
    56   1      7.1607494763100252      21.555044187953403      1.6008292109886146
    57   1      5.8217718267018892       23.04123649290193    0.086135462646109384
    58   1      7.2655493929499322       24.48256197444034      1.2609828144945594
    59   1      5.5747533101736622       25.56142070621496      0.1003252927328277
    60   1      7.2278690304857998       27.22313328944443      1.4804262367278516
    61   1      8.6347400030931922      28.608621376278506    0.042899693061713276
    62   1      10.142751706612412      1.3729092814901027      1.3860906150422136
    63   1      8.7469731629022167      2.8162293196499699    0.069867308659684255
    64   1      10.036399850504749      4.2521716861833943       1.538381046514415
    65   1      8.7523133066830479      5.8066597035343177      28.546844748098213
    66   1      10.049125138743937      7.1288956672315864      1.5162616081544464
    67   1      8.4939874579042343      8.7253850357489089    0.092381267720418325
    68   1      9.8776585086538287       9.964542949788223      1.4011730456101539
    69   1      8.6422943956163465      11.472553878213352      28.634067741689808
    70   1       10.09892746303121      12.818605797271927      1.3923703173946012
    71   1      8.5477330675756455      14.302253255693532     0.24922259509136221
    72   1      10.037350981667743      15.712631989976533      1.6342920517960025
    73   1      8.7686252546085051       17.11745659690234     0.12926434070362797
    74   1      10.106532718555597      18.579404860919468      1.5835430538823618
    75   1      8.6639296326786877      20.157584131489536    0.031001143546211463
    76   1      10.102974247240715      21.378659702966413      1.3348235975161613
    77   1       8.556876505611676      22.795407866530656     0.14618880675587881
    78   1      10.230809133260502      24.718198702664061      1.5821830977420741
    79   1      8.9273905427376778      25.832167763494848      28.683306655386723
    80   1      10.074267482048187       27.27084442745095      1.5069140963977701
    81   1      11.576945869495287    0.077768348812617072   0.0049913778224094903
    82   1      13.063334000058946      1.5831916518816336      1.2132943843072099
    83   1      11.377564020325043      2.8969279838464566      28.555462976262493
    84   1      12.860889378323577      4.2448351807379519      1.2839135642775781
    85   1      11.421567256242353       5.783135462423731      28.608772680424185
    86   1      12.679859649485923      7.1205528261729167      1.7607156977356344
    87   1      11.425417448676155      8.6221820771503772      28.695024128961951
    88   1      12.741029576998233      10.151527165525533        1.45717207505071
    89   1      11.300698110530849      11.424541453830834   0.0046718658013560222
    90   1      12.695702170855181      12.906155163275219      1.3211863670340318
    91   1      11.252543584547588      14.296777062942903      28.668649579465569
    92   1      13.072879044517842      15.744706325297555      1.3662187094342795
    93   1      11.579356051519085      17.343402760187359     0.04753440090009918
    94   1      13.150791179247078      18.720794124334173      1.3906906202686726
    95   1      10.261201793463743      21.359408960590169      27.496927113609676
    96   1      13.057362351181297      21.362101719316584      1.5547424440071262
    97   1      11.479618503932782      22.896184818054884     0.41343460416280625
    98   1      12.978392545082258      24.583483406902612      1.6084400151862379
    99   1       11.61809231961692      25.893773527899931   0.0021999626233650811
   100   1      12.729599297133841      27.353314420176297      1.5467077518310803
   101   1      14.250690577160345     0.04708679880229738    0.031085879886245449
   102   1      15.736210329884516       1.560360811080044      1.3334274674052962
   103   1      14.428368795405296      3.0495888689192365      28.609683604395645
   104   1      15.728240619501872      4.4247187792971721      1.4371167634157116
   105   1      14.114267960240863      5.7642861966300041    0.032974754645601873
   106   1       15.56175529125559      7.0944719043578095      1.4173044227325016
   107   1      14.350654754291591      8.6103302550965992     0.14881061507212492
   108   1      15.863862758670415      10.087562325921263      1.1795158871635749
   109   1       14.21806481085992       11.51542827586962      28.593649303875935
   110   1      15.795714487105338      12.762111333685908      1.2108951334157141
   111   1      14.541194738113605      14.236035914981223    0.034039520178407556
   112   1      15.932496528634816      15.772606050336224       1.408610819709621
   113   1      14.498702032837521      17.245007495620964      28.663067971750898
   114   1      15.662000992666082      18.683823520438338      1.4757467946764664
   115   1       14.42708587617733      20.098634999819897    0.085643999969602119
   116   1      15.944557432923904      21.475429504398878      1.4664520606403684
   117   1      12.982252196004154      21.532360571495023      27.207728168344481
   118   1      15.712072323489332      24.527273512537064      1.4949902629195082
   119   1      12.952427365801928      24.326212221523335      27.569286134712982
   120   1      15.841705716507025      27.381617790393047      1.4920129196961514
   121   1      17.142980534721978      28.463425250263345     0.03097681207665344
   122   1      19.006458702698215      1.4498064559949395      1.3014579320016988
   123   1      17.230449953188664      2.5957866282292938       28.62949624313838
   124   1       18.74222825508285       4.259066540215394      1.1917526019823736
   125   1      17.275301491595862       5.788977344905911      28.519718985526001
   126   1      18.781106936614908      7.1893484535865433      1.1179045245655179
   127   1       17.39974359496696      8.5662469014707234    0.040239788642406939
   128   1      18.927362836043848      10.083142639687086      1.4178045395094852
   129   1      17.355948427724989      11.460482438655912      28.511595987196415
   130   1      18.537132827642303      12.626964424722534      1.5135414129652085
   131   1      17.259465665406402      14.288167654326521      28.615402907562071
   132   1      18.504682178563101      15.744943515919674      1.3089963118659387
   133   1      17.092438324255614      17.264471191637561      28.646745445739214
   134   1      18.741633346405937      18.671824618936345      1.4266162305299648
   135   1      17.231429761028981      20.010368592135858     0.13199190279433431
   136   1      18.691020107584091      21.532353606611171       1.490179750838855
   137   1      17.145334383153681      22.982975837008158      28.605597269379459
   138   1      18.874624790140771      24.441616000938975      1.2777377111667771
   139   1      17.260276803570864      25.827352406702456     0.13431799867174737
   140   1      18.808488967405552      27.315268788168847      1.4382007153090297
   141   1      20.121542649150008    0.039059542183817367      28.632393033932374
   142   1      21.641673114763346      1.7595146733101938      1.2803210463815835
   143   1      20.208799885233358      2.8273465401026097      28.648784411607341
   144   1      21.618221717652311      4.5938431605663244      1.3817145516974167
   145   1      20.104163620449121      5.8062007824472053      28.419565713357645
   146   1      21.629445376711065      7.2636355363740011      1.3787270728936851
   147   1      20.246101778682156      8.7553735461443019      28.519631634231196
   148   1      21.583554574128449      9.8983666541478446      1.2861677339877799
   149   1      20.155395622922867      11.426307589058942      28.681004620012104
   150   1      21.421790430382668      12.614193011424858      1.3766910970047082
   151   1      20.044615732088616      14.289444554357617      28.689912488487366
   152   1      21.612630969557415      15.782700472728266      1.5616758927847163
   153   1       19.93680516667461      17.388858737486004      28.553833115639094
   154   1      21.313272545476487      18.467788334322123      1.4085155121026345
   155   1      19.900656803996387      20.266726944971463    0.041557259006242568
   156   1      21.668653596210788      21.579614942823198      1.5128195796097665
   157   1      20.242862982427763      22.929153996332509      28.597452676846487
   158   1      21.554785545146686       24.18825208477914      1.5985350758841146
   159   1      20.312785705535546       25.87501861532758    0.045922752943886383
   160   1      21.728503577889722      27.545689695106169      1.2993383140579213
   161   1       22.91353919474755     0.14544110784465983      28.528109313908061
   162   1      24.452462132793126      1.5633954440821991      1.3647433063895493
   163   1      23.131419255435187      3.0232830669779549      28.566639681542711
   164   1      24.587579620909988      4.5013904882196565      1.3482122214258423
   165   1      22.817986154610239      5.8612333306614408      28.565226112765714
   166   1      24.193041943473663      7.2363813064933638      1.3874569110550856
   167   1      23.010189988734968      8.7832282850384669      28.496430278683935
   168   1      24.317903389928016      10.243658365732992      1.2015646054548828
   169   1      22.921040765975285      11.561537627427326       28.47934695134953
   170   1      24.336806242094436      13.063320894953989      1.0731699777987829
   171   1      22.529726361229944      14.399255479487355      28.581726794711162
   172   1      24.217847676282933      15.688010157474482      1.3474794721003847
   173   1      22.643525100438787      17.089134766232302      28.503661595845969
   174   1      24.308909420632379      18.647674707766097      1.2349435114940561
   175   1      22.789562694911858      19.959931670591093    0.024862804413612587
   176   1      24.248260585534858      21.439531035717241      1.3638722306970057
   177   1      22.983675544506177       22.99811327853503      28.693765651400128
   178   1       24.43674300365463      24.082289151884094       1.396455694411588
   179   1      23.087173846202976      25.848534934028073     0.19279281937808709
   180   1      24.330980961649288      27.372647523010585      1.3824572961750725
   181   1      25.942563793529562      28.660700822328046     0.18151346076017491
   182   1      27.335806936368286      1.3024343768549214      1.4031779196386989
   183   1      25.772384089926167      2.7584333265119194      28.646610336057996
   184   1      27.437425780499698       4.338831399385529      1.5042939624490945
   185   1      26.003458882173554      5.6682433186705952      28.368755110648223
   186   1      27.051039010095643      7.2155750461339512      1.1263033309752815
   187   1      25.815568195152878      8.6318874854931291      28.541079027044042
   188   1       27.23356473547851      10.073954644585928      1.3057485489238954
   189   1      26.035178771932774      11.743445917002139     0.15002363712573014
   190   1      27.431690409664931       12.94645821466252      1.5570506351403643
   191   1       25.75533670632689      14.357676103227728        0.13869755416207
   192   1      27.370431798198059      15.915162383854554      1.4661438481165978
   193   1       25.67740458240916      16.979489213788248    0.078367652654242198
   194   1      27.119050573792077      18.610148042346847      1.3655068926350853
   195   1      25.636013971769881       19.88286902529434      28.635469448318759
   196   1      27.051493435869304      21.381913629775159      1.5927978993992848
   197   1      25.943220002170762      22.838067972822913    0.076182330089955147
   198   1      27.368804366296281      24.280372884048255      1.2994511115000933
   199   1      25.962739050423419      25.711087374571147    0.097902338440292225
   200   1      27.449376500435058      26.839119395905978      1.6857600159601804
   201   1     0.10461060248535613       28.60399216340258      2.9348934381128511
   202   1      1.4403613537133308      1.4638810935166926      4.1808792837646402
   203   1      28.699686562924228      2.9010075342214465      2.9479751717044707
   204   1      1.4800171464186505      4.3390186490119449      4.4701436094116431
   205   1   0.0077881921371732391       5.732461866988376      2.8608058136023264
   206   1      1.3869338013576908      7.1871370123146612      4.1891877979731449
   207   1      28.499397162432448      8.6789849908744792      2.5956033756163941
   208   1      1.4371912692764814      10.033781897654693      4.1688733209104898
   209   1      28.490269771221893      11.407005084244881      2.8460354242725532
   210   1      1.4243456236069638      13.083556609739018      4.0871792580670139
   211   1      28.695043173013278      14.389142055070675      2.9338801180748009
   212   1      1.4080999369182119      15.794047221156998      4.4002549927739034
   213   1      28.692204575943894      17.340507787996838      2.8725914527888903
   214   1      28.683074337055221      17.101898943366141      5.7980622407261411
   215   1      1.3404824383132119      18.633831442401092       4.347093846049142
   216   1      1.2258138241266918      21.339512885171981      4.3552454986340141
   217   1    0.097849844891085586      22.826903894170918      2.8826105634479378
   218   1      1.6004671127552237      24.320563105130326      4.2632025382307921
   219   1     0.15503720699497484      25.719384537083915      3.3236717376565168
   220   1      1.5677720961818886      27.385951175416306      4.5174634173366366
   221   1      3.0129746024648725    0.019173032544779468      2.9721584351913597
   222   1      4.2765846200551119      1.5596691715574349      4.4873280027451639
   223   1      2.7847714247345734      2.8870663946267086      2.8828249930475325
   224   1       4.363298495545644      4.4079534036270704      4.2890623025046564
   225   1       2.852138378855682      5.6520119254943531       2.766025648160475
   226   1      4.3774639202633772      7.1174449680649658      4.2371694576742769
   227   1      2.9122635585961487      8.4651674452396133      2.8103984362807868
   228   1      4.4016247719661044      9.7872823800458661      3.9741651255920694
   229   1      2.8237337333385883      11.454542025518403      2.8063326049708732
   230   1      4.1308298118779465      12.843052289174075      4.1652408168165156
   231   1      3.0108700127373478      14.376164427719285      2.9417895570686241
   232   1      4.3742101955956452      15.869582966139943        4.29563145718926
   233   1      2.9080890254042968      17.445265604612771      2.7295864474630314
   234   1      4.5009941878571009      18.701501083603958      4.2835910807430961
   235   1       1.264422952614769      18.677990191167211      1.2770137660278931
   236   1      4.3282451471331385      21.712861696868639      4.2753561963172029
   237   1      2.9757700988780571      23.266195476192021      2.8860817414090469
   238   1      4.4122848498513996      24.366317965531692      4.2631659568785327
   239   1      2.9439016884538032      25.848972898946581      2.9581954485367312
   240   1      4.3842313961087918      27.251988010457005      4.4318288806090447
   241   1      6.0000676046112229      28.555994839005141      3.1400779417926299
   242   1      7.3687967940529786      1.4272621998040012      4.2755915429316342
   243   1      5.7325931541610853      2.7572609009392295       3.085218970563036
   244   1      7.2199139446116778      4.0653439019331996       4.217765259724108
   245   1      5.9140694430619742      5.5968910170128483      2.8729747233847966
   246   1      7.2020386670606822      7.2070468158783294      4.2304369135358906
   247   1      5.8712202468845742      8.4669874506561538      2.6036883717988646
   248   1       7.242123412425145      10.103601420063544       4.340739369238019
   249   1       5.636681328226758      11.439800535076524      2.8579564519574219
   250   1      7.4635850757762023      12.948217249280306      4.1432553400487437
   251   1      5.6956318748508021      14.385534353325498      2.8039753121383679
   252   1      7.1831242121707897      15.821748913239109        4.14504347259252
   253   1      5.7803505395325709      17.169883473198158      2.6283319466212895
   254   1      7.3342661991660298      18.630703813575995      4.2973497830299232
   255   1      5.6166286124982125      19.907615186770741      2.5179643334135458
   256   1      7.0578749643206669        21.4051821518329      4.0124175645421083
   257   1      5.8319724852033801      23.384583362692997      2.6053686502796265
   258   1      7.0459716318878574      24.660419259560332      4.2199997090265029
   259   1      5.5724641687184508      25.980317271273218      2.6923384175302196
   260   1      6.9728443303685737      27.256284989970737         4.5749145267408
   261   1      8.6959487268819551      28.691208065085778      2.8437843480607388
   262   1      9.9516471762291001      1.2118913539683833      4.2995988027597098
   263   1      8.5806460479158559      2.7206732968520217       2.942702471884127
   264   1      10.043167664080599      4.0853041235287915      4.2064221765298182
   265   1      8.6295412517995818      5.5449759387925353      2.9083897174590918
   266   1      10.026243760514342      7.2634095408098132       4.136102874859076
   267   1      8.3929163578984234      8.7741648334774442      2.9763018017951186
   268   1      10.006875186659535      9.9571043923071159      4.2129489934424029
   269   1      8.6188705063617199      11.485069877850856      2.7461623905613446
   270   1      10.127733309282871      13.020612297542323       4.293285410007857
   271   1      8.6394241927158451      14.414206709683214      2.7240944111226097
   272   1      10.095102810240657      15.983237832739309       4.140881784665063
   273   1      8.5774996207960736      17.253688193138178      2.7465121719689134
   274   1      10.140305277511464      18.378986958451911      4.4007993067963396
   275   1      8.6415444846358884      20.005118454975413       2.812328764580263
   276   1      10.256423117229462      21.560756136824242       4.144365787220627
   277   1      8.7837255934868512      23.178881832737861      2.7900226685789549
   278   1      10.419174862894213      24.474305100503454      4.3137062696476303
   279   1      8.5806728571813515      26.071827075920471      3.2721167018238102
   280   1      10.159872690583322      27.241859562861816      4.5779120703414717
   281   1      11.366417645656389    0.071055956478051338      2.9180342959076357
   282   1      12.832317659768213      1.5483832041720567      4.2060395103405002
   283   1      11.504547856945509      2.7345889158713805      2.6640677938890573
   284   1      12.932012743017985      4.1157244999484099      4.3997409890895272
   285   1      11.387838794960702      5.6916477879897744      2.9228101689849062
   286   1      12.902045272025514      7.3123592442588556      4.3213954990091477
   287   1      11.405856652900757      8.7649701942334097      2.9141596290049971
   288   1      13.006350326875944      10.238979718385222      4.2471513477635279
   289   1      11.379965156929515      11.377994528794213      2.8233959157792916
   290   1      13.054910775995706      12.952666217267302      4.3529343010118025
   291   1      11.763978931094737      14.568854065707761      2.6844917884192556
   292   1      13.063488512800356      15.699296497802573      4.3163561847355947
   293   1      11.653672402610077      17.080870854181011      2.8611143104703944
   294   1      12.582610628955919      18.625928063934182      4.4015319270873769
   295   1      11.385231045267128       20.01164250808371      2.8341923787432406
   296   1      13.198575600417866      21.550489211777446      4.4602796563659899
   297   1      11.780742003232442       22.81442755976855      2.9083301272377646
   298   1      12.895054569532995      24.245801671047936      4.3398076418399691
   299   1       11.72566159504087      25.898104374618431      3.0805104063168653
   300   1      13.084247962052578      27.366489773225226      4.4815953736776502
   301   1      14.243680239576026   0.0097192081493746585      2.7526990157355056
   302   1      15.550077865315483      1.5086652747901432      4.0067456556501675
   303   1      14.214063251825303      2.9123138278014102      2.7063334593998776
   304   1      15.942077437146072      4.4619073281464754      4.1508342504883764
   305   1      14.288106575854982      5.5671100904812736       2.974336429972031
   306   1      15.837790900024345      7.1718619119529077       4.247831894735965
   307   1      14.180498908870531      8.8232414678826956      2.6801518134418996
   308   1      15.817439626554188      10.164841835394281      4.4494124616688211
   309   1       14.13480251099403      11.398857466574352      2.5395208484515361
   310   1      15.719011487539355      12.913374785757949      4.4434181536564337
   311   1      14.253734984246138      14.211730518245805      2.8296659407480336
   312   1       15.72848393378634      16.066869670122262       4.361157895820206
   313   1      14.298597555918201      17.270485641900255      2.8768448422697857
   314   1      16.034932495548261      18.824093301761593       4.450778208390509
   315   1      14.393198221131318      19.942812093466522      3.0467424151121723
   316   1      16.050106881030253      21.558183109639241      4.4412358066464108
   317   1       14.29373392586764      22.967076678967462      2.7484187289551754
   318   1       15.99243738292687      24.459934285986904      3.9921494746004784
   319   1      14.416358581968183      25.957078221072805      2.8857854531915108
   320   1      15.892957014361627       27.42483185572755      4.3227755855981265
   321   1      17.303173342122868    0.095253720153789662      2.8544395167970595
   322   1      18.633190347129048      1.4202368734149002      4.2297780898811999
   323   1      17.238621556689267      2.9540338715024306      2.5837174188790653
   324   1       18.72464410319408      4.1567248424406218      4.1733755170427518
   325   1      17.275711866063141      5.7894904932766753      2.6332332676771903
   326   1       18.76517536483486      6.9720902212417997      4.1788454613578416
   327   1      17.320404750026011      8.6640811399393076      2.8095716807601541
   328   1      18.795401066129724       10.16101947886332      4.1978339585216426
   329   1      17.092789783388177      11.510386561673712      2.8900505800162666
   330   1      18.633431920066933      12.830699998794888      4.2352331136365002
   331   1      17.119112918314727       14.44150256468221      2.9528705039598586
   332   1      18.749090880438946      15.815558719161436      4.3880396505335959
   333   1      17.232180470876379       17.17848778996111      2.7964552937793892
   334   1      18.528699441025001      18.834572485270694      4.3438814140550663
   335   1      17.222031316815603      19.995069232409445      2.8403842302414311
   336   1      18.772897616789525      21.593136509629442      4.4999953987990668
   337   1      17.470698890440847      23.034631438903752      2.9173355856555712
   338   1      18.844181751411725      24.572993482731146      4.1578568767078252
   339   1      17.406059676266345      25.873434131346954       2.603296353753398
   340   1       18.58603011263251      27.154343139352914      4.1650521636163704
   341   1      20.183189789440288      28.691389430683842      2.8235376209157024
   342   1      21.568417217023562      1.6711153557982117      3.9981406686403389
   343   1      20.201073590562956      2.9123456021405016      2.6512281436892398
   344   1      21.492965665262741       4.354025435229298      4.3086994567297445
   345   1      20.177552078824149      5.7592481700351028      2.7308469956626023
   346   1      21.634833072169343      6.9738194160288449       4.194543821290166
   347   1      19.995268663239653      8.7010376785954744      3.0193510097301082
   348   1      21.582243211060693      10.141621764072157      4.1537778338567763
   349   1      20.180573516436066      11.559166457227889      2.9903312076033197
   350   1       21.45359319477997      12.955567939495287      4.5142058578432387
   351   1      20.037927544743972      14.184596549457705      2.8253177270131458
   352   1      21.603451926953955      15.665076817772256      4.5203367066095685
   353   1      19.858035089708356      17.238516203855696      3.1302031613851486
   354   1      21.401940286375048      18.559227940206725      4.3617339408124156
   355   1       20.25451994045304      19.989872918609535      2.8830033604017244
   356   1      21.678612973978822      21.389404363066305      4.1986085144039071
   357   1       20.22099736850674      22.789711571265808      3.0394495157297463
   358   1      21.478532662288778      24.156806523395183      4.3715757823766133
   359   1      20.328785941528675      26.002828050256856      2.6433059432526984