dump/Fe_1350_5/steps_31 (written by ASE) 

1995 	 atoms 
1  atom types
0.0      28.699999999999999  xlo xhi
0.0      28.699999999999999  ylo yhi
0.0      28.699999999999999  zlo zhi


Atoms 

     1   1    0.087439559163465325    0.089269729551779239     0.15547418074291958
     2   1      1.2376260464723701      1.7871130359297478      1.4949863521355959
     3   1     0.02531700805827785      2.9911690783767551     0.14501716843126372
     4   1      1.3695709187288694      4.2343894192424276      1.7626169704604315
     5   1       28.60413995428091       5.506180502345229     0.14650552064135797
     6   1       1.330563507096612      7.2954224234114395      1.4266704209503596
     7   1      28.624791020473637      8.5384425324917785     0.01292513121148885
     8   1       1.291257219973762      10.079534046427442      1.1631290009111683
     9   1      28.691122750332326      11.571548019470338      28.570369069469113
    10   1       1.437608511937414      13.078198175745404      1.3971748160666153
    11   1      28.525884782150261      14.239622573868118      28.655679665531224
    12   1      1.3687564788529267      15.795156367279215      1.3394320340648043
    13   1      28.592883295791697      17.026324455750625    0.091202709600759074
    14   1      28.595205693892993       20.19347125759499      2.9088150973159812
    15   1    0.043193114396207349      19.989001754299014     0.11853865724373226
    16   1      1.4877901079440456      21.480812825535295      1.6025143837693121
    17   1      28.697381483363728      22.944717657896962      28.565297549152177
    18   1      1.2709654287649867       24.40218837188436      1.4314648713809563
    19   1    0.056638916865202907      25.721128167002604      28.679725179511344
    20   1      1.5583585726370328       27.19477122740544      1.4146616539635826
    21   1      2.6234993851309012     0.36922402675313731      0.1285772815462109
    22   1        4.40891539183042      1.4038214769179367      1.2939253068050904
    23   1      2.7861866913534423      3.1136720870223287      28.672160798221302
    24   1      4.4225636430808288      4.3917153867788334      1.2537040854078334
    25   1      2.5719440335982644      5.8688337859592936    0.032848124096551683
    26   1      4.2697933643218144      7.1988787940874186      1.4742199336762951
    27   1      2.9245139214420788      8.6394117632087735      0.1105462343957014
    28   1      4.1991517458676828      10.116082143839121      1.6110094465727101
    29   1      2.9962549962165199      11.523553768488672      28.600197205453188
    30   1      4.3387995707956604      12.950129021509753       1.380272565458823
    31   1      3.0264968587946774      14.237239131804424      28.684242787920613
    32   1      4.4240557142997705      15.612485377544054      1.4399935549782525
    33   1      3.0112709074723623      17.181617388056541     0.14950744415959877
    34   1      5.8757408816386372      20.049169206698807      2.9356031328279042
    35   1      2.8383268150918788      20.105955225199367      28.695632883177069
    36   1      4.3517260933649071      18.551818038925571      1.5231819042030803
    37   1       4.269013656703712      21.096860023552232      1.6460242810627381
    38   1       2.658957521968444      25.470790434078076     0.02443146473323168
    39   1      1.3496457062537874      24.422209980913713      27.258781016134378
    40   1      4.1740130014355499      27.346583992265327      1.3187223849592218
    41   1       5.856864607600107       28.62417812618212      28.612473092858373
    42   1      7.3287575884963729       1.403028004894725      1.3259944595371171
    43   1      5.8171941852407993      2.6578611845736315      28.529215242011549
    44   1      7.3204835899080338      4.2221055227262267      1.3644309139683728
    45   1      5.9603887724969207      5.5783950607675665      0.1454488259291338
    46   1      7.2274699829854416      7.2466197235045362      1.2985837046898263
    47   1      5.7523478062258357      8.6078470655378467    0.078602345906836013
    48   1      7.2507901876497654      9.9454066182169374      1.4862590527422981
    49   1      5.7996802911780945      11.571686559946396    0.078618141353831439
    50   1      7.2196813653677694       12.91746390730877      1.4626945214896863
    51   1      5.8848446984483482       14.33522982139897      28.520497827353612
    52   1      7.2771389800984716      15.801728384135346      1.3238441863433863
    53   1      5.6320631370343346      17.089394160278705      28.563536380903148
    54   1      6.9990013746308879      18.568936662287697      1.4560158139360297
    55   1      5.6635237296004561       19.91774801192777      28.635329763362336
    56   1      7.1851157212048768      21.545088326074392      1.4671964158574951
    57   1       5.554989533422769      22.981008921626913     0.14969440534035822
    58   1      7.2043586687487391       24.28361686384758      1.3844692071466731
    59   1       5.907071102688163      25.936942261642958     0.14787954016150021
    60   1      7.2389293103686425      27.410332895330381      1.6823223595382275
    61   1      8.6094969202488745         28.580011413769     0.17060300917635213
    62   1      10.054380085328782      1.3533231515796713      1.4563695104735768
    63   1      8.5165949426816745      2.6126092161570367      28.537666654279779
    64   1      10.230928846631276      4.0188236940561426      1.4063767716417954
    65   1      8.7634399370078739      5.4802534611864671    0.058190135545101003
    66   1      10.199948438661455      7.2383642102190686      1.4599227952808518
    67   1       8.548999608164829      8.6641932628603104      28.496997411200116
    68   1      10.200667268451417      10.138238183000992      1.3287535923967877
    69   1       8.726873354276993      11.586798776874145      28.614582864677278
    70   1        9.91282371879268      12.863822462591909      1.4314528329284837
    71   1       8.694631628654923       14.56866051013224      28.628012895692365
    72   1      10.163082762245942      16.104082943678549      1.5023976422752185
    73   1      8.7189704810826818      17.195246276222758      28.607900082606893
    74   1      10.047583644500691      18.868114913798298      1.1909063181128312
    75   1      8.3630047882406853      20.126263998249559     0.21412487284346746
    76   1      10.060283814782482      21.509527260676034      1.3262148259703948
    77   1      8.4270955866364208      22.902117500095848      28.694163657782784
    78   1      10.204839676912993      24.278575202760447       1.404919810586112
    79   1      8.4433378459758313      25.737582263793879   0.0093386465816138221
    80   1      10.036291103334982      27.014553254911196      1.6947992568409525
    81   1      11.395192846345381       28.40570894603508    0.059619605564148588
    82   1      12.870585268272984      1.2927742121121473      1.3087269551616938
    83   1      11.585352325535714      2.8380974213739711      28.571775846058021
    84   1      12.853231756003716      4.1115535665553109        1.50623925683111
    85   1      11.450244152454175      5.6267157080854782    0.029154419857502438
    86   1      12.903611239220375      7.0347819060307488      1.6223267897707605
    87   1      11.431794482489455      8.6020591790515901      28.679402572675361
    88   1      12.928058859918517      10.083243720840354      1.4742217311106174
    89   1      11.500321016993936      11.567926604732193    0.046210985300820011
    90   1      13.092723010331731      13.030204388096143      1.3476536204784906
    91   1      11.155892656797946       14.37087166268036    0.017626304577777304
    92   1      12.718492592682638      15.900605106734533      1.2469395858606049
    93   1      11.422072990358465      17.365909667136236    0.060143160377651876
    94   1       12.98926426781235      18.704721570916984      1.4749229593760551
    95   1      10.158210340639158      21.485978314970456      27.260240893553629
    96   1      12.938769520630624      21.704310430238436      1.3399595271905691
    97   1      11.439165680193916       22.86084749498136     0.11359424561650268
    98   1      12.893808630366411      24.450665182587379      1.4078673367009411
    99   1      11.446489612069373      25.794637213952115      28.540815102054271
   100   1      12.988467584940462      27.353708351789372      1.4235994270804777
   101   1      14.475349435798714    0.052645611936386165      28.666495044857971
   102   1      15.882127466351049      1.3755177397653493      1.3743307027092899
   103   1      14.414895904680774       2.648432549003906      28.599457759283911
   104   1       15.71063333614716      4.4148561796496972        1.38626205140015
   105   1      14.446693748917109      5.7789754443839607    0.044037189632251734
   106   1      15.693221703351183      7.2196794706951097      1.7205878027298802
   107   1      14.208125036488742      8.4730813118043908      28.572098025734793
   108   1       15.80644343171668      9.9059096799337105      1.5773371685131901
   109   1      14.372208856003571      11.150173820463252      28.548144721709708
   110   1      15.590183633703571      12.810689832014106      1.3513352039051592
   111   1      14.207930975112056      14.460330052871509       28.45540179257468
   112   1      15.559695211096475      15.645658880361205      1.2317253096570318
   113   1      14.242689332314068      17.308475520296806    0.028648459370742771
   114   1      15.803056752530257      18.597537732769204      1.5123152591233746
   115   1      14.362215765603251      20.179669228000208   0.0047201399111372706
   116   1      14.259368083131662      23.021096182763184      28.668561202554677
   117   1      12.981126206050973      21.634205924551722      27.253524748436831
   118   1      14.487388082836951      23.102768424182695      2.8996857987518445
   119   1       12.96024475208544      24.344920053985945      27.117661697366366
   120   1      15.987255329326183      27.280867737186217      1.3813782123291056
   121   1      17.384010216556401       28.59282153589324      28.608098018189736
   122   1      18.713950285751764      1.3775395734155609      1.2630706907763154
   123   1      17.191250732613181      2.6271589655091376      28.593614358603762
   124   1      18.585305772184327      3.9958369634693431      1.4414475325118923
   125   1       17.28669793920027      5.6667251101231857      28.528044664383145
   126   1      18.658435817157702      7.0212281921613231      1.4025946332751813
   127   1      17.378174084588295      8.6255746424761988      28.585611902722292
   128   1      18.934616610486707      10.004718151581075      1.3586391103194166
   129   1      17.070589594767988      11.343235804607394    0.075259800187677625
   130   1      18.544091603366926      12.949350712858312       1.356354533930084
   131   1      17.136985658885621      14.327844840273716      28.633097395608544
   132   1      18.550751651918638      15.652048699543403      1.2181727876015753
   133   1      17.094353937523099      17.329354194542059      28.638539486031291
   134   1       18.82090732593149      18.519449956846952      1.4519393471633288
   135   1      17.301263469039352      20.209156408870459      28.641679160464211
   136   1      17.131862019007915      23.036522153389978      2.8004063770629268
   137   1       17.39058617038053      22.855440539302268    0.028031935463252479
   138   1       18.73745580483595      24.255935139807718      1.6495473576383906
   139   1      17.298419911682938      25.828754776497998     0.21104930981615561
   140   1      18.607921618671845       27.52193525341028      1.3905627433025076
   141   1      20.168859646769128      28.625253389705637    0.031158298017021479
   142   1      21.581657205991494      1.5824035513381212      1.4118006598775081
   143   1      20.382173855430334      2.9650438424715837      28.475562920142341
   144   1      21.455550314588731      4.2813438755056303      1.7577283660488432
   145   1      20.019074687608693      5.5867297655177266      28.524561064799578
   146   1      21.487778970579168      7.2542331283234098      1.3896874919150619
   147   1      20.208190050459642      8.5492566349234824      28.524038742870676
   148   1      21.695395581268404      10.220438835045796      1.3246331063030439
   149   1      20.128991396302386      11.472683121834534      28.675345539416298
   150   1      21.612629211586817       12.89551249638575      1.5132418089049577
   151   1      19.957843386288133      14.275458669159388      28.402787847025596
   152   1      21.467993074940232      15.680019255681009      1.3514805926815479
   153   1       20.02612784431145      17.129206513029192      28.602754718103029
   154   1      21.350908973455912      18.829824951606941      1.5279474000854527
   155   1      19.909629155744845      20.180154113767355    0.058566311824688404
   156   1      21.648394639885581      21.485148756455924      1.4651167061011265
   157   1      20.125699330729301      23.012076546046018      28.658790730105924
   158   1      21.563728299729558      24.488451086544117      1.3810955880253331
   159   1      19.949772418152538      25.785540604854557     0.25489806848493113
   160   1      21.444665309984273       27.45172456993361      1.3357398838934396
   161   1       23.11482223167242      28.576240288318708      28.617865672519827
   162   1      24.399186281688646      1.5367241771486073      1.1918538179909213
   163   1      22.958946048492614      3.0090673666076464    0.033290589862269869
   164   1      24.483707495587641      4.3348430782033915      1.5824260517729165
   165   1        23.0178321114829      5.5958556625609619       28.67157867655613
   166   1      24.462130135545053      6.8628445770475226      1.3933719819690749
   167   1      23.077204714283848      8.5000555485228286     0.07373740521070421
   168   1      24.424078855296376      10.103919196549102      1.5155719019133476
   169   1      23.165921004086258      11.394540203158577      28.623033903834767
   170   1      24.382095367762716      12.856428476290841      1.5155553092144944
   171   1       22.84631136791603      14.398683237762869      28.541974711922037
   172   1      24.263433988926675      15.761343529010619      1.2836490018745963
   173   1       22.74262915599958      17.114382416775573    0.054047924609869874
   174   1      24.464730121693375      18.581529690846892      1.2810436165909649
   175   1      23.074448263371014      20.001636583982449      28.628916441518697
   176   1      24.478394018360145      21.503212341639347        1.47659507822575
   177   1      22.790654400836058       22.81981151245493      28.438276893286172
   178   1      24.582167627223701      24.532752996378747      1.4138344964090162
   179   1      23.011692569592867      25.880959606407028    0.051391845788975932
   180   1      24.350336754079891      27.413966833182396      1.3711136109854019
   181   1      26.114705358630104      28.683532155776764      28.643160105743025
   182   1      27.233526908782597      1.5171254485477903      1.4235327610527633
   183   1      26.056256866511763      3.0603334459315898     0.12993652245521609
   184   1      27.342565755613911      4.3816477103765932      1.7920861571887243
   185   1      25.797864747888937      5.7253624686827536     0.00293197079776063
   186   1      27.371586847390088       7.101320766098385      1.5305474222487063
   187   1      25.871235990968366      8.4154815645023522      28.625691109218266
   188   1      27.163448066745559      10.037003364039798      1.4035816499957137
   189   1      25.736232613184065      11.261178443239773    0.012122597141649301
   190   1      26.995296898298758      12.701482440404115       1.396910157798946
   191   1      25.577593640080163      14.326131490166253    0.034998031630175251
   192   1      27.131461929667108      15.523542792031332      1.3921376468963549
   193   1      25.620471229318252      17.274104195501153      28.679515385873643
   194   1       27.30867694410653      18.355323845432004       1.341222565405302
   195   1      25.805261891114181      20.019149710393535      28.632546580752464
   196   1      27.449488720940259      21.417433361854982      1.2504755158739733
   197   1      25.756726341340158      22.932958235351304      28.621605359531017
   198   1      27.361024452386857      24.380805928107915      1.1670255919707082
   199   1      26.001154963356868       25.84417634850152      28.546538948016249
   200   1      27.383776891702798       27.30755037045579      1.4228893160468927
   201   1     0.22336374877057794    0.093958726725975494      2.9028656993038697
   202   1      1.5886615333386551      1.6797166825363434      4.3741240775068384
   203   1      28.446305435689229      2.7777502471580635      2.7800509900087707
   204   1      1.4609433952762068      4.2011775821564878       4.413393031561375
   205   1    0.043196045194463732      5.7391034671102563      2.8994113458546371
   206   1      1.3520589230388282      7.2479766946708457      4.4594222352000807
   207   1      28.632791610150509      8.7671656067117674      2.9421408797666935
   208   1      1.3761554287103646      9.9231341883626154      4.2633278225239577
   209   1    0.043568612937486734      11.416625488736178      2.7138591401443692
   210   1      1.5079525950749952      12.950495863956998      4.3564571400253671
   211   1      28.695899466424013      14.391010418359896      2.9458170806070445
   212   1      1.5193757574603637      15.530553308427558       4.214075124443716
   213   1     0.13675128010436441      17.146562723748609      3.0398040288970098
   214   1     0.30419679525976123      17.278209972409869      5.7217114514345431
   215   1      1.6416021235876437      18.783970717132846      4.1556602714888982
   216   1      1.6567111301006343      21.503698418871327      4.2366757103537829
   217   1      28.611577906944305      22.909901551378422      2.7839362805171368
   218   1       1.373187231387911      24.463824506591532      4.3378746678761289
   219   1      28.692272245637131      26.046207026918665       2.843548348423802
   220   1      1.4361681418937116      27.052630135892759      4.3119766487764535
   221   1      2.8345808116660809     0.12260113434676895      2.8116366467522185
   222   1      4.3256720866282903      1.4971878387174118      4.3900437148756906
   223   1      3.0211476299056956       2.771368452643947      2.7978978140457218
   224   1       4.321071292401613      4.2866920169971872      4.1751184116638402
   225   1      2.7971413286486846      5.7283830632981863      2.8136669741389486
   226   1       4.278671487671085       7.117284744899651      4.1216331246449629
   227   1      2.6274279450420739      8.5556325276334508      2.8087606718193792
   228   1      4.3479030292637413      10.193310430194396      4.1450181400823967
   229   1      2.6692225792868958      11.507064815566883       2.844507291783815
   230   1      4.3088753437364904      12.861542370350705      4.4333401969387305
   231   1      3.0408689564480156      14.207459360141993      2.8628216785868412
   232   1      4.3470528450610768       15.62961340555462      4.3203367985711898
   233   1      2.9780330183739823      17.034887181726532      2.8592600409312809
   234   1      4.2967855984907128      18.612992370219665      4.0536711390118425
   235   1      1.3236283188257181      18.576346387155141      1.5056876509159891
   236   1      4.2736201872349202      21.397202375560301      4.0637976222407008
   237   1      2.7432295576046055      23.079410582535395      2.9858318175646232
   238   1      4.1409199676796602      24.309982573582957      4.3247783030448295
   239   1      2.8542886315720017      25.651556203013865      2.8445835768463099
   240   1      4.3983523821035853       27.29752559698052      4.0629105862214816
   241   1       5.822576894120286     0.19194887122857854       2.950094033158686
   242   1      7.4410627859009537      1.5116885624100869      4.2178631079753153
   243   1      5.7748992383066931      2.7960279046468135      2.8512166240768697
   244   1       7.142256981552884      4.2501941590274077       4.172532409367574
   245   1      5.7272749101476403      5.8067367445904061      2.9876731203713942
   246   1       7.251692243323645       7.355917604670239      4.2822834551419131
   247   1      5.7578422053708964      8.5515618285469976      2.8029469604091548
   248   1      7.3453334314720493      10.143510066550546      4.1228974316923228
   249   1      5.7711348040441521      11.470874077369162      2.8440837905236895
   250   1       7.210281415963637      12.661105367912086      4.0667350389103012
   251   1      5.8186486078513973       14.33567597835153      2.9153377194266361
   252   1      7.3661361054461372      15.562218943805478      4.4014734575833394
   253   1      5.6809363319573913      16.990175581153483       2.734325777976335
   254   1      7.1072175837215594      18.267332787451949        4.26697402032441
   255   1      7.2360653298533757      21.482349624673287      4.3769431074324521
   256   1      5.5336949052360573      23.020275313946399      2.9262586715853254
   257   1      4.1817132325986144      24.279889768878814      1.2030274385284994
   258   1      7.0177246230950256      24.279207916154988      4.4591653924673196
   259   1      5.5919492332350123      25.713479168073608      2.8633609010201444
   260   1      6.9612149531986462      27.046357315385638      4.1938486933481656
   261   1      8.3049710927214395      28.595968437964277      3.0322564846023385
   262   1      9.9805722351240735      1.4500665966608732      4.4980452533363042
   263   1      8.5858126651322557      2.6635429265962762      2.6655391100102177
   264   1      10.034483222936617      4.1422609657127056      4.2416622166735438
   265   1      8.5701905122061817      6.0400465907686529      2.7506478825175105
   266   1      9.9398358069619928      7.0988757413933872      4.4169679310118921
   267   1      8.7191612190338628      8.7781406628752627       2.628813177621077
   268   1      10.002210408880563      10.129828207283404      4.2657471497667325
   269   1      8.7099554004194868      11.426417457242906       2.745622855031844
   270   1      10.074845570803983       12.89468734888016      4.1479370280471475
   271   1      8.8016489338609478      14.250416324847784      2.7516641121455332
   272   1      9.8616434834062492      15.676218633943083       4.336722416421634
   273   1      8.5468620252127465      17.222938128410316      2.8853019863333365
   274   1      10.049864508292602      18.645308770801005       4.394213813768677
   275   1      8.7550212812178536      19.920136268303587      3.0533873490418073
   276   1      9.9576083376157705      21.576050949789174      4.4125091569396551
   277   1      8.7060661931138483      22.897700894488281      2.9461217139824152
   278   1      9.9615522278241677      24.462220819469753      4.4598276193624438
   279   1      8.5523166711931324      25.544760099674345      2.8172209887524908
   280   1      9.8127145599796233      27.394627036032958      4.3524830527506966
   281   1      11.322090928095816      28.551314999347458       3.000053095281757
   282   1      12.682269561534875       1.535555181776953      4.0925920326389047
   283   1      11.183910770355553      2.7114239123267905      3.0317072647394063
   284   1      12.665753897202586       4.149840620677149      4.2194725418687185
   285   1      11.330178122868846      5.6562563409234388      2.9104432314076067
   286   1      12.829317055000372      7.2642606924265092      4.2492768356142028
   287   1      11.408730952689467       8.687209609723018      2.9746763141998627
   288   1      12.854460758071816      10.072606744018081      4.2600191081707912
   289   1      11.519311640183304      11.376441736910223      2.9230212563847497
   290   1      12.776030497953082      12.828879047358589      4.4716012651200661
   291   1      11.424757915712183       14.41078766076299      2.7987508976551321
   292   1      12.809653310999177      15.738903300054217      4.4166283179139647
   293   1      11.387616258124288      17.444761946849248      3.0007546326138321
   294   1      12.712737419207398      18.779031768037363      4.2959624980963644
   295   1      11.390632803201465      20.219786639903447      2.9103157855111474
   296   1      12.967654584299385      21.314173722497884       4.140226998410971
   297   1      11.475697594197193       22.96152736825524      2.7590208148588209
   298   1      12.738921325383927      24.224460114051311      4.3685795240433904
   299   1        11.3054820539458      25.890580017149851      3.2004155966331114
   300   1      12.964109423516129      27.266551806956468      4.1433597859510334
   301   1      14.589105424316912      28.612843714501935      2.8718703524209586
   302   1      15.913916336294072      1.3562906207827392       4.235784256388901
   303   1      14.433454057289282      2.6664396428578478      2.6066932207643516
   304   1      15.715063506266899      4.2698567476047691      4.1425952871164853
   305   1       14.38808823424999      5.6603596027357472      2.9231758970251294
   306   1      15.660633258291366      7.2186563200125926      4.3142056256118373
   307   1      14.157123428975781      8.7739426556743911      2.9490609206405618
   308   1      15.648731670924743      10.063156244810106      4.3434225913645816
   309   1      14.278391080087689      11.550864821298413      3.1410277851040571
   310   1      15.884649890329746       12.69450707276696      4.0827824575079044
   311   1      14.300209174819059      14.577033292798573      2.8687879778260701
   312   1      15.820544374503871      15.866186394785466      4.4163408541646687
   313   1       14.27710264125486      17.261864396939767      3.0347071588993813
   314   1      15.782776426520707      18.562841660727848       4.269033169906665
   315   1      14.452356822319036      20.084133428605224      2.9846223826631069
   316   1      15.932849620879946      21.610056006921123      4.4928080457088733
   317   1      15.649191471561647      21.457385402863842      1.4637640093167514
   318   1       15.97822581948601      24.551848270472906      4.3022500031607862
   319   1      14.282646624682181      25.726712202396378      3.0143386603288302
   320   1      15.943679071874106      27.126761657009936      4.1661698583719033
   321   1      17.319389834975269     0.21961785488717864      2.8061138237129266
   322   1      18.563698266578964      1.5426590455184743      4.5476007009387258
   323   1      17.180180654544333      2.9180610565996465      2.9487812224268297
   324   1      18.677109625053433      4.5574885702480321      4.5488087305274343
   325   1       17.25971555199316        5.67959141817441      2.9296194645525864
   326   1      18.624151203953179      7.1009592640558443      4.6675933435174901
   327   1      17.231769704026572      8.6247672947859719      2.8092473926834809
   328   1       18.78447624201133      10.050850637104029      4.5455512285868078
   329   1      17.378952623555147      11.303289156648688      2.8758645855806995
   330   1      18.658083701615858      12.811304745071203      4.5231846553164621
   331   1      17.274970498055033      14.487748596782483      2.7915160238319903
   332   1      18.760345748707916      15.640782764578809      4.1451169923955549
   333   1      17.148082106027463      17.172580978337518      2.7392936233821161
   334   1      18.636747337590485      18.705412811746761      4.2426482859745462
   335   1      17.208326637749632      20.238747399211906      2.9530406624765386
   336   1      18.566470980033223      21.507035777521669       4.363212067489691
   337   1      15.855163217280335      24.347703440027264      1.5577692066134641
   338   1       18.72927229824716      24.232456482641023      4.3727262832083698
   339   1      17.552595584117636      25.969075823567678      2.8592249733738062
   340   1      18.734341801612661       27.53823261298896      4.2398536045536117
   341   1      20.116222662364123    0.084700260110662465      2.8556970967347639
   342   1      21.764345958257909      1.2894353140571972      4.2288154790092776
   343   1      19.805099988886465      2.8195388257049339      3.3003223509313253
   344   1       21.62282319988535      4.1873517775321609      4.2912506534252968
   345   1      19.864162255193605      5.5044900471204556        3.08021626457302
   346   1      21.412033665753672      6.9963033493633535      4.2193785296928024
   347   1      20.019468589526916      8.3973118487483855      2.9305103696308872
   348   1      21.536519380711766      10.023772498912884      4.2879298999573026
   349   1      20.172977323526066      11.419695391068094      3.0694114708173879
   350   1      21.567693985889147       12.95172585538482      4.2330573596312897
   351   1      20.186159609858496      14.128891265003038      2.7544456279037157
   352   1      21.626733171626952      15.869349578439675      4.2944774493368358
   353   1      20.050852033563199      17.139364815969802      2.7667241242242078
   354   1      21.350989774828079      18.570309425223819      4.1985440234125102
   355   1      18.654340687343709        21.4348295820656      1.4572722033583771
   356   1      21.683789343920488      21.475392442659505      4.3950118448052358
   357   1       20.24217377949503      23.106316189952842       2.901793161608746
   358   1        21.6109813543009      24.362497938697597      4.3125736255901774
   359   1      19.998633553486645      25.954252539878336       2.750617200900773