dump/Fe_1350_5/steps_41 (written by ASE) 

1995 	 atoms 
1  atom types
0.0      28.699999999999999  xlo xhi
0.0      28.699999999999999  ylo yhi
0.0      28.699999999999999  zlo zhi


Atoms 

     1   1    0.088402048502145628      28.532412766873922     0.26748433016730344
     2   1      1.4104300363576052       1.478458697695942      1.4589689698245589
     3   1     0.13336765880925616      2.8906501004629472      28.586427021069046
     4   1      1.6717514424870712      4.2107018106498311      1.3127238664116236
     5   1     0.19779649699444429      5.7115919125892454      28.660905238710871
     6   1      1.4300616541123539      7.1642095718030694      1.4960673673314893
     7   1    0.088899593970996241      8.6062019883474417     0.12971355863741102
     8   1      1.6268841322001568      9.9440423799129221      1.4189337674938649
     9   1      28.689363342797932      11.594157859786122      28.679423840083615
    10   1      1.3714570621065281      12.815189610790778      1.3255651266559318
    11   1     0.25228464333828499       14.52856169736161      28.592396407643211
    12   1      1.4132841020576514      15.704449876866331      1.4799442485631176
    13   1   0.0013246523095300866       17.24813977993098    0.028269162658250462
    14   1     0.15191973007409987      20.044583805545873      2.8838746717052075
    15   1     0.16143264209699867      20.065045511307606    0.027035757509861463
    16   1      1.4905677686471466      21.526572438653389      1.7711844381997932
    17   1     0.23619531671692051      22.946782045033519     0.28340631358300922
    18   1      1.5090417718139644      24.488847003480569      1.7616509007269419
    19   1     0.11002344863357104      25.894832169277741     0.38389515165046173
    20   1      1.7828636021355806      27.254912877407754      1.5049287380779997
    21   1      3.0075764621213978      28.485504551381585      28.667619437366021
    22   1      4.1799421690818441      1.1757893740847183      1.5254630677397478
    23   1       3.078365817845885      2.5530164792546115      28.579302260153824
    24   1      4.3120577898595824      4.2088117972048744      1.3436208111320176
    25   1      3.0491589333835747      5.9443605066071976       0.113545391023058
    26   1      4.5716986777339956      7.2562750328205441      1.5910749606697085
    27   1       2.981619294963672      8.5997544045950214      28.620978821427929
    28   1      4.4044098179207118      10.212373732761401      1.4496172781150103
    29   1      2.8467580775988197      11.486316052132425      28.387000247574779
    30   1      4.1055084622368492      13.011573287972098      1.2014110227291663
    31   1      2.9112238549036453      14.291098047795993      28.694040101375496
    32   1      4.3402471895356642       15.91041593533037      1.6083505283481938
    33   1      2.6675026522570078       17.40407406581603     0.21528398002769794
    34   1      5.7306346754791404      20.113628078157102      2.9903268172675719
    35   1      2.6565681096598404      20.221899026352464     0.20758253640360644
    36   1      4.1222680457985703      18.800359372994336      1.5415631435622692
    37   1       4.306908975806202       21.50422278631105       1.500373159968649
    38   1       3.051070707502201      25.506097015316417      28.644007091870918
    39   1      1.3194116415978476      24.307086884288285      26.994533283743444
    40   1      4.5265148232343817      26.863677239175171      1.2782837905729356
    41   1       5.931864259297611      28.611040264020463      28.617739625596521
    42   1      6.9917709818659839      1.5516535159200877       1.502694252953211
    43   1      5.5427454736547102      2.8281440761444503    0.043059375954249017
    44   1      7.3834646759302993      4.2983468244343754      1.0858824890773007
    45   1      5.8387294553774023       5.964720784424399      28.626766314379868
    46   1      7.2383736787305217      7.3009331162675588      1.5688627281122753
    47   1      5.7016299822024834      8.5327408014829054    0.052571049527819144
    48   1      7.3494334136751771      10.152039438232523      1.3241356484537501
    49   1      5.8490554362784568      11.510097995168911       28.68044217700545
    50   1      7.0551680436415927      12.975633203882227      1.3831468207721522
    51   1      5.7352440387121195      14.334824381282649    0.011898547397936462
    52   1      6.9931922687192998      15.769107237135245      1.5445321709441608
    53   1      5.4580899526414921      17.182558601174104      28.696602989705912
    54   1      7.0102738631463763       18.60055959851757      1.3476098698728722
    55   1      5.9585091603916815      20.258261305830366     0.12417059677377443
    56   1      7.1701034513682123      21.690108741366007      1.2747718957461975
    57   1      5.8740993564989967      22.731319770050142      28.492401129217644
    58   1      6.9353743572484756       24.21032233001911      1.3459726066120552
    59   1      5.9305527867951255      25.780094584310827      28.548207747977372
    60   1      7.2767706378180135      27.127975249768554      1.3400792517430087
    61   1        8.68422279544974     0.17347189122522205     0.16056442838021215
    62   1      10.352543344939601      1.2599501054427382      1.4778223410876747
    63   1      8.7935796604300247      2.6046920588438192     0.31007165258384828
    64   1      10.199913997906535      4.3262499514605528      1.4465160891430635
    65   1      8.6605324055576496      6.1549608265503606       28.61970535708102
    66   1      10.053566445168116      7.1698936901286094       1.513022333774096
    67   1      8.6104238714444445      8.7137050696833587      28.582351905387743
    68   1        10.2076155521367      9.8368366191091727      1.3146898402137703
    69   1      8.5427213842905498      11.341150188955311      28.598403540589377
    70   1      9.9427993229254419      13.031745771181882      1.3972695308271446
    71   1      8.5897294096041872      14.467266121103272     0.08479151082500494
    72   1      10.047978300125282      15.758196803637194      1.5317589915123224
    73   1      8.4294816318272172      17.020526815690797     0.13532116614647977
    74   1      9.9857991870833427      18.687167095796632      1.3489802902207195
    75   1      8.5992247955159673      20.289317987090467    0.029855948383237716
    76   1      10.069003079379904      21.617517400276974      1.1841219296237337
    77   1      8.6760326776137298      23.173824667977456      28.566376219965264
    78   1      10.284614397988577      24.511963803238768      1.3452414469776601
    79   1      8.6825287145553709       25.86871700519762      28.518360299810595
    80   1      10.162728579692953      27.309056897163071      1.3037832339553239
    81   1       11.62076431766285     0.16969461214204262      28.404601765341244
    82   1      12.809453648411445      1.3448716589679519      1.4721106322651951
    83   1      11.489572510093883      2.8349518346306479      28.662372862951816
    84   1      12.995856696834933      4.2634123943105751      1.3192418679037685
    85   1      11.395915983422707      5.5171314150685058       28.60065339424013
    86   1      12.923199574955024      7.3102670571887156      1.3594766337860607
    87   1      11.688024113443877      8.3046537644353755      28.687320907620716
    88   1      12.955893599033086      9.8841290127029566      1.2390751241527704
    89   1       11.42458242618773      11.436976049891996      28.606456900661811
    90   1      13.151855687719213      13.070231474393452      1.4666740142588777
    91   1      11.423707164613772      14.213160251563998    0.021040963674522583
    92   1      12.739026579801294      15.568093879479491      1.2738793517573064
    93   1      11.554171161319408      17.006845838851216         28.665968834931
    94   1      12.941750804202245      18.416893921901565       1.474466034301269
    95   1      9.9702282590369702      21.606417598363773      27.113765266763778
    96   1      12.913701405410881      21.614280501586101       1.313234029831243
    97   1      11.510229226430058      22.943628149003697      28.581188419732982
    98   1      12.908171591218855      24.421836957607052      1.4702237090101566
    99   1      11.567021840402113      25.922177187913977       28.62879197958965
   100   1      12.596679613498857      27.503060900329587      1.5551106894636184
   101   1      14.369581749030322      28.315912486030118     0.17522956248670876
   102   1      15.922827998508028      1.4838183167951804       1.573554091944491
   103   1      14.473540661634511      2.9806553001177361      0.3006003883558605
   104   1      15.839741125471658       4.407340762205112       1.500609678154545
   105   1      14.384221307178453      5.7314076084125114      28.660565260130657
   106   1      15.637427239056493      7.0997489641664915      1.6149155695303639
   107   1      14.465822951863581        8.67738204404891      28.456096256947138
   108   1      15.778824739114418      9.8328053550370953      1.2371931714006441
   109   1      14.291920324561952      11.886181946002408      28.372335326175914
   110   1      15.689875754463404      13.109228636008725      1.3409581353093574
   111   1      14.546372413839251      14.499392524672432    0.063408737178235738
   112   1      15.884983206989636      15.843047288201237      1.3295413306767832
   113   1      14.284291486755389      17.063331051477068      28.628845314977042
   114   1      15.843092623045747      18.513335887816933      1.3334554248674624
   115   1      14.346736617541787      20.109174573386326    0.012850977362484178
   116   1      14.346592253927966      23.011224827926789      28.649888418023714
   117   1      12.998321094901993      21.638315390151266      27.342459688395749
   118   1       14.35419784119224      22.983405015401708      2.8595986089732834
   119   1      12.954125986449268      24.454169438116775      27.202389586067298
   120   1      15.790566575940639       27.37336625271702      1.5678073428971171
   121   1      17.309497544950176      28.632654249982068     0.11466582492905653
   122   1      18.722000648644009      1.5920201116101118      1.3592541620753875
   123   1      17.283496524320135      3.0899659469972072      28.635628463871569
   124   1      18.546467506611599      4.3466104526433664      1.4937840235934698
   125   1      17.266679214950475      5.8403053237978861     0.15354606022208378
   126   1       18.77241634884491      7.2675730635014357      1.5872556514911722
   127   1      17.087718733332199      8.3424640284536906    0.023335696960180043
   128   1      18.586660921086306      10.028541531119284      1.3923177334818104
   129   1      17.176050936127563      11.466630816212144     0.36818826243982206
   130   1       18.77195315411981      12.847963687810608      1.6485147726256408
   131   1      17.424730130731717      14.423548899045931    0.046014321456141399
   132   1      19.006640652799714      15.838642004842537      1.5820360382002594
   133   1      17.395943198405543      17.143557586268933    0.048177605753198738
   134   1      18.810883627079754      18.394000213856881      1.3966094515313565
   135   1       17.43801716646017      19.939682135525324     0.14150127647681063
   136   1      17.183452023260795      22.956284710550214      2.9698276930073098
   137   1      17.402405021504507      23.077701464076789     0.15196264443072774
   138   1      18.838078674920165      24.511943303978054      1.5977314697390057
   139   1      17.244566652083076      25.775340660076914    0.069430891886838611
   140   1      18.678765225488721      27.347831917854823      1.3450427677232264
   141   1      20.115537682521907     0.15863899577389004    0.067704954365262859
   142   1      21.526534042652223      1.7859637844810083      1.4682419035992669
   143   1      20.161691655056682       2.830050599331241    0.035895362631208676
   144   1      21.792563529609581      4.2967918892057693      1.4191373220945593
   145   1      20.247405211990507      5.6685235026061402      28.681862811806951
   146   1      21.525587426673209      7.2618543169952448      1.5082839095036327
   147   1      19.988451409258516      8.7503451454067385      28.662798103799872
   148   1      21.587175657430116      10.123321462787164      1.4865164532136756
   149   1       20.08451590854342      11.380579591345084      28.569401167609456
   150   1      21.408374902109557      12.896665048270242      1.5650239812779543
   151   1      20.109031868109874      14.091646349147181     0.16674491003162745
   152   1      21.540776595122193      15.595286152621084       1.530533847892628
   153   1      20.126476399583915      17.107380810838983      28.597860626775073
   154   1      21.532154091998471      18.610106998022122      1.4140300147259937
   155   1      19.971034165273831      19.897614770084463      28.674971166207541
   156   1      21.620365685601676      21.416501609502969      1.3939215961102489
   157   1      20.106023296458314      23.125924935276288     0.18589791019804788
   158   1      21.463823294510771      24.406696262221097      1.6258302875185333
   159   1       20.16137640985437      25.909584216532288      28.614790175740652
   160   1       21.55387261392578      27.358200038909136      1.4009964377698574
   161   1      22.989769730457603    0.099038135731690846      28.566873422944873
   162   1       24.43341299464873      1.2827380287195069      1.3208833329326228
   163   1      22.884753981711317      2.6661996098498779      28.604751561557784
   164   1      24.222243318684004      4.1046461075683203      1.1919889253783826
   165   1      22.918115272326411      5.9261981426119767      28.638506446476402
   166   1      24.406831152204102      7.1194728617885525      1.3729437000154909
   167   1      23.001917360902965      8.6143118423954999      28.557489201303966
   168   1      24.540327898081564      9.9824098009895739      1.3267797670252546
   169   1      22.777152925745664       11.68447299304268   0.0023976642413686012
   170   1      24.405414662294945      12.998257679323732      1.4836908916795646
   171   1       22.96083788165361      14.330583562954001    0.094535613859829948
   172   1      24.475220685079169      15.875944218138287      1.6308216692008495
   173   1      22.814337291738212      17.305896270853786    0.034821882557594254
   174   1      24.370312579334392      18.714007504822149      1.2705269213093053
   175   1       22.73776977661354      20.079996149009375    0.067627378756117212
   176   1      24.458223971035487      21.497238439505967      1.5024871382230358
   177   1       22.89875827756579        22.8257839357676  0.00067829865337216727
   178   1      24.456334966886047      24.327246609876106      1.3311011339723111
   179   1      23.068417082986347      25.954019944741255    0.071424393229961067
   180   1       24.32560317753461      27.316948726380708      1.5081369265889639
   181   1      25.817696584250534      28.530938662392572      28.566408461778877
   182   1      27.180050192156735      1.5082579579662247      1.5237788229778979
   183   1        25.9619669377904      2.9995587346178398   0.0028412010610963994
   184   1      27.380463530932076      4.0991907440237583       1.436888632660646
   185   1       25.99226547604367      5.5526932261630382      28.457166378257355
   186   1      27.296534797084664      7.2092127457646811      1.2501714902985441
   187   1      25.769729431772891      8.4870400092737253      28.585350933652794
   188   1      27.312249120462912      10.087994677308348      1.3292521743925703
   189   1      25.950789995690375      11.456747491158469    0.058890869040953905
   190   1      27.314157141433849      13.157637023418157      1.2524583655055046
   191   1      25.782631484986123      14.391993596456853    0.020219628510517375
   192   1      27.433949651397207      15.590633482596729      1.3715027028919038
   193   1      25.794685312773829      17.062275510377788     0.30965636844554234
   194   1      27.230322126820532      18.754664906800542      1.4467143557170061
   195   1      25.889221643218999      20.089466258071319      28.623260413567611
   196   1      27.237624474383843      21.626598391926994      1.4147556760551769
   197   1       25.85264871616506      22.759308700098192   0.0012672627310962527
   198   1      27.090353724086924      24.438527234830968      1.6989484990843606
   199   1      25.915543678623532      25.993821795393121     0.06392261895089163
   200   1       27.08252700619957      27.184941275578034      1.5519482920525309
   201   1     0.10774563934945908      28.632337133317098      2.9086047621999072
   202   1      1.4274154266645724      1.3222829803811924       4.433039790575787
   203   1     0.41374064538291688      2.9382990843792052      2.9885212616392094
   204   1      1.5639824374898472      4.4427372543035313      4.1912034764096493
   205   1      28.558108352700319      5.6632322944768339      2.7358574810681842
   206   1      1.4172978422405664      7.1312346003142153       4.290286409081884
   207   1      28.654418131278792      8.5478287889985971      2.9319236162002689
   208   1      1.7336948824277902      10.035504668473436      4.2243585400176826
   209   1    0.097479251263667702      11.460628408519595      2.9054697954699611
   210   1       1.411281541261838      12.796079527829427      4.3481344900253989
   211   1      28.585330707135483       14.23549992741091      2.7288132979996478
   212   1        1.36621151051544      15.763191916355105      4.1462141070574905
   213   1      28.596749428895382      17.300574979533579      2.8491965079840722
   214   1    0.027097893579572478      17.400910499522013      5.7987755675287378
   215   1      1.5101972393996586      18.711644641608924      4.5088388212200172
   216   1      2.7501935155625699      20.090606093722567       3.059543443246854
   217   1      28.574743970810648      22.821066855783773      3.0657478335824164
   218   1      1.4093192725428716      24.414689715112868       4.529842760387111
   219   1      28.679008955726278      25.806171960121183      2.9994619482749836
   220   1      1.5045072858672275        27.4763038060205      4.2559332693255714
   221   1      2.9870154236169806   0.0086283492708163906      2.9596937007913002
   222   1      4.4869200352284135      1.2920629457624278      4.4925194029064679
   223   1      3.2421227956440224       2.934706974194456      3.0098861467318989
   224   1      4.3006042551459647      4.5221364334261285      4.4279488828846274
   225   1      2.9532655858578032      5.7580963357180881      2.5408379336991156
   226   1      4.3878877933918172      7.2508664504044145      4.2603641692091685
   227   1      3.1132313170869659       8.545279149537528      2.6452216928633323
   228   1      4.2774597377292443      10.058934018719746      4.2571753877455301
   229   1      2.9892398508326501      11.539821924354479      2.6689437194723258
   230   1      4.1749557568648799      12.919821824216106      4.3066338239232493
   231   1       3.023313921752143       14.24706751298582      2.8098825112731109
   232   1      4.3885173148391159      15.694138949775089      4.2057022172717335
   233   1      2.8122618143257121      17.294144364953095      3.0229030105718189
   234   1       4.147309162829437      18.706617764800431      4.3587648908094652
   235   1      1.3918970902983827      18.717680400162909      1.5111471565909254
   236   1      4.3540416784418152      21.261591244134895      4.4328578798988145
   237   1      3.0591232589681865      22.751050465095471      3.0780610809055871
   238   1      4.3983767699382295      24.160625163038102      4.5217167641269134
   239   1      2.9823573185794587      25.533858438397107      3.0590834613868472
   240   1      4.3643646400049185      27.021328273970664      4.2788152158685442
   241   1      5.6439713485493108      28.428927632251021      2.7124763662640574
   242   1      7.2311102366206699      1.3563261630271874      4.5466872099954312
   243   1      5.7815486237628564       3.017182144901712      3.0582075761132774
   244   1      7.1532559615399585      4.2405711738767717      4.3772257192102879
   245   1       5.748915756072301      5.6712645366919849      2.8071940197015008
   246   1         7.3440109030934      7.1318416776167748       4.150690511233238
   247   1      5.8451813535366455      8.8067804352694417      2.8304858336544041
   248   1      7.3015747057838851      10.149083482730367      4.3534988997911448
   249   1      5.8039868960368919      11.719465480570806      2.8035814838585669
   250   1       7.200620639264109      12.877716025323528      4.4272203215157147
   251   1      5.7625975859545466      14.182555344850135      3.0818430097866063
   252   1      7.1167903850090291      15.897770833632055      4.3522896022638147
   253   1      5.7377285460489915      17.283663053835895       2.858044927170317
   254   1      7.0624546778926529      18.879478575986607      4.5064915443172895
   255   1      7.0177478180291777      21.488820671465149      4.3902286040205798
   256   1      5.6532838238235348       22.83990999726587      2.9874705503928145
   257   1      4.3730744783247166      24.252338598179033      1.2812224197002831
   258   1      7.1203491766863998      24.389897582132424      4.1608647802365537
   259   1      5.6837512037224815      25.597351373332749      2.7980370711593636
   260   1      6.9811111073582719      26.830040034321033       4.239582779769834
   261   1      8.6840995450306071      28.571738694090474        3.00525491178843
   262   1        9.83620945963448      1.7267130354132525      4.3243289904633775
   263   1      8.5321604281614452       2.822384341531778      2.8464757344091591
   264   1       10.22479992345275      4.3810998372752792      4.4143733089105863
   265   1      8.8201776892620263      5.4776549856614665       2.772150634354694
   266   1      10.199281845979995      7.1031634448787564      4.2376526659023712
   267   1      8.7904475076994331      8.6666736414377965      2.7856508977899468
   268   1      10.233683578652235      10.056755005112899      4.1561740780928718
   269   1      8.7473700144973225      11.522600524837495      2.6413743408446182
   270   1      10.092488630999362      12.957982938660022      4.0799621137325959
   271   1      8.5837483651584972      14.430928989613697      2.7956012722517563
   272   1      10.260217873419577      15.998127139969489      4.2032259037961115
   273   1      8.4436754427667378      17.447348601906977      2.9042823251124466
   274   1      10.082526917860438      18.670025531001254      4.0930689290807445
   275   1      8.8262748478964212       20.22886749656443      2.8856406529644723
   276   1        10.1195614808179      21.546295966850078      4.1950405939684687
   277   1      8.5657340487825149      22.798787368290384      2.7216981636595725
   278   1      9.7803841387351476      24.457582420995926      4.1857200511560437
   279   1      8.4677331034186452      25.786306763109703      2.6047673185545128
   280   1      9.9243596070015023      27.036825731185552      4.3625298216720401
   281   1       11.13707008577761    0.062437575858871469       3.244831097057137
   282   1      12.827605093891629      1.3502628186127252      4.2240930430147392
   283   1      11.638357860966087      2.9176178374408117      2.8803341329695638
   284   1      12.893281349124436      4.3244243353414733      4.4550792676757629
   285   1      11.701778154702271      5.7281874630878864      2.8611883616386984
   286   1      12.768874305450677      7.3507022608572452      4.4019991225162531
   287   1      11.711541107000173      8.5991160041546504       2.738622223025116
   288   1      12.956061863170765      10.068051945808948      4.1091023613856725
   289   1      11.411465666646002      11.501820741034585      2.6214631390712828
   290   1      12.706685166827555      12.729355544621031      4.3719825715711531
   291   1      11.631358120986123      14.290759549584722       2.802173363141105
   292   1      12.933862874798905      15.786193554978992      4.4041754145983623
   293   1      11.649319086293618      17.180725800391386        2.79064911534125
   294   1      12.870349991590405      18.848638849706894      3.9815827051350978
   295   1      11.343345993316982      20.201147592306185      2.7101060394722243
   296   1      12.924940553734336      21.473541394198016      4.1758118198851948
   297   1      11.495643937939697      23.120134592303565      2.9091748289435739
   298   1      12.927517606413945      24.360759569130511      4.3617071357624901
   299   1      11.430200134035534       25.92683268910012       3.100865591265912
   300   1      12.658768943524215      27.363462862885267      4.4281349209407432
   301   1      14.329434470652179      28.639794716737658      2.8392630839427948
   302   1      15.903075705002989      1.4611478594119156      4.2374702534636439
   303   1      14.169066189567779      2.7478011125211075       2.900162189999409
   304   1      15.605426188345227      4.4604633584769555      4.4329926175248335
   305   1      14.225222582583006       5.758257277504744       2.924300563020477
   306   1      15.658511286062172      7.2876651981358282      4.2351494099178009
   307   1       14.20803058773876      8.5175346977365169      2.7966885901829075
   308   1      15.571902255160186      10.017090186320422      4.3989134707984228
   309   1      14.524899166562554      11.450315734114064      2.7506637245607295
   310   1      15.782954826271373      12.978659335408478      4.2191822045345626
   311   1      14.536798986052686      14.261876974074545      2.9715863678674412
   312   1      15.871379309296247      15.671425171384364      4.3517856346701249
   313   1      14.357240907924549      17.075323990196221      2.8254179696889068
   314   1      15.865872287028864      18.503414471534875      4.1115864851920181
   315   1      14.522156925304714      20.090696606796634      2.3959389423565427
   316   1      15.826116146777739      21.471587875825957      4.2060221018961546
   317   1      15.680397179516307      21.678230771640656       1.238254532371591
   318   1      15.771336108186995      24.525873362099908      4.4402364335286535
   319   1      14.253189617066184      25.951955510953024      2.8168181512738313
   320   1       15.91770312228876      27.375934840395715      4.3634081473627475
   321   1      17.161225624929934      28.698481100118133      2.9489871723623944
   322   1      18.695398116667814      1.3699366838607483      4.3439666471876377
   323   1       17.28212152303611       2.967710467416214      2.8865887991143144
   324   1      18.544050803570389       4.353172208108357      4.1782368201795954
   325   1       17.08502886869416      5.6956944225079686      3.0331519713640249
   326   1      18.893518814889394       7.130787775297569       4.297986175411685
   327   1      17.220816758036161      8.4561319906925796      2.8919928481301298
   328   1      18.804474769149909      10.069441458215515      4.5529482277523643
   329   1      17.142302895499252      11.262694347768658      2.9510053849435764
   330   1      18.612689404784145      12.710794740458809      4.4679065262693527
   331   1      17.581914075780819      14.342042224880112      3.1222909669594587
   332   1       18.68708959431207      15.740174973768125      4.5003205620533384
   333   1      17.087814032442829      17.009517850349759      2.9045982911776629
   334   1       18.65233167924394      18.470782773533141      4.3537121569121942
   335   1      17.382432770024572      20.003770938022928      2.6895389492831323
   336   1      18.726123945268771       21.13631157789867      4.3848285840460282
   337   1      15.713524574179594      24.477699004450198      1.2458638403675064
   338   1      18.707784295254481      24.663149999858561      4.3182349007583856
   339   1      17.186613255436814      25.794375434117836      2.7111298255678435
   340   1      18.646162928642429      27.389013575247546      4.0989052017935075
   341   1      20.256602714068411    0.079939790195749205      2.8603844829247786
   342   1      21.384603630837915      1.7033165860898281      4.2927304686502827
   343   1      20.044559533087536        3.03968556917699      2.8058821853988105
   344   1      21.514264874072389      4.2931087064594786      4.5124264509599463
   345   1      20.084429147494632      5.6936922469621818      2.7350469421746655
   346   1      21.639364059271998      6.9595739410415947      4.4507060463513541
   347   1      20.168955157616679      8.6837043291420049        2.85908087220754
   348   1      21.558506517905105      10.121503955258962      4.4716511632717797
   349   1      20.142903347085493      11.349330333059475      3.0271174815937316
   350   1      21.637210145690155      12.765489164376774      4.3871871506543254
   351   1      20.371228887932727      14.231110789612032      3.0256245744161716
   352   1      21.593597333262384      15.550723426150682      4.3442517914657284
   353   1      20.182811925891983      17.134008368820023      2.8044133197051111
   354   1      21.632340927655978      18.391791114576176      4.3554095783030817
   355   1      18.480749717028608      21.578448771327452      1.2684757335925598
   356   1      20.055455087287324      20.038725650205262      2.5878393341987711
   357   1      19.921881604434841      22.817097979549786      2.9671014404789431
   358   1      21.269779010749232      24.439396280613828      4.3130683908754461
   359   1      19.960797181152778       25.98261926059325      2.8760123584776838