dump/Fe_1350_5/steps_81 (written by ASE) 

1995 	 atoms 
1  atom types
0.0      28.699999999999999  xlo xhi
0.0      28.699999999999999  ylo yhi
0.0      28.699999999999999  zlo zhi


Atoms 

     1   1      0.2274765988983081     0.13898052660464538      28.556220634549181
     2   1      1.3988146498165976      1.5723031506453022      1.2210039848770731
     3   1      28.580716618529753      3.0075223207867552      28.649053236080015
     4   1      1.4632721187093696      4.3754352359864654      1.5452628297956046
     5   1      28.633625847878761      5.7488091738665386     0.07048133656801378
     6   1      1.2417583991042758      7.3123731957927625      1.6606922019632733
     7   1    0.031390157559599702      8.4701247130616419    0.059371384267831132
     8   1      1.2575685516239463      10.309777027439676      1.6094293679335121
     9   1      28.662143265547968      11.504707342780504       28.48534807165872
    10   1      1.2391238092920638       13.03299131968868      1.4862496175865663
    11   1      28.519560009433636      14.759049268336316      0.2332768260191187
    12   1      1.6743905298412536      16.078327088319838      1.7058502170324688
    13   1      28.685585531445671      17.088040896401264    0.027936072675709033
    14   1      28.553015680113234      19.743884866758783      3.0126504895816386
    15   1     0.19988425232375112      19.934620136683428    0.026333809288587418
    16   1      1.2537315956004389      21.490790017778544      1.6257021206090825
    17   1      28.509815580145329      23.025333141961514     0.26338285620968221
    18   1      1.3368507934221061      24.188243872688599      1.7470331563873847
    19   1     0.10646876618109381      25.600107753328377     0.25457515701158406
    20   1      1.4037853456771492      27.319985403273726       1.263213876237592
    21   1      2.9115432521030491    0.067780542647676689    0.050668709285901087
    22   1      4.5630831428515739      1.3085147593649493      1.3484938111832083
    23   1      1.4151398425899859      4.4732619907906006      27.296852193251912
    24   1      5.8456393225090686      5.7812718159341925      28.641027641466312
    25   1      4.2947213164721889      4.4586785334557266      1.4570327286730511
    26   1      4.1733059955942799      7.2665921808516032       1.549104225628877
    27   1      2.7630075167431425      8.4575021635561054     0.14769155330918698
    28   1      4.0536322761250752      10.250260763935774       1.296523311799934
    29   1       2.667431729123964      11.577474387943491    0.048794827618644267
    30   1      4.1762406288468119      13.025459390632649      1.6019948286480938
    31   1      2.7862456428303068      14.488616406096531       0.150014323353139
    32   1      4.2587283287922331      15.564392581240703      1.5847737448636496
    33   1      2.9485075274482657      17.024541195251146   0.0081275624231352591
    34   1      5.7283521982330994      20.160067329277119      2.7578568800893777
    35   1      2.6741362603454171      20.046967099637786     0.07394421911938022
    36   1      4.3437603810627117      18.636783328592326      1.2012516693643545
    37   1      4.3847777886796502      21.483752831859796      1.2904406970597513
    38   1      2.7525063769351625      25.858568268796382    0.088505261436614524
    39   1       1.220100809409296      24.458731422226109      27.459224329654507
    40   1      4.0798333176975046      27.268377833961516      1.5670773400601761
    41   1      5.9145992027850971    0.070539248225772511      28.622677417181634
    42   1       7.350992004294322      1.3952350914323455      1.2566147885428323
    43   1      6.0918623342428972      2.7478503174851192     0.12691961323514517
    44   1      7.4558037411861307      4.1408293034035992      1.4947278156965587
    45   1      7.2823106011669907      7.0291349621388353      1.3862597364740155
    46   1      8.5568039204706068      8.5261316571547869      28.664723693256096
    47   1      5.7386538106218712      8.7358580321079149      28.610486409089649
    48   1      7.1360209082076294      10.166623281000158      1.1538267692653443
    49   1      5.6444616819404017      11.577011876402292      28.544134987170452
    50   1      7.2321975706668606      12.957238165904075      1.1239797030237908
    51   1      5.6522519613866615      14.436966787027247     0.23038195411763798
    52   1      7.1914099847965689      15.680900707093651      1.3995098211148504
    53   1      5.9807154291123821       17.46601769270282        28.5797827923457
    54   1        7.20446116409944      18.808671081313285      1.3308747701083792
    55   1      5.6180981798009695      20.123615136811758      28.584325983106801
    56   1      7.1144707805552923      21.277888684451856      1.1227981706974217
    57   1      5.7594104180233643      22.840607514480435    0.061851988661305819
    58   1      6.9476146677450821      24.263514778396086      1.4679214806206116
    59   1       5.693736216270854      25.926176519472357      28.627248180451794
    60   1      7.4277071224278437      27.046702539574412      1.4914854892881626
    61   1      8.6828540799147618      28.570287484997554      28.699647908713871
    62   1      10.399835185467172       1.284064494708901      1.3850688572836123
    63   1        8.76734756813849      2.7002812504872287       28.64996390353733
    64   1      10.288366263614515      4.4398341976734352      1.3698119811899914
    65   1      8.7663479738510102      5.6403035477896966    0.020218259656371619
    66   1      11.697326000526942      8.6848063095249106      28.567251777406131
    67   1      10.173132117934617      9.9138400168842793      1.2079137382200318
    68   1      8.6203533679211688      8.4518049196580041      2.6289800837306201
    69   1      8.6244573675336458       11.75425875154416      28.523507905280798
    70   1      10.028671342042346      12.662676296611037      1.4399502581254056
    71   1      8.6114933757715573      14.598723205004674      28.502338028339938
    72   1      9.9212315388322061       16.02520242644967      1.1341027235246535
    73   1      8.7046961727737475      17.289084420253833      28.356716182119033
    74   1      9.8457515007660579      18.722623656304322      1.3153173740309045
    75   1       8.574933526222436      20.095471623242126      28.384469959727515
    76   1      9.9052255490785104      21.452217069261355      1.1678390884958498
    77   1      8.4111832112402496      22.839787645216408      28.664962512654526
    78   1      9.8794722581140313      24.098164679747786      1.2688762417691337
    79   1      8.4936203834155659      25.630913537629485      28.560360943377432
    80   1      9.8903729920021721      27.230631334867468      1.3483216681458201
    81   1      11.660092618669941       28.46883380034825      28.587208865785115
    82   1      13.220460688410913      1.5787734038265968       1.482286864209003
    83   1      11.386377909113857      2.8765489330311578    0.057342033258089363
    84   1      12.874621867708688      4.3206382878354148      1.5619899270791178
    85   1      11.529683335576662      5.7034634072688597      28.465936235962687
    86   1      12.915724460135953      7.0159959767149287      1.5151526798999944
    87   1      13.059874329723399      7.1515047380457339      27.051581908060829
    88   1      12.828286804249165      10.049580084156316      1.3435259117322051
    89   1      11.263436362740233      11.510052005471445      28.464636233230596
    90   1       12.73723190099901      12.746544504886769      1.0826989218323553
    91   1      11.375040188589677      14.331432636071209      28.618132150474196
    92   1      12.799386019463508      15.576215576827961      1.3223476183165987
    93   1      11.697800074283776      17.606865671860952    0.022654553623954132
    94   1      13.158933404852846      18.727189904638486      1.3742492916806663
    95   1      10.096963450260805      21.413814346579191       27.41377461963414
    96   1      13.190304774940504      21.519325183178889      1.3779616321309271
    97   1      11.713250827881565       22.98062182216648      28.669522983830475
    98   1       12.82047513496742      24.121891665214712      1.4626112545114673
    99   1      11.495882342970745      25.837411307875616    0.023986427966087825
   100   1      13.073221192240116      27.160228348350145      1.5397573008488621
   101   1      14.448000149475876      28.669002918500045      28.614512887276877
   102   1      16.091214582284103      1.6009201528810413      1.4704573232181142
   103   1      14.548335536038127      2.9462388017159817     0.16334954424385154
   104   1      16.159453056541704      4.3217154458717015      1.5155573683720374
   105   1      14.306475319263221      5.5581997900607671     0.25802874566414852
   106   1      15.695004315268861      7.0115257475157771      1.2732072026697334
   107   1      14.275400583939595      8.5174413967916873     0.03048890263856947
   108   1      15.732844305643871      10.253378574939257      1.3787747639519699
   109   1      14.166544509180737      11.405916075077446       28.43885683636508
   110   1      15.590033061392001      12.719971708037658      1.2940239251713481
   111   1      14.335470494541337      14.378877044821541      28.571242990833145
   112   1      15.759686492751975      15.749837832490982      1.2277255594994243
   113   1      14.322162206638662      17.300261254083935      28.574127135518296
   114   1      15.915994911208468      18.481054197443335      1.4298462693473304
   115   1      14.536146327161957      20.234634807365122      28.432777183339923
   116   1      14.374966143641771      23.007024365185639     0.01097010452942869
   117   1       12.98992439197835      21.485527944141534      27.164522782765928
   118   1      14.355073145926687      22.979155758859807      2.8420976500882489
   119   1       13.06651615507392      24.320472514123995      27.124393896056134
   120   1      15.767829165330394      27.278264934568554      1.5303214833954379
   121   1      17.209329152446561    0.039433428667452509      28.699211408088381
   122   1      18.614270730493004      1.5948972731298794      1.5552717307170942
   123   1      17.500562983834484      3.0650363805574159    0.026808587082007302
   124   1      18.617319271219284      4.3857551221075912      1.4401339923685432
   125   1      17.391521486226001      5.9462532235563677    0.018656761597435428
   126   1      18.893665587682221      7.2132556696365997      1.4833820957551782
   127   1      17.070308387249092      8.7246822794791328      28.659871974277827
   128   1      18.601062138565631      10.228801764185526      1.3445465660077036
   129   1      17.260199374076979      11.543231743398813      28.546350665016412
   130   1      18.577091898497581       12.98413442669894      1.6423028271374036
   131   1      17.256234809874524      14.259529020252494    0.039527109090397555
   132   1      18.563732640628949      15.663759815135824      1.4429823359018306
   133   1      17.349558054572714      17.230109280326051     0.16240185327916387
   134   1      18.717571734667857      18.707180182017808      1.4480168296835134
   135   1      17.351553189387314      20.123431863865033      28.529652439167506
   136   1      17.099982801023845      22.920893606428272      3.0472525257623175
   137   1      17.331878044386041      22.953399246174968      0.1532010479431847
   138   1      18.623394662948037      24.424758381762313      1.3919851748482401
   139   1      16.945099512543656      25.799870419407533     0.19563637791565053
   140   1      18.600581800865086      27.043763792744361      1.5261016173820059
   141   1      19.896050515631096      28.660423293218827     0.17128345433275161
   142   1      21.441803002048548      1.5423275482059471      1.1816733790194227
   143   1      20.117765127992257      3.0034465965159001   0.0052871389456640864
   144   1      21.689842793543576      4.3504758373378785      1.1920836266798116
   145   1      20.047876685109053      5.9359736142290966      28.606231030458108
   146   1      21.659153356546064      7.3244394501444487      1.1155824904488678
   147   1      20.161860509959158      8.8865631532009246     0.14704667578191669
   148   1      21.533379665780835       10.24646427807016      1.5989933567846382
   149   1       20.20873612747091      11.700175388662618       28.62222788716965
   150   1      21.620864754161076      12.818359966357562      1.4552658232972686
   151   1      20.041576948420616      14.249588821360078    0.094560036756649812
   152   1       21.60416255934577      15.780998339017511      1.4886726704127671
   153   1      19.839895274855202      17.179611868399036      28.588868160648872
   154   1      21.520702910415284      18.643674682758981      1.5771581130481873
   155   1      19.922845383311987      20.222044755710986      28.680637622506246
   156   1      21.584572019447698      21.413242557077197      1.4662202901399379
   157   1      20.091995993330336      22.763439863105496     0.14918874058511175
   158   1      21.672875288162455      24.378504125531695      1.3906772400172951
   159   1      20.134446799836009      25.812695394867855     0.13282556936567277
   160   1      21.473370116207182       27.19527609237689      1.4159548432258915
   161   1      22.995745631373445      28.660685066056008    0.046633040325946291
   162   1      24.394824082923808      1.4691096092863969      1.3700677716886629
   163   1      23.110915499335658      3.0397290663436856      28.557795246728212
   164   1      24.439349574905258      4.2561100186185632      1.5390364725505266
   165   1      23.099470483426725      5.9535674406400396    0.059543917964993004
   166   1       24.52971091251969      7.2911692111012387      1.5323506788669194
   167   1      23.053426572391029      8.7871403465754288    0.051189170212740068
   168   1      24.413305978875862      10.341385796209218      1.3927315033130649
   169   1      23.163633342006435      11.439487525363903       28.63592414707886
   170   1      24.403040285025138      13.044534750961446      1.3900733651845374
   171   1      22.897690297885585      14.319279575718955      28.614441758160865
   172   1      24.248683498281515        15.9266989212749      1.6578889626002127
   173   1      22.851419975959018      17.199773878611229      28.584541400260125
   174   1      24.349007363951646      18.410810786468769      1.4541706761078441
   175   1      23.103615543126594       20.07979120437561     0.16529570841656771
   176   1        24.4060423903897      21.369589153059472      1.5075109760645211
   177   1      23.126021138505656      22.961092989679639     0.10678203231813095
   178   1      24.374648208033747      24.373185472328977      1.4279753329325893
   179   1      22.916912203915501       25.85406500254981     0.15382021450345756
   180   1      24.540092591664983      27.127523479170357      1.3757661163715282
   181   1      25.854721576198546      28.639598744116491      28.575430845916088
   182   1      27.374997050506551      1.6677152481849815       1.570436038253036
   183   1      25.865150319615875      2.8438832582235611      28.666242139008336
   184   1      27.311860100015259       4.467896639592615      1.5323371389041427
   185   1      25.833711846717595      5.8193039050977973    0.090582607696626349
   186   1      27.388595640390772      6.9826713464186829      1.4912940645672035
   187   1      25.781737796219993      8.7811087045713592    0.043442213568471402
   188   1      27.317885897379654      10.146583382097321      1.4910696678364612
   189   1      25.913226061049524      11.690337466656047      28.693146646949415
   190   1      27.291226511911567      13.011648654967312      1.4397536145297423
   191   1      26.073599254385819      14.524478896152175      28.688950813959369
   192   1      27.182502811944701      16.120519125245504      1.5957489506923475
   193   1      25.845905069293302       17.39292780874565    0.042361876166353271
   194   1      27.194335917528612      18.705773132618649      1.3395177730996688
   195   1      25.767676055038667      20.031976077629245     0.13282557090245736
   196   1      27.285261978822838      21.372895152508125      1.5735880147899701
   197   1      25.879582161622491      23.015843492993767     0.31536023191429241
   198   1      27.270577410313585      24.343444603506477       1.688980649140478
   199   1      25.960591302225453      25.723725983426444    0.061741393783802223
   200   1      27.234210955313692      27.437617589100302      1.4473365811441783
   201   1      28.668375195516479    0.081220135955607217      2.8587938619923978
   202   1      1.6017981336435587      1.6359623335616793      4.4841519272597417
   203   1     0.13278732060541676      2.9643548918488749      2.8462274399964831
   204   1      1.5496922190166973      4.2575859174900499      4.4434608770863662
   205   1    0.077387674132945172      5.6793193254226475      2.8375593838602966
   206   1      1.3879454577106116      7.2907078596790402       4.235654093806434
   207   1      28.512772411263938       8.843981184478503      3.2130459024697773
   208   1      1.4816898996504049      10.301390416710772      4.6222289063381208
   209   1    0.015892332965098361      11.506866239312922       3.138312348602482
   210   1      1.3836537229065253      13.063651133388746      4.7376266615190934
   211   1      28.677727034546894      14.452146195011617      2.8368373774257161
   212   1      1.2179081818945536       15.80799036145927      4.4138160786249774
   213   1      28.612581664253927      17.353299124345813      2.7729350171585798
   214   1      28.474412117268798      17.301278762417862      5.9341344062684991
   215   1       1.497153655329853      18.715175977412983      4.5030413848020991
   216   1      2.8878464128351546      19.940733715505278      2.9825166903987363
   217   1     0.10855000207873382      22.703135616463857      3.1983297540230571
   218   1      1.4347784256919003      24.414937417801482      4.2385186970881668
   219   1   0.0068380222149944207      26.030190827097844      2.9621477211120526
   220   1       1.441379537168793      27.367819948056567      4.2439956170870099
   221   1      2.6660506725008881     0.16143922106520012      2.9024623612804556
   222   1      4.5221477044945484      1.1432843607457688      3.9201265535529148
   223   1      3.2232414186127816      2.8437677528821488      2.8298173181487418
   224   1      4.5841926477800925      4.4106602480052715       4.328753147810712
   225   1      2.9956607793928267       5.747834001516626      2.9081702126007469
   226   1      4.4964335730423564       6.932961356507275      4.3168910664703093
   227   1      2.5646350999212126      8.7099721534594678      2.8630989406283542
   228   1      4.3028534944042907      10.084824835898798       4.429288590194842
   229   1      2.6548085103667067      11.765435243888346      3.1488523519139004
   230   1      4.1712812094383001      12.850612203869943      4.3000366864276831
   231   1      2.6013653775344561      14.227442260651479      3.1084058542133066
   232   1      4.2934340064973773      15.837881827116664      4.2744724942101797
   233   1      2.9643838008351864      17.316186388273437      3.0319871734632753
   234   1      4.4230675113675249      18.492292981356346      4.5967820301433449
   235   1      1.2467281290255781      18.686967505803217      1.5873976831991978
   236   1      4.3880350520728255      21.265764039337601      4.5461915414331955
   237   1      2.9310249951126486      22.782506763259089      3.1439173359134549
   238   1       4.298607317679795      24.296173874199617      4.1637741801162509
   239   1      2.8471937497946453      26.056090664458374      2.8550679696798849
   240   1      4.4069677736017239      27.290000830459704       4.137114396487223
   241   1      5.9534993725231482      28.500998296454213      2.7274202570247894
   242   1       7.215772577260223      1.1619657423106233      4.4163783911750674
   243   1      6.0587762403973002      2.7302409229048954      2.7239862655632132
   244   1      7.3023724386874846      4.3960731477209647      4.4489458477285506
   245   1      5.9271310046431687      5.6938287614830898      2.6227061819993072
   246   1       7.000056159870323      7.2797861899724809      4.0598910123311649
   247   1       5.556937497026663      8.9426164517641649      2.5418593366693014
   248   1      7.0201430752613394      10.122830473828577      4.3544147785224352
   249   1      5.6392317821477365      11.467700310933511      2.7959381136330976
   250   1      7.0860017385933123       12.84425464070272      4.2981832565080333
   251   1      5.8481449110911621      14.254623039763661      2.8975238096770433
   252   1      6.9472946374980937      15.961427542423168      4.2393436898418679
   253   1      5.7314369331006727      17.247237744714948      2.4820673554912438
   254   1      7.1107420812062401      18.493884755079453      4.3590910651929216
   255   1      7.0973257191671655       21.48609322598082      4.4358849555197795
   256   1      5.7386694961741034      22.823692199415802      2.8834909824154198
   257   1      4.2230816110715423        24.2843620018199      1.6839617612005082
   258   1      7.2374478779242315      24.085915170159883      4.1929265005629199
   259   1      5.5268995210631822      25.806837951942715      2.9118138218654313
   260   1      7.1678399481519133      27.075914355529431      4.2635943819866338
   261   1      8.6289992154713104    0.073857878076080505      2.7560660966085369
   262   1      9.9736784672561729      1.3405925337553066      4.4125688134612844
   263   1      8.7083272376738705      2.7154629062947149      3.0854184749435394
   264   1      10.245600147185376       4.364209524873317      4.2844016567739454
   265   1      8.7782227344798098      5.8254000527400196      2.9295605768147568
   266   1      9.8808643048186457      7.3106451563185928      4.5177656627412786
   267   1      10.107898854077243      7.1226875423757674      1.3943637902957915
   268   1      9.8565738619595891      9.9862498626067016      4.2791485724098095
   269   1      8.6179049186859018      11.302996568633183      2.7826938208331153
   270   1      9.8962916775378549      12.788099653470155      4.2127923117628923
   271   1       8.406336943279257      14.492538142583092      2.9403547165585131
   272   1      10.036461776449348      15.700374961939351      4.2424451819551781
   273   1      8.4701524214961932      17.232942692574696      2.8247558260444392
   274   1      10.138298633926052      18.432666063780996      4.0878259884279062
   275   1      8.3975744348757893      19.926564111053285      3.0487934853872463
   276   1      10.085344641966181      21.399860353527163      4.0829663593551722
   277   1      8.5555094410401207      22.723519696773721      2.7400826703989409
   278   1      10.014522116949236       24.17884859697589      4.2208855732197552
   279   1      8.6781611851710334      25.706600249019512      2.9383426086468201
   280   1      10.044164889866567        27.3116834532137      4.2552969724952945
   281   1      11.329075784255242      28.565100903752167      2.6847347210949901
   282   1      12.975776867068159      1.2552145903152436      4.1009534911215253
   283   1      11.477100711055991      2.8727680079184337      2.8023089165223705
   284   1      13.323201529413689      4.3256545456387361      4.4003882908569132
   285   1      11.435273978621673      5.9629264913811371      3.0235331656605284
   286   1      13.168096499029076       7.110456753665793      4.2281542908043219
   287   1      11.362038988995799      8.4407342375642855      2.7276355481373118
   288   1      12.724089170907469       10.02430023765011      4.1418869535618716
   289   1      11.255289358886218      11.418465761450271      2.8466830358896584
   290   1      12.680172067174317      12.936486029746298      4.2377810926034769
   291   1        11.3501968648879       14.26234699813326      2.7918992932565732
   292   1      13.052641654745312      15.665550281986839      3.9633348497785925
   293   1      11.423763478958524      17.234831160813744      2.5851689001916722
   294   1      12.870068907908285      18.154288282926142      4.3601190787251438
   295   1      11.590674382011498      19.842669532598485      2.8337572236542092
   296   1      12.906039820735097      21.377998812930326      4.2793285705795672
   297   1      11.539580989554153      22.804575657084627      2.6247180476830749
   298   1      12.831878298167023      24.158246264362155      4.2595755502145707
   299   1      11.359138030291966      25.698440105151764      2.8094027703539939
   300   1      13.041995383684929      27.271024876812167      4.0552922046187838
   301   1      14.392624589403116      28.646655157195571      2.8625656149777323
   302   1      15.797905817648926      1.0966591698944863      4.2792330058433992
   303   1       14.37061881667071      2.9465264727713167      2.6855932694320144
   304   1      15.861586306161517      4.4699973711882066      4.4520055043308329
   305   1      14.577292204157564      5.7468826468510024      2.9164356029800809
   306   1      15.704452890990297      7.3120335966792549      4.2242535818571261
   307   1      14.354667720342931      8.7461695768984633      2.8579719285558767
   308   1      15.741743040736004      9.8870510299102179      4.2055335728663445
   309   1      14.236604075854267       11.61109736539616      2.9068238519171379
   310   1      15.598202050877537      12.788537180215828      4.2772445661988012
   311   1      14.243303997958625      14.344192983730414      2.4599835552012577
   312   1      15.778554878514489      15.790268376312227      4.1536772810572193
   313   1      14.304015584211644      17.127855749806915      2.5809245519341286
   314   1      15.708071585110728      18.543554161261014      4.2596653853219433
   315   1      14.358268109460241       19.97743365536304      2.9550549957990877
   316   1      15.610981026388609      21.257700971560212      4.3771715798366024
   317   1      15.805156273416953      21.594118661692676       1.363937381628068
   318   1      15.440867996555598      24.284834812783597      4.7129471335891138
   319   1      14.384976639047395      25.507515048943617      2.8293768253044385
   320   1      16.102354363543327         27.147035426258      4.2339233783629231
   321   1      17.379999670634064     0.25120697847304441      2.9290546920448239
   322   1      18.895984951382818      1.5282111136841408      4.2592932381031936
   323   1      17.197341713673801      2.8751227662245151      2.9813551941931418
   324   1      18.627848014797348      4.4805122655769676      4.2453946233244579
   325   1      17.199803242009409      5.8005876521161683      2.7937692922914605
   326   1      18.447181013556925      7.1998964591440329      4.1283812876077945
   327   1      17.138999996025671      8.4439077002125256      2.4909385891938549
   328   1      18.426767652071774      10.061931533444522      3.9312250761761156
   329   1       17.08462116178471      11.415658563333444      2.8188994284982525
   330   1      18.444033537358205      13.020861728509951      4.3176867998638535
   331   1      16.835627240370588      14.086907277407525      2.8255606226429104
   332   1      18.436701612659697      15.837612628420612      4.3026237016672884
   333   1      17.397480248962786      17.290559623934204      2.7941570374983149
   334   1      18.667415753110973      18.711531354431695      4.4868940232734822
   335   1      17.126323502918449      19.941622105542617       3.046759852334493
   336   1      18.727837227496693      21.540369729786676      4.1792612535323554
   337   1      15.802323042156505      24.254740845930957      1.4373713213446409
   338   1      18.605893652628012      23.988219614285693      4.3755230084809771
   339   1      17.369404069677419      25.509068480019064      3.0657201964990279
   340   1      18.793614437833771      27.351665761618758      4.2156660051938468
   341   1      20.058134260684831     0.28930489109531099      2.8934795831599671
   342   1      21.558927205913054      1.4042593452833225      4.3525211511148711
   343   1      20.142052850187948      3.0838787064571513      2.7268663991688626
   344   1      21.729455876884966      4.3753037361567468      4.2228317444858332
   345   1      20.265613769070598      5.7446051046867943      2.8580904303596397
   346   1      21.929585511072062      7.0676525441941225      4.2820434880590632
   347   1      20.132087015402586      8.3867520787330854      2.9653042645713938
   348   1      21.427860682806891      10.100182998458138      4.2310623520826711
   349   1      20.038994112967469      11.614784011464323      2.9091853534022145
   350   1      21.354308540558211      12.953576204305888      4.2772489580256305
   351   1      20.181313564763883      14.370512917573855      2.7949751886633054
   352   1      21.245267212648571      15.931875878842519      4.7211308589168235
   353   1       19.99374939505153      17.086282377268649      2.7725314249653477
   354   1      21.486978996077841      18.654049156923094      4.4529319211104141
   355   1      18.651910374212108      21.483289355615963      1.6236411210090398
   356   1      19.963186699245021      19.957895335561112      2.7252382243769246
   357   1      20.297436743202955      22.883768497856707      3.0072119105207475
   358   1      21.509026602007939      24.491104459828055      4.3670694170750792
   359   1      19.968924429373615      25.684706551111013      2.8260973846580204