dump/Fe_1350_5/steps_71 (written by ASE) 

1995 	 atoms 
1  atom types
0.0      28.699999999999999  xlo xhi
0.0      28.699999999999999  ylo yhi
0.0      28.699999999999999  zlo zhi


Atoms 

     1   1   0.0099536347453767181    0.046564280169868008      28.421158650992751
     2   1      1.2465937529093831      1.4588381404962101      1.0882917169079753
     3   1      28.486583146285358      3.0822431120432432    0.016657908064360055
     4   1      1.4809806146695219      4.3239308379132559      1.2772310818948649
     5   1      28.445518509784225      5.8134087130370578      28.646126717433354
     6   1      1.4357092188456366      7.0062603677331214      1.2917561509501529
     7   1     0.12206689888379514      8.7778838342476071      28.651368164236974
     8   1      1.1865373095880392      10.012290505552835      1.5496325646582927
     9   1     0.27029331027231429      11.494803382974624    0.049917552348381418
    10   1       1.465027591670685      12.976818203641594      1.5440090475723198
    11   1      28.515880772677008      14.179685479888864      28.510172949540888
    12   1      1.4951055385328349      15.879642860637146      1.3687237660931497
    13   1      0.2700976381594189      17.267857806866356        28.6698875693709
    14   1      28.550367502263967       20.08843838688254      2.9437431617028942
    15   1     0.10266043746858138      19.951189580214063     0.01641646690493416
    16   1      1.2767533849449029      21.436812639185892      1.3214364146503506
    17   1     0.16075808297557914      23.045462462090487      28.431582524037982
    18   1      1.5932555116582221      24.250746507362795      1.1921152152441541
    19   1    0.029654978827116981      25.904011849633733      28.532082458924975
    20   1       1.614798786941529      27.590148517033608      1.4402616240821648
    21   1      2.9414054174846487      28.595735287054453      28.602654200966029
    22   1      4.4254328747791867      1.4231048625071014      1.0713749920343838
    23   1       2.895349623097478      2.8980512597206523    0.044158055239074727
    24   1      5.7234331147471211      5.8383634386924959    0.030410488881477692
    25   1      3.9584642650992028      4.5680737285969384      1.2237139823685208
    26   1      4.3288013392865077      7.2847835837256927      1.4881623180828456
    27   1       2.681061654381562      8.5621706607880554      0.2093401888451922
    28   1      4.2602012565697223      10.144900554061595      1.2999476351572983
    29   1      2.5665947348655109      11.527225307703484    0.041954001058945749
    30   1      4.0089269506903928      12.861321605404051      1.5039238538158755
    31   1      2.9058865388586232      14.156133077064027      28.548828079720526
    32   1      4.2903529943158443      15.668125767576909      1.3788195613069076
    33   1       3.023614970076657      17.351746686294248      28.577057438808556
    34   1       5.498995548413947      20.275288255059777      2.6627395477745601
    35   1      2.9916007878185789      19.928901285659563      28.613690982440545
    36   1      4.4015932081012448      18.659586838659273      1.4158102691280412
    37   1      4.2311663072645276      21.538729334940655      1.2974241682500165
    38   1      2.8400672149797761      25.943735259492858     0.09337299707076456
    39   1      1.7292432944711009      24.265461810506242      27.295590265034491
    40   1      4.3397372573841917      27.311799991946483      1.4876985370009939
    41   1      5.7340506249071952      28.687926543956067      28.359412083543774
    42   1       7.121585014036163      1.6518723996992311      1.6778779132314967
    43   1      5.8316310101490423      2.8537347537150373      28.698789880814978
    44   1       7.254815340063411      4.4959504341098677      1.4085597188004619
    45   1       7.386975647524717      7.0652012384646206      1.3830407495619517
    46   1      8.6796233503078337      8.5818081337116041    0.048875293795572282
    47   1      5.6407040587461914      8.8200319973214256      28.675851268860061
    48   1      7.0670237050106319      10.018493775882408      1.3681442595507851
    49   1      5.7214518683897353      11.509075494526698     0.30998452132984039
    50   1      7.0423242786929325      12.769515007788781      1.6790018902416255
    51   1       5.697899172675311      14.225943310670582     0.25653780769492868
    52   1      7.1519060802656371      15.915725961719506      1.6955652827858219
    53   1      5.6617116871914064      17.107647839591959      28.663674446598012
    54   1      7.1257579114693055      18.876356744415357      1.5453995923424593
    55   1      5.6431887929790046      20.154834164580759      28.643847743997416
    56   1      7.1360603620908529      21.478751160435763      1.5516611185010105
    57   1        5.69463888981696        22.9362288692531     0.06861019665493584
    58   1      7.0357175403625556      24.593242806268787      1.6183933377914173
    59   1       5.604980745199712      25.791113075350658      28.511529459994833
    60   1      6.9755227893765808      27.261205136810506      1.3481542329484344
    61   1      8.4773241138380389      28.680181200128047     0.03051726655578469
    62   1      9.9337500268893457      1.5818525650734616      1.4682339088772545
    63   1      8.5505364589596518      2.7638930076282704   0.0039377636160565846
    64   1      10.333943681698299      4.1871245465171505      1.2090246190751039
    65   1      8.9092715898557238      5.5933401320822709    0.031521653483753138
    66   1      11.666580451593203      8.7949094042732359      28.619214140477656
    67   1      9.8814876506302838       10.02883044587055       1.319543001374633
    68   1       8.688078335691527      8.6641573758442796      2.8444470249857652
    69   1      8.6106611074979735      11.617519715400496     0.12595162829286435
    70   1      10.132996232588813      13.010831417716028      1.5307921794596835
    71   1       8.487074236369919      14.236552242391554     0.30547216823925966
    72   1      10.061414494473604      15.644763428283214      1.4814535713014496
    73   1      8.4150928729200629      17.227925586952448   0.0045092265040125191
    74   1      9.9595742520738906      18.382527503403228      1.2986562475905437
    75   1      8.7004549365669206      19.993611077575615     0.10857837140895288
    76   1      10.000451308999981      21.528906768952048      1.3448161374049961
    77   1      8.5895721712269086      22.909783796716258   0.0062683398665171761
    78   1      9.9446984061824857      24.226346781589985      1.5828090663947032
    79   1      8.4151816440863474      25.856414425120267      28.533989389700636
    80   1      10.146158858337099      27.348810102818025      1.4243927152605353
    81   1      11.550429947209272    0.047869816207357391      28.466901801694462
    82   1      12.993288245717983      1.4518766608464373      1.2762515748825636
    83   1      11.760078410278027      2.9231795721589733      28.484339119353283
    84   1      12.918501607305037      4.1093591391591406      1.3211465704739558
    85   1      11.744991320162974      5.6873198705980252      28.462274781586604
    86   1      13.129579080704998      7.1215592239884016      1.4302553642831979
    87   1      12.930705684245599      7.2314709811948417       27.20175793798423
    88   1      13.094816985657914       10.01230409182471      1.4009517221483641
    89   1      11.693127359005992      11.389091581471579   0.0040584527373653248
    90   1      12.969458123356429      12.894154461780861      1.5021608090615366
    91   1       11.58330068119167      14.232472183719356     0.16996954285526714
    92   1       13.04780405554788      15.761112452073144      1.5188522893397816
    93   1      11.775909362204484      17.028650676939588      28.607881576417117
    94   1      13.289865716970466      18.455837783782194      1.5421206816942106
    95   1      10.318824998444448      21.358878274052184      27.414531211119893
    96   1      13.063927953364866      21.392288386244335      1.5600702513362992
    97   1      11.634542591250273      22.682760968396053      0.1520140977464505
    98   1      12.947460058316429      24.356976052424752      1.3056262609658558
    99   1       11.15376929362859      25.824354479577806      28.680473659358725
   100   1      12.808149118687243      27.219220780771693      1.3578232222638333
   101   1      14.301514946790506      28.576903288495433    0.042301814958102472
   102   1      15.648524744119504      1.1787227002612108      1.3699139233015107
   103   1      14.404029446583051      2.5392580144678738      28.656791726108271
   104   1      15.859663080521415      4.3178189462981438      1.4332450557336853
   105   1      14.418096587062829      5.7143548479270407      28.659787148588947
   106   1      15.800191629133431      7.3656328650288838      1.5154689921234981
   107   1        14.5271320689689      8.6632195331203992      28.523871770367805
   108   1       16.02838494851472      9.9411429950233217      1.2235269321260371
   109   1      14.285528247056854      11.567321851286112      28.662772380589168
   110   1      16.026766810762954      13.027836109678256      1.2673417168634828
   111   1      14.439483642197917      14.418943495287804      0.1051963893637663
   112   1      16.097314200393722      15.691951670264105      1.4236145031393688
   113   1      14.568892096952652      17.127606059873116      28.624861715609526
   114   1      15.889120421290116      18.420388377727736      1.3039166152890047
   115   1      14.251656119587485      20.042073077404787      28.563347532443263
   116   1      14.375436883094881      22.923750964795289      28.536909230853581
   117   1      12.920529388667145      21.443259027016456      27.161956065486194
   118   1      14.265749289886047      22.828940865109946      2.8993825047707178
   119   1        12.8227769379678      24.221936304891369       27.38047748104178
   120   1      15.511585056452553      27.349927401210394      1.5414966951510798
   121   1      17.237542497268706      28.633522648298982   0.0017050346738528782
   122   1       18.49238826768325      1.5301974821966844      1.3359970280872284
   123   1      16.948083635460151      2.5568329326828358      28.397348285593939
   124   1      18.510492053030124      4.4274573862161262      1.5555263445379965
   125   1      17.100867455558827      6.0012364251744295    0.060980361762313008
   126   1      18.794403077831085      7.0997655875259813      1.3736573603851763
   127   1      17.320588720770846      8.3991865700416302    0.028776153919602632
   128   1      18.636343718061404      10.091958854397715        1.35387121576431
   129   1      17.254482051145541      11.561529920840986    0.005840286167608612
   130   1      18.810488974639686      12.779122623707046      1.4545466072947648
   131   1      17.473971065747353      14.316596058438376      28.468771144169949
   132   1      18.792961616184154      15.774391328141169      1.1928603961713844
   133   1      17.415802104692144      17.070556173446136      28.595062712551623
   134   1      18.609254180648417      18.430971629393561      1.1459620771605488
   135   1      17.420201962157211      19.993470791142595     0.03431296215524076
   136   1       17.17032942157546      22.893664748142996      2.8325411203410211
   137   1      17.261426289743042      23.037539445415781      28.665363232333121
   138   1      18.705251906373093      24.377221027772425      1.5066077742103736
   139   1      17.232719119374476      25.994657633878258   0.0046731886596376128
   140   1      18.622845302089175      27.168965226678274      1.5131398678440622
   141   1      20.121344416584332     0.19530929678686548     0.10871642261002987
   142   1      21.462336331775798      1.5605311833207107      1.7029272711505317
   143   1      20.005885141039393      2.9443977587269243    0.062541855922188583
   144   1      21.502324283772595      4.1295214347107816      1.5603785057741548
   145   1      20.291406305222264      5.7473073922442799    0.059629678929218131
   146   1      21.439490469518468      7.1702109546528012      1.7842576388717934
   147   1      20.433117141035858      8.6143006349062414     0.11118875721010681
   148   1      21.457922157178697       10.20167725132424      1.3494082030901267
   149   1      20.303785217689192      11.364207108516306      28.403415312511285
   150   1      21.286291733418071      12.981982957664959      1.3052478825947116
   151   1      20.225948981871902      14.455880755526472      28.502578512200039
   152   1      21.526000094310177      15.851604397604756      1.5119378089505304
   153   1      20.134262297748723      17.215918163784234      28.533691491268954
   154   1      21.380506350302056      18.659855998403849      1.3993351445526974
   155   1      20.281830724762692      20.086098052138208      28.665922580859274
   156   1      21.374272264812102      21.461070783838533       1.483746544117184
   157   1       20.16468960476001      22.816151310292337      28.524010796816928
   158   1      21.504470835494022      24.254365640915541      1.2973317079328683
   159   1      20.241283840427766      25.897668922776631    0.045964064483155237
   160   1      21.412805841502554      27.323756518822989      1.6351326668164003
   161   1       23.16118376864102    0.064021044918899858    0.018542736858228173
   162   1      24.571496753417016      1.1263104880746584      1.5783371374661319
   163   1      22.916300514839936      2.9664326589594636      28.690079978875225
   164   1      24.423668542183041      4.5698603813998826      1.0209667983082791
   165   1      22.847835168910571      5.8866467372414473      28.566449759216272
   166   1       24.63187084230681      7.1047311267075584      1.4322119555000428
   167   1      23.050208605456891      8.6584825878696794    0.097380563618116894
   168   1      24.281640790636619      10.067578541656234       1.450989282029628
   169   1      22.875786279378939      11.450393958631331      28.517578935125982
   170   1      24.266470706957207      13.167116574778147      1.3164625890383042
   171   1      22.663254831930001       14.35522531099963      28.640033598370966
   172   1      24.428401478742643      15.648060631203135      1.2900380002180887
   173   1      23.066354199699553      17.245623918629249      28.630555139511472
   174   1      24.161744595469575      18.784047127249142      1.4887268574855159
   175   1      22.954581771417526      20.139469715260869    0.063222282124911447
   176   1      24.477065391961631      21.411007044633145      1.5554418989047469
   177   1      22.944786691336407      23.198893113439453      28.651999118841932
   178   1      24.276378108250203      24.394007317070596      1.5077966579757445
   179   1      22.825420270725225      26.062467349216021      28.692341084360095
   180   1       24.42490545358536      27.298673691250059      1.3931950700281499
   181   1      25.955570263198197      28.675514533032331      28.547718111901474
   182   1       27.14801473197765      1.4617640625131785       1.327448400217293
   183   1      25.955379682152383      2.7621520400404078      28.697450947832088
   184   1      27.071699486343281       4.475527992286767      1.3513665468352074
   185   1      26.181508859375597       6.018020543185262       28.43081791719456
   186   1      27.243340797556947      7.4678640161113679      1.3142738452359248
   187   1      25.823291262895438      8.7361113774746553    0.025431311621105113
   188   1      27.167111209948384       10.29855946635513      1.3961286564008657
   189   1      25.705536449236735      11.513855300966521    0.063425740407387701
   190   1      27.356851389245278      12.721149698470418      1.4302659767562091
   191   1      25.879982132697769      14.148934888722547      28.552876396012877
   192   1      27.292961309524756      15.829958466371869      1.2736380936351217
   193   1      25.914993917205525       17.14242450189823      28.592399171940158
   194   1      27.380215453059215      18.798715863911482      1.3501570565017795
   195   1      25.839854213765804      20.036467196112632      28.690523031723643
   196   1      27.447549780832862      21.609694717470365      1.3601783556725768
   197   1      25.651665263175406      22.980246620286621     0.27379403514846662
   198   1      27.385699684527612      24.508315378813641      1.1886008380339712
   199   1      25.880075003444063      25.811704004836912    0.092301440630524104
   200   1      27.329268920371465      27.264519436944852       1.319996579645863
   201   1     0.04288158847029052      28.644980130284527      2.7355901189439016
   202   1        1.51346050232147      1.5436899774600306      4.1314607939329315
   203   1       28.63013237518523      2.8394010617469125      2.5913231712383888
   204   1      1.4181601351244799      4.2077519544204725      4.1240540437387763
   205   1       28.65722909346394      6.0117664451907302      2.7132913237884266
   206   1      1.2492919844486454      7.2764808519089259      4.6833777048571958
   207   1   0.0015304470755388704      8.4759193530830679      2.8699717749356752
   208   1      1.0805101983670873      10.062664813218424      4.5253442349773563
   209   1    0.051257264660501782      11.542919342526949      3.0267718879893737
   210   1       1.440535392467474      13.143978683183596      4.3215919814153434
   211   1      28.631089408446005      14.510542432503442      2.6631203536290728
   212   1      1.3982085542550984      15.837648618414253      4.2582835452552317
   213   1      28.574188800744626      17.278531162684502      2.7708568283164592
   214   1    0.022315186979291479      17.185740531071353      5.9472223925764611
   215   1      1.4746717972157073      18.735420890685649      4.0364920171626206
   216   1      2.8279990802661272      20.199071501155419      2.6765590881158801
   217   1    0.059032731999595231      22.945231686052423      2.8698519292121785
   218   1      1.3975463069739269      24.339911420953925      4.1870050979203199
   219   1     0.15257974591798015      25.889512837263251      2.7784703679286169
   220   1      1.5886295658932941      27.352740289153012      4.1054992207681957
   221   1      2.9586289974998858     0.15783022145491279       2.802572754466838
   222   1      4.5385232983886938      1.5179327129579849      4.6306522167516819
   223   1      3.0495327420458671       2.825478495048515      2.5607922149697981
   224   1      3.9106464515999027      4.2987681730215037      4.3917890272732905
   225   1      2.4828797169231627      5.8966595690588273      3.1471929313845615
   226   1      4.5065337106122296       7.036703725069243      4.3472182169636575
   227   1      2.6561705840917162      8.7165433677714699      2.9781783903436212
   228   1      4.0486776031425666      9.6639218839666654      4.5853735738694139
   229   1      2.6416473929349666      11.440660713573294      2.8980633595955649
   230   1      4.1005568141129691      12.621973642236116      4.3899312499336656
   231   1      3.0253744079943345      14.483503063370385      2.9986967981994344
   232   1      4.1442455326439065      16.044758072893938      4.4273523262558676
   233   1      2.7811985230387113      17.336736579689056      2.7952538916279654
   234   1      4.2253785929079255      18.881447722250474      4.1688943282138897
   235   1      1.5785408157306733      18.732005897242001      1.3919808236042512
   236   1      4.2916616469230773       21.69004131055468      4.1390253403702078
   237   1      2.8424501997048774      22.898526960583204      2.8678374447822543
   238   1      4.2492574661609677      24.526989759952826      4.1941520358016398
   239   1      2.9109737828847462      25.847002886813936      2.8803372540028089
   240   1      4.4549422344231617       27.38525448639156        4.20559072284997
   241   1      5.9428597043571711    0.042468687738016923      2.9158995431613057
   242   1      7.0879424040856032      1.5401937369538701      4.5199225391100288
   243   1      5.6358161147930748      2.8493976990362051      3.0471003114796331
   244   1      7.2896519652400551      4.2798311709831172        4.40660792122726
   245   1      5.5522502474701643      5.5508796368579372      2.7715201848232813
   246   1      7.1183057496762192      6.9929175049804844      4.0846855545754366
   247   1      5.8373771992945702      8.5217196654704566      2.9102236814604709
   248   1      7.1167986103466019      9.7097556865179957      4.3500150469334056
   249   1      5.5668033819540694      11.136480766683075      2.9201164440484275
   250   1      7.0644809827311175      12.739482127032876      4.3226668527096761
   251   1      5.3141053104564673      14.512603452551515       2.939933479667221
   252   1      6.9618502696125564      15.863442270871909      4.3289395478921886
   253   1      5.5533393860081368      17.159205756066967      2.9206237482722019
   254   1       7.096111681739437      18.826185518539642      4.2445911609421341
   255   1       6.953857247252162      21.554831674541461       4.216239837702453
   256   1      5.7851970641235679      23.061566779258964      2.7741077244587919
   257   1      4.2641175455204214      24.416137650153157      1.3001802875273578
   258   1      7.1968311699130725      24.282543999835362      4.1310470219416899
   259   1      5.5776952608960668      25.891600352276644      2.9588156004467092
   260   1      7.1311243825329687      27.199845491044346      4.2426377422718105
   261   1      8.4069488971483448    0.039692521843403723      3.1000271382501539
   262   1      9.9544608074501237      1.5073469478467354      4.4957707121469301
   263   1      8.4863038937179418      3.0431755070620841      2.7583440675813096
   264   1      9.9700555903148569      4.3850030850199389      4.2324014384503625
   265   1      8.9888736743838198      5.6681233739925121      2.6603707590756804
   266   1      10.043599564615542      7.2656168193271027      4.1691251765424342
   267   1       10.28656805633203      7.2956996017748725      1.1201981941711219
   268   1      9.8765335758746176      10.019971864133538      4.3403757410360502
   269   1      8.3946546068262915      11.276934159058735      2.8654344334539679
   270   1       9.973236851371496      12.930189319753433      4.3635705263398705
   271   1      8.5670927026332944      14.281055078034504      2.9933242831708866
   272   1      10.015415664057123      15.772648780539731      4.2957941433112294
   273   1       8.442238858949084      17.295807225501282      2.9405094080595977
   274   1      10.083757848870494      18.648207329634666      4.4523908046504932
   275   1      8.9396324881316467      20.128126766481397      2.7382388327394453
   276   1        10.0824080714939       21.38420920935274      4.3776184639917233
   277   1      8.6996765014358139      22.803335398255573       2.916702707205149
   278   1      9.9881780373326343      24.243765875886105      4.2320224252925849
   279   1      8.6841711509756383      25.865467868918316      2.8752218199053705
   280   1      9.8347236126768678      27.495679511629149      4.3078989384513964
   281   1      11.442479590595154     0.08039510866505023      2.7230753998329522
   282   1      12.738289243363155       1.243876921134675      4.3730378736237698
   283   1      11.521889138582672      2.7107365209889847       2.831761671441086
   284   1      12.789912915107294      4.2504587610996598      4.5248033572280519
   285   1       11.50206571236108      5.7365487112463711      2.6416274997905931
   286   1      13.031152180961728      7.0584954412557037      4.3113655283894916
   287   1      11.683024877285003      8.5389284161411059      2.9072910437536641
   288   1      13.024325432575457      10.023182759290796      4.2202784047020208
   289   1      11.419594066567791       11.54090458882038      2.8114430896660001
   290   1      13.138690543429012      12.821000084124142      4.2580762061251258
   291   1       11.51921996354147       14.31955176245601      2.9321428155354048
   292   1      13.035248220640286      15.501876158414637      4.1769832892744354
   293   1      11.288288838180046      17.037891271856491      2.9289205088065193
   294   1      13.070403745153623      18.667292087368459      4.4045314443370547
   295   1      11.535444107551545       20.34191217886783      2.7328159701785464
   296   1      12.803273710902479      21.350268478459753      4.1773340946405684
   297   1      11.471394538651637      23.082393194939485      2.9285055572792844
   298   1      13.008814716590212      24.489823919542605      4.3618106041751554
   299   1      11.536815249160352      25.704716902149286       2.868632406778465
   300   1      12.623351681012362      27.351886609558289      4.1981818339737442
   301   1      14.375222001452231     0.14844246368251113      2.8744638660046524
   302   1      15.974411385125133      1.3406278251906445      4.5757918224497809
   303   1      14.123866607187482      2.5008934186831877      2.9503278398105883
   304   1      15.584384452392406      4.2894618206004322      4.4806115491653724
   305   1      14.657435430944608      5.8745669800284359      2.6379873710949706
   306   1      15.784258897903253      7.3403095985704629      4.5071232910286438
   307   1      14.430309606020939      8.6615515426385254      2.7485593352155768
   308   1      15.792563274333999      10.003082653482096      4.1004171875282491
   309   1      14.396143809700147      11.517649523823875      2.6276267588581494
   310   1      15.503339599921167      12.856465510642177       4.292526403954577
   311   1      14.441222559134383      14.274083658285949      2.6836295016106977
   312   1       15.77558525388134      15.397033630791134      4.4019184761146199
   313   1       14.75378515060617      17.003206313818303      3.0173354988520691
   314   1      16.007850510488439      18.771231276638076      4.1948080145842424
   315   1      14.563835976869663      20.098620942704624      2.8111920264145409
   316   1      15.678388702811215      21.470565093700916      4.3912238018219263
   317   1       15.91344414781952      21.467522736281161      1.2703901244278775
   318   1      15.766368316996086      24.239162090587278      4.3077692779374317
   319   1       14.47755952175388      25.986007844508325      3.0518630029748866
   320   1      15.940000047572219      27.403676200903991      4.4854789886275181
   321   1      17.346722183517727      28.608623385689583      2.9265077895905365
   322   1       18.59805775200914      1.5506693639389142      4.2819737619278442
   323   1       16.96476992303144      2.7305155879110079      3.0857595942175813
   324   1      18.546912489225832      4.1112521197108904      4.4145860157681414
   325   1      17.184303500597562      5.7322317862625169      2.9569877441198829
   326   1      18.642375769483174      7.1201556944033895      4.4521449714325483
   327   1      17.427680529034902      8.3940203123838764      2.7367769110802223
   328   1      18.604015054996371      10.013522126282268      4.6383284089106382
   329   1      17.287629637970383      11.458862096672201      2.8925248995840689
   330   1      18.763090264723417      12.901915637163782      4.6275155195598874
   331   1       17.58820964044175      14.129344073971662      2.8874029507827657
   332   1       18.81977643763247      15.424947578989585      4.7686309063585446
   333   1      17.387850874021819      16.664413935463468      3.0038679400032686
   334   1      18.557088303604719      18.811366888077334      4.5676208166963645
   335   1      17.455225499040594      19.986046723154832      2.7014400117807336
   336   1      18.530082565514071        21.6832497490241      4.2725727970288849
   337   1      15.620574290184457      24.414236598004244       1.497895127548917
   338   1      18.467002985419096      24.443310121597211      4.3494009310074464
   339   1      17.319029393721927       25.64892996821315      2.6592717634351053
   340   1      18.477231204654174      26.955282134592668      4.3033831713009043
   341   1      19.905234609218002     0.16208170207319206      2.9116952589654961
   342   1      21.490569681434916      1.4994870825212392      4.3688565189780331
   343   1      19.825401885021503      2.7801067545729325      2.8493248439463503
   344   1      21.550244936483839      4.3049630037903031      4.3005241650309785
   345   1      19.848242729703284      5.7301458154239624       2.873711053607567
   346   1      21.404371681540013      6.9182231372043503      4.2564485211465728
   347   1      20.116156889309398      8.8695066506972662      3.0144276923798103
   348   1      21.488411701491717      9.9073386955702603      4.4699607472497123
   349   1       20.01144774695452      11.321422263003253      3.0514242498033366
   350   1      21.423983744657377       12.95794336767775       4.391239933814945
   351   1      20.117211019624143      14.357823674189271      2.7734789394902011
   352   1      21.530384246094737      15.795960575067323      4.5152869372382449
   353   1      19.984905703601928      17.386546405060962      3.1343756666870051
   354   1      21.451933888132576      18.619497743930175      4.3006612381910454
   355   1      18.587645144317531      21.682276364395118      1.3907786280119363
   356   1      19.867452041473729      20.011498803574277      2.9665520800214256
   357   1      20.140210907462134      23.071032557453172      2.9080484474789965
   358   1       21.37558823130664       24.48750891863634      4.4463134600111553
   359   1      20.061716669530348      25.680764319742444      2.7961370092152484