dump/Mg_900_5/steps_11 (written by ASE) 

3995 	 atoms 
1  atom types
0.0      32.100000000000001  xlo xhi
0.0      55.598830921999998  ylo yhi
0.0      52.130399999999995  zlo zhi


Atoms 

     1   1     0.62557272588721236      55.488584042784623     0.18491249778755955
     2   1      1.4916498054343306      2.6576819054192411      52.015714405936905
     3   1        1.65434207732468     0.92208091793431057      3.1150040289827472
     4   1     0.24707326406378394       3.768349658548904       2.657199924767641
     5   1      31.928833597635368      5.6415523562306342      51.894339229949999
     6   1      1.4806255633891423      8.1806938240063793      51.957559902129766
     7   1      1.7535348834166726      6.4906014265098726      2.4527898627810005
     8   1     0.28334720156256105      9.3359481343650899      2.5323963058044541
     9   1    0.066391300910747048      10.946127638348591      52.085156587080249
    10   1      1.4476675034485309      13.697705258445746     0.39885350732361741
    11   1      1.6825681891641375      11.998052442828422      2.8006160736014012
    12   1      31.915151822795444      14.774343079824746      2.4816779698109039
    13   1      31.991956475635668      16.668481412145802      52.020184195268648
    14   1      1.8094431607215631      19.289640114694304      51.948840699725849
    15   1      2.0308974026951447      17.323829850396141      2.7974436475039561
    16   1     0.24037273477882914      20.224978147588931      2.6139136930967903
    17   1     0.27214347482752282      22.158772448026237    0.077358339357111908
    18   1      3.3447231817926246      25.819670573866091       2.917519657806027
    19   1      1.5685960238737293      23.035931607771793      3.0380537612989582
    20   1      1.4686652439440335      28.362081377549135      2.5906716963186311
    21   1      32.038538278176723      27.315027226599906     0.25090936300839095
    22   1      1.7044645125357896      30.200992196258564     0.15172206469780763
    23   1       6.550486354665197      28.068564466912232     0.33689400477707754
    24   1      32.080403457301479      31.284895364960079      2.6253774970711428
    25   1        31.9939054393123      32.933539870706973      51.794069312178529
    26   1       1.412343086253967      36.233865576748158     0.36980707430390347
    27   1      1.2002785412488293      33.909332317781313      2.1669869577023055
    28   1      31.768672289550903      36.881273044445734      2.7236017978004656
    29   1      31.878409072161372      39.103854170124414   0.0015406356630144719
    30   1      1.7281422370369397      41.799344538521289      52.124863791227575
    31   1      1.3934799471674888      39.960586372935452      2.8820484598150813
    32   1      31.815730039068438       42.87839557191456      2.7700516056557474
    33   1    0.097930838486962934      44.450022104832385      51.946438729773519
    34   1      1.7026466171869195      47.309258125787103    0.030193365118196008
    35   1      1.4846141714184822      45.313898895380007       2.389696210681878
    36   1     0.10567282363510092      48.255125731563226      2.8507429876071977
    37   1       31.81682954917483      50.158936963716833     0.48140362451074603
    38   1      1.6723719836522524      52.980249390001497     0.10043264838678524
    39   1      1.5081295995980692      51.077740669755876      2.7593858685110919
    40   1     0.22424827431046093      53.765484206399243      2.5714550412411499
    41   1      3.5163870573755727      55.463696244961405      52.113226045045963
    42   1       4.641423759751925      2.8306688014454719      51.975470021466499
    43   1      4.7316012575584763     0.82966645755487067       2.706055134824414
    44   1      3.3146586616293527      3.6314755351755452      2.6415294227448873
    45   1      3.4889894755670219      5.3873733428938362     0.10156743557584444
    46   1      4.6886075944478671      8.3121561705621474      51.751354292299517
    47   1      4.8685314113709088      6.2247392548889078      2.5361318106313333
    48   1      3.1364408312378602      9.4648181654246599      2.2410186912034717
    49   1      3.2341040602706035       11.17866500927488      52.102267775767352
    50   1      4.9690793216819324      13.691339675806624     0.23065841343539711
    51   1      4.9005204899640749      11.859202434674019      2.6667178256015576
    52   1      3.4540552702393521      14.817126118588972      2.7509235692112064
    53   1      3.0160794070779509      16.395427701469011     0.14150215849502221
    54   1      4.9450919939076829      19.252878409450577     0.14076510107159196
    55   1      4.7500373357143841      17.652013913973864      2.5654279173330194
    56   1      3.0764132699154074      19.999382433302856      2.7195526886639811
    57   1      3.1856251885716351       21.91110858608965     0.31471066568384615
    58   1      4.6723858902074005      23.125682332736094      2.5048577692789018
    59   1      1.7828552106702222       24.90572428171313     0.47427381984718736
    60   1      4.8401139644614783       24.80137698032237     0.36742916899743477
    61   1      4.8190423708544765      30.766382041639069      52.033133180007418
    62   1       4.562348249331853      28.745947940323806      2.6453936114545331
    63   1      3.4798698695981436      27.572677139808892      51.996008299650299
    64   1      2.7869587348350993      33.276402042418226      52.111765904521889
    65   1      4.2305295715131797      35.979244650922347      52.018184019663302
    66   1      4.5731454403803991      34.410024498134938      2.3504359765722853
    67   1      3.1211565971160335      37.182614726824703      2.6508302317278902
    68   1      3.2402765509937912      39.095315326457701     0.21698693613126299
    69   1      4.6350466118770468      42.250174809844914    0.077602162814816369
    70   1      4.5532163113674944      39.945839625680151      2.3329563678662155
    71   1      3.0113535404282774       42.50387556165996      2.3714823613658735
    72   1      3.5224577866205853      44.923344300845294   0.0067128535215622599
    73   1      5.1967695139587677      47.370929968896206     0.18462581046693655
    74   1      4.8754294441339976      45.342485581783421      2.6560385560554924
    75   1      3.3770755521621476      48.035856514787625      2.3094281621755486
    76   1      3.3388644893550516      49.882389038674184    0.027253878096747494
    77   1      4.6343297353076824      52.891558271420102     0.18131842531766335
    78   1       4.582136227827843      50.571410521885078      2.8116673986425722
    79   1      3.1629505821223391      53.947032615100092      2.4209440932513422
    80   1        6.50174392842972     0.14078301853625735     0.15541854911206757
    81   1      7.8221581415059127      2.8590948308411908      52.110258944702608
    82   1      7.9925161942823753       1.042908499644406      2.5798870202362743
    83   1      6.2887070141871702      3.6096175731491007      2.3035350713625107
    84   1      6.3724115944459081      5.6854165365822373      51.837296510953195
    85   1      7.8323444533995232      8.4420944795606641      51.991120725795362
    86   1      7.8917955312729848      5.6553558315909154      3.3155517577883962
    87   1      6.2282466043901703      9.0705856557956377      2.4767687590639964
    88   1      6.1290669812046916      10.859698851145744    0.030108596881458352
    89   1      8.1298416412985812      14.041304850790004      52.108359167825519
    90   1      7.9878512258124008      11.885649468429207      2.5581491170039503
    91   1       6.663010766635292      14.823887959999952      2.7681994848065217
    92   1      6.5260957903787906       16.59011015767349    0.077334646406069393
    93   1       7.989342919893085      19.479570225726519      52.054486168159634
    94   1      8.1369935297309617      17.537556281052638      2.4566232140300519
    95   1      6.0929616041871801      20.416434293473817      2.6029253808340216
    96   1      6.2652805354441821       22.04152301382733     0.20985607219937277
    97   1      8.0767255293718261      24.775298727531958     0.39888935806838083
    98   1      7.7873028023910589      22.882699735767364      2.6933164368636606
    99   1      9.5436527417070636      25.870114503835914      2.7481415011462809
   100   1      6.2534987765683194      25.684171254110883      2.6565063773896749
   101   1      8.2654103514791046      30.576350705725332      51.955931727237569
   102   1      6.2430467387800892      31.564453883241885      2.6796000076579194
   103   1      3.2459143201708618      31.485560634312147      2.6861244406386815
   104   1      6.5874358685094458      33.345247830431902      52.004553679791272
   105   1      8.1985532263015806      35.975166629463018      52.100111794480895
   106   1      8.3107947579222063      34.259140515746353      2.3738033418198792
   107   1      6.3068911874142213      36.790159642796972      2.4826270394830834
   108   1      6.2511132708815014      38.161005551089133    0.053772137858513265
   109   1      7.8900082955448259       41.29602673764893      51.810180280610723
   110   1      7.8703001073640886      39.941863025118494      2.4068502168448704
   111   1      6.5976587806250624      42.702008298676979      2.0642427821615255
   112   1      6.6114277490526963       44.88881754632456       51.91696611443556
   113   1      8.2930444465752426      47.642890439546242     0.23275386412078389
   114   1      8.3747933694421004      45.500757416521381      2.6381682341630461
   115   1      6.3009104111143337      48.048223484533999      2.8709635257193153
   116   1         6.2335696957049      50.255970356967467     0.17971710147278819
   117   1      7.4412028743742633      52.594910898869948     0.29824923644562013
   118   1      7.6493123348473029      50.956184230566087      2.6915757238602875
   119   1      6.4890843622815906      53.991247753646221       3.077447308162292
   120   1      9.7880357148072488    0.077201942427799722     0.20801259589669036
   121   1      12.482411019692782      3.7045586888651636      49.687361168209449
   122   1      11.265045956462476     0.93406690272460124      2.4157912274375217
   123   1      9.8603895823979322      3.4858794975899041       2.725895039046919
   124   1       9.564363389637542      5.8853491219479022     0.44689217648734936
   125   1       11.01420433396032      8.6164713274065505     0.35892577130950704
   126   1      11.254583692385125      6.6949722372845404      2.8746183039373396
   127   1      9.2737590707478468      9.2147443757080705      2.8094599009280365
   128   1      9.7110943216628343       10.96570575207979    0.067301468627922426
   129   1      11.377956632917074      13.996372587914996     0.24404880781620752
   130   1      11.326437618130855      11.894369187888808      2.4228345719200495
   131   1      9.5387786628231925      14.579059958123159      2.9976967877906149
   132   1      9.8836018898410973      16.515182679847303    0.030601534715743131
   133   1      11.015311182926411      19.218457202650669      51.991772227131491
   134   1      11.371013629106196       17.78601329415439      2.6109611096480161
   135   1      9.5090742667296642      20.467174808124142      2.5055396906693908
   136   1      9.3491368840779288      22.202670533274844      52.085493090054108
   137   1      11.218623165523681      25.017324843061129    0.082096402559819676
   138   1      11.052945154555045      23.101524082816415       2.373023204558546
   139   1      8.0206296033050268       28.77137386636317       2.488261879582756
   140   1       9.900147042154293      27.873446897095008     0.13208329002548577
   141   1      11.093974276696336      30.561311543139418   0.0084797888700518503
   142   1      11.471930183811949      28.296574337263902      2.7082926821549096
   143   1       9.346525475398888      31.416881822726619       2.500430214070728
   144   1      9.9764640580760151      33.310601230074404    0.030578609660604227
   145   1      11.221422353169684       36.20197344862494      52.130185517634438
   146   1      11.107210264867637        34.2765738950892       2.527677085935959
   147   1      9.4732894428742824      37.099860426941646       2.644822037071032
   148   1      9.3858043502990274      38.846883709351431      52.081522732915857
   149   1      11.176839936786651      41.758100767939723       51.89824668491687
   150   1      11.272071270076172      39.629244405103691      2.4206082912271873
   151   1      9.6332517240860582      42.538585286433324      2.5537968652646441
   152   1      9.7101398774546333      44.334788674742597    0.040291282419684445
   153   1      11.473203318219582      47.457798626010039     0.25232324123427674
   154   1      10.992500147726849      45.555015821710519      2.8581549975622886
   155   1      9.6520841778312239      48.499121520779831      3.0838759045470181
   156   1      9.3552271149396091      50.236926780729398     0.31300702149521414
   157   1       11.25602650539034      52.956902690100023     0.26115100959831677
   158   1      11.132160429685147      51.017136832820576      2.8417786446342177
   159   1      9.5654692677421806      53.455463578944226      2.7342845562296989
   160   1      13.024607603270868    0.098486663258195967      52.073133740717864
   161   1      14.631199401615769      2.7825955458468608      52.079719875985624
   162   1      14.282393588517373      1.0626956836342054       2.749526925809076
   163   1      12.923194002302225      3.8682291184097974       2.302407530240199
   164   1      12.737507238448549      5.9516359777085244      52.085692604124219
   165   1      14.487325912996637      8.5629852913206985     0.19010329104143203
   166   1      14.172039239578202      6.6355698570905659      2.6543323380830026
   167   1      13.025273767365279      9.3884456894160468      2.7850850091392005
   168   1      12.972794847421557      11.241078553171562     0.20598820934290474
   169   1      14.641567051940047      13.583339992801955      51.842514749490817
   170   1      14.576064124275614       11.93669474514528      2.7188985693497862
   171   1      13.045847502915684      15.093226304755131      2.4556969003702971
   172   1      12.827716713932571      16.874111120446727    0.087848018718155313
   173   1      14.199901830236028      19.247937441847373     0.13359188902802854
   174   1      14.625980247315814      17.686032313115479      2.6232319859012154
   175   1      12.770499949735513      20.187384999919136      2.3434534691759463
   176   1      12.541557045237518      22.012951509555723      51.946736280060293
   177   1      14.258388283451614      25.122922570616183      52.076044279890915
   178   1      14.818849365011578      22.663569244357308      2.4827265702043095
   179   1      12.958838039852882      25.518112668346465      2.9172750491587705
   180   1      12.701096791709501      27.829514393329362      52.083652135263208
   181   1      14.544116052633834      30.307721166724811    0.054507783633376661
   182   1      14.480200923652825      28.742320122337272       2.883208570974638
   183   1      12.429565882371163      31.027713751769269      2.5440321437437889
   184   1      12.745641258980507      33.374762776275588     0.14008225154932896
   185   1      14.422840556318226      36.434967036565546      52.065063890837685
   186   1      14.204793889042614      34.183028855229225      2.6571798036061431
   187   1      12.849737885850145      37.012022049141926      2.5450715801886603
   188   1      12.947312311942042      39.265483627062878       51.97152199930148
   189   1      14.549781541309255      42.010088351506724      51.930578747550484
   190   1      14.568581187778133      39.882374174120045      2.3217492894574874
   191   1      12.848910229516806       42.20824439015432      2.4991343376365016
   192   1      13.147155370843153      44.715417932455523     0.30801418783326867
   193   1      14.510024422748645      47.403198107241145    0.022897632781950158
   194   1      14.063282041538104      45.435386182478972      2.7656457247656419
   195   1       13.07787617680505      48.305446885562674      2.4813951671359593
   196   1       12.79824221475746      50.296273372346818     0.37395330233231844
   197   1      14.546853169258243      52.923572060969903     0.18009056998549705
   198   1      14.387484081259117      50.828540085304205      2.8740444527666926
   199   1      13.015280375971461      53.603049465742565      2.5135053416406992
   200   1      16.351872672382918     0.37476279723198336     0.33191038384502247
   201   1        17.6057685589732       3.391420483940907     0.17561044060997003
   202   1      18.242198675030586      1.0302499466132655      2.6431451682092835
   203   1      16.030633722937207      3.6772510997411021      2.5782182663609858
   204   1      15.768174711859661      5.6130620731541185    0.090298494736113663
   205   1      18.011838285747018      6.5276872421723189      49.380006748584144
   206   1      17.824317245076109      6.4101499021938038      2.4836198097804898
   207   1      16.277560242005151      9.4510282258535145      2.6116201207167431
   208   1      17.704276009205611      8.0043338614082611      52.034485487198438
   209   1      17.766932068652512      13.848485039215465    0.068354766646107651
   210   1      17.807672735314277      11.963670669739701      2.2287284397742582
   211   1      16.096020028126532       14.79991627423844      2.7885366347884291
   212   1       16.03203202238042        16.2467215283869      52.112583103240155
   213   1      17.358922297541298        19.3220166761235      51.940774243486388
   214   1      17.684304011402645      17.237727331811133       2.607931368635942
   215   1      16.184007590219803      19.929523479411937       2.616919069295577
   216   1      16.071841538659132      21.993811367089684    0.017147401051581596
   217   1      17.374806401189151      24.966355791662561      51.762974849629543
   218   1      17.553139575481303      23.153096932492396      2.4928252380428666
   219   1      16.021829758605012       25.97710841679379      2.5652842361977202
   220   1      16.232054561442535      27.684529307769086      51.755834064909173
   221   1      17.474558301341197      30.918211493513379      51.851972354393915
   222   1      17.604075430684006       28.57248411739285      2.5598359576076075
   223   1      15.831472606606248      31.552448877165034       2.480161476781102
   224   1      15.884895066245074      33.585972411611316    0.067552180539006329
   225   1      17.389019202828006      36.175622093377818      51.893896252903993
   226   1      17.484955854254579      34.599590915978894      2.8200254209040043
   227   1       15.86433093486492      36.810791541776346      2.2882666053888494
   228   1      16.002624559397727       39.06489453801116      52.110203862856032
   229   1      17.546543633017627        42.0437615310951      51.836842893352234
   230   1      17.296178366769929      39.773022367155797       2.548895969939792
   231   1      15.888602054843835      42.899076691975353      2.3794685872938688
   232   1      15.933047762874525      44.790239691107665      51.775212313500383
   233   1      17.387375627579569      47.445789016277317      51.881312803037659
   234   1      17.119197597891162      45.605706407507917      2.2213488035634765
   235   1       15.85186788363411      48.446207385521099      2.2543718817985132
   236   1      16.214862046360075      50.408951588963951    0.075656270460677688
   237   1      17.551956181155997      53.052372402135042     0.26164629328171957
   238   1       17.73234628736029      51.238127287831851      3.0234620163544443
   239   1      16.305144817320663      54.127674417417481      2.8321880314622812
   240   1       19.43017374918605    0.081092442511279075      52.061837620577521
   241   1       20.89619895412665      2.7398450141983282       52.04901477986413
   242   1      21.177870037329779        1.15957269044293      2.5369627805994837
   243   1      19.346565637172922      3.9147002558109367      2.4491834505488876
   244   1      19.490594872151618      5.6461664559799809      51.907233204612588
   245   1      20.983495426410695      8.3588163558762005      51.993426321350725
   246   1       21.00931111614706      6.5785453467904338      2.3870738970511458
   247   1       19.41697453482157      9.0557716386927236      2.3900553057993217
   248   1      19.857061053183926      11.438804597132082      51.921055691648796
   249   1      20.910859500522523      14.207336377883246       51.76949500911541
   250   1      20.860686839900268      11.931386226457807      2.5591225304502028
   251   1      19.571213450702913      14.765391571524177      2.7615000274944692
   252   1      19.431691080929106      17.219167985132504      52.100337109993241
   253   1      21.251719292582379      19.503271309062388    0.077074619324845509
   254   1      21.299257703752332      17.584262693884785      2.7044581130788661
   255   1      19.308222808923304      20.128719099290301        2.34378865004533
   256   1       19.17758651308127      22.145922238503147     0.21412665084355173
   257   1      20.424359223582709      25.067883911948098       51.70594935407459
   258   1      20.929619376588551      23.453958117707359      2.9192064093811929
   259   1      19.305962000392888       25.57391787827623      2.1713016300257837
   260   1      19.179468875084169      28.195313505164652      52.058761924534672
   261   1      20.707670223037898      30.461011256296683    0.013651012788521688
   262   1      20.639087882340309      28.686053464006832      2.5552372508903805
   263   1       18.97561545838937      31.649202950791107      2.2996917211746553
   264   1      18.928461604863955      33.528916828365936      51.776022077566438
   265   1      20.771111138427756      36.039754244253217     0.10125357113260799
   266   1      21.056846067589639      34.547926174075627      2.5911109127436598
   267   1      19.068124056914012      36.981268646311833       2.527101210081339
   268   1      18.815651560169975       38.95994918121302      51.785018449480582
   269   1      20.734607870918474      42.287453537346408      52.098820381552343
   270   1      20.402347775723747      39.962910959871387      2.7423953428219008
   271   1      18.883176260330739      42.899300760498427      2.3657818613215107
   272   1      19.295020868543695      45.186878777154988      52.036438423494666
   273   1      20.662691795580656      47.553536407210991     0.15570982684042578
   274   1      20.938159603336633      45.347569312173128        2.59127203854373
   275   1      19.123585563184431      48.527983850617446       2.432834777420732
   276   1      19.680505249309629      50.413809158779173      51.925813894892002
   277   1      21.037715296766034      52.830744662718722     0.23669672458922525
   278   1      20.941147672475875      50.877833633615893      2.8860847190209027
   279   1      19.271186598848136      53.983175868370829      2.5159527450734585
   280   1      22.523737259799532      55.480957669621098    0.026410457516372016
   281   1      24.145310639419982      2.8191468020891359      51.966393117499976
   282   1      24.069591485419707     0.68238700450518397      2.7188912249676576
   283   1      22.665452397508687      3.7640363272541628        2.65187709649841
   284   1      22.663106984494981      5.9917864878596587     0.24296333037904735
   285   1      24.577190632594689      8.3731831940861809      52.090636520673492
   286   1       24.22404979861977      6.4093645482460504      2.7473167460031589
   287   1      22.539604358433248      9.1576493937563637      2.2463847063083699
   288   1      23.188766590469751      11.130198872415461       51.73793480051998
   289   1      23.944447052028668      14.045726609429256      51.966552624628541
   290   1      24.046949663916379       11.96327171911781      2.5101746358456452
   291   1       22.45132496015599      14.663342546749481      2.6168463910233077
   292   1      22.531525182277008      16.903086382458074       51.80909363777571
   293   1      24.526033892197862      19.856069381166741      51.818359406554286
   294   1      24.193626227477402      17.930319539086856      2.3007572334190804
   295   1      22.481029394501963      20.775878734792279      2.5438645502510004
   296   1      22.502771752873716      22.570064425888216      52.026785572824714
   297   1      24.476179928201525      25.088217040861746    0.013353154869852536
   298   1      24.320475496297256      23.173617486647995      2.4291968361481797
   299   1      22.628245982008874      25.933445590188054      2.1428576670250887
   300   1      22.496600441495566      27.842527024390076    0.056218585375877823
   301   1      23.921708613167361      30.463993576040583      52.072578128762515
   302   1      24.056125779023944      28.931969350091677      2.5500943436259971
   303   1      22.420674214658057      31.468342613625563      2.5396480720124011
   304   1      22.537374032891535      33.136876445077604      52.044399683311497
   305   1      23.624836149489219      36.352196928596442     0.18196331018120049
   306   1      24.100434153992396      33.809726393899311      2.6587464577057256
   307   1      22.115667884581804      37.701002811620647      2.6070193494121523
   308   1      22.095387335448414       39.44764015077434     0.22873345846959711
   309   1      24.047305226801718      41.642129224735548      52.044379181885382
   310   1      24.160094207286782      39.755716988956245      2.6022052009587902
   311   1      22.370060277155968      42.407699563085117      2.3372378152341824
   312   1      22.336581293279149      44.880573151742553      51.822267005364203
   313   1      24.405073169901208      46.804024752849728     0.26345370097408966
   314   1      24.166127041557818      45.456990213013178      2.8337046866837117
   315   1       22.32911057711804      48.066187381944417      2.5164455675120725
   316   1      22.545384060711562      49.892976054963839      51.855297550506656
   317   1      23.928614973281569      52.594100988235105      52.074204380290873
   318   1      23.919476878590658      50.929391575175423       2.430062925644549
   319   1      22.033253404744261      53.535761656736625        2.38680795108076
   320   1      25.442048178087468      55.039249952727822      0.0492504210901763
   321   1      27.184475992740619      2.3441501728635634    0.046343220200987995
   322   1      27.385222071493079     0.76350715501647937      2.7559882034307255
   323   1       25.76765422638945      3.7498478242704807      3.0060148610276007
   324   1      25.974048489892429      5.5180892836133211     0.22567817935519505
   325   1      27.550103854363751      8.3042439997665021      0.1557406975726193
   326   1      27.226825960533869      6.5065837681184524      2.5821261613438469
   327   1      25.740199047279788      9.5342007069348007       2.785164746235107
   328   1      26.024750479474779      11.181385283811203      51.952005323580387
   329   1      27.159324226435814      13.978549845000071    0.013611578940449278
   330   1      27.066045139825164      12.321875083806916      2.1069743156873084
   331   1      25.680248237679834      15.092086700863108      2.5142595191026516
   332   1      25.599113627208308      16.887931240591044      51.547235711466783
   333   1      27.672183732328325      19.267504447067328      51.780423966848666
   334   1      27.264865332697568      17.681336494403713      2.5642142314342289
   335   1      25.926406171957101      20.652818552105519      2.5841980916768263
   336   1      25.776059388611884      22.456722254933759       52.03761617159968
   337   1      27.714384988196809      25.147634164950038      51.909565003915596
   338   1      27.346072055264521      23.393261029244815      2.6846596834137704
   339   1      26.066165873045307      25.770315882379091       2.258140001076133
   340   1      25.742300274563021      27.805458425707137      52.072871358014666
   341   1      27.397982239437077      30.574795661136694       52.11695976221197
   342   1      26.844250264034436      28.703365800816965      2.5581150985261747
   343   1       25.64105249763432      31.532815571634544      2.3046551887107563
   344   1      25.783556504627153      32.977879448790425      51.800547316686831
   345   1      26.883847870776719       36.21109424219776      52.070582385566297
   346   1      27.207145024789739      34.362327680496641      2.3326165296251138
   347   1      25.476008441903765      37.171900342798338      2.4576964801212728
   348   1       25.28416773189856      38.944936160053736      52.037797969193122
   349   1      27.412542854666764      41.829538948545121    0.020106534625326546
   350   1      27.076009306824609      40.002242899942374      2.4354401725982848
   351   1      25.771260549755734      42.922014427800356      2.4679049884846793
   352   1      26.029077312799377      44.544086091340859      52.031773733181424
   353   1       27.34877760776283      47.271298498702386     0.32308366456751808
   354   1      27.411277946851783       45.28492969152915      2.5757696363951457
   355   1      25.261131464518858      48.196251785318083      2.4872032928088816
   356   1       25.45252897657301      49.981093355413137    0.052941939519987199
   357   1       27.03763184820145       52.93345072391373    0.038964704687127136
   358   1      27.341047860442398      50.889092414746685      2.4510022230461037
   359   1      25.517686179522169      53.528461751332621      2.5855738669718704