dump/Mg_900_5/steps_61 (written by ASE) 

3995 	 atoms 
1  atom types
0.0      32.100000000000001  xlo xhi
0.0      55.598830921999998  ylo yhi
0.0      52.130399999999995  zlo zhi


Atoms 

     1   1      32.036501330544006      55.242909411754724     0.15258253753486445
     2   1      1.8419722207675853      2.4970078558932758      52.123550026369976
     3   1      1.6146834202869413      1.0480227756620082      2.7476189719598443
     4   1      31.759411595965251      3.3771266306746242      2.5569703522542948
     5   1     0.11970049672953932      5.4296437393990473      52.083332737958962
     6   1      1.7353375283049133      8.3079753289954361      52.026681250071874
     7   1      1.5476993848609719      6.6090875820642108      2.6813549373291976
     8   1    0.094170229773727229      9.2491315410552506      2.5661260094962164
     9   1     0.14003393330888289       11.16620005254296    0.078641857650920063
    10   1      1.7159346758065046      13.869986323343365      52.086428949909433
    11   1      2.0627941567125414      12.262976218556945      2.7086538061582446
    12   1     0.17012074648203118      14.761133140137961      2.5005898945357745
    13   1     0.24772282668890719       16.55785475959388      51.949331735570368
    14   1      1.5886630607137724      19.608607343671153     0.19008094898006453
    15   1      1.2921474154753365      17.554479347763493      2.6052731465715047
    16   1      31.948688545807091      20.733718378056455      2.7565624459426856
    17   1      32.061416289650083      22.481331173421047      52.111262497110381
    18   1       3.364697977320434      26.141784070294925      3.0956542735350157
    19   1      1.8612950370212531      23.211402481389854      2.8202871577328432
    20   1     0.26397568102969637      25.861605810680427      3.1531297977321939
    21   1     0.14094251695178656      28.078204543263954      52.063947275375433
    22   1      1.9704640017627102      30.555833110867709     0.31230907271280933
    23   1      6.4557172170378321      27.826604512735933    0.096166049562598055
    24   1    0.026822165012733681      31.199566991253064      2.6364783530426998
    25   1      32.033816659095656      33.435304706280327     0.34989105433276757
    26   1      1.4860404216119305      36.353687408701461    0.041212654097478096
    27   1      1.9061469959397543      34.669375516650625      2.7152092531808729
    28   1     0.01223140778213538      37.452489424138157      2.6353253681448776
    29   1     0.20866128584304414      39.100317400025304      52.123030625365629
    30   1      1.7231652053490198      41.870733165915858     0.13870330043467691
    31   1      1.6576479736985024      40.086023254956849      2.8163995004865323
    32   1    0.060621680473107696       43.03430613996418       2.478526774317376
    33   1      31.778684543367245      44.943707408399895      0.2438134318535066
    34   1      1.5168999695407746      47.448194649137299    0.066421582092338824
    35   1      1.3594200330752566      45.726641427860613      2.5608301882638154
    36   1    0.053089526722229552      48.347909253635549      2.6753169273325188
    37   1      31.945970444527489      49.716689465978753       52.04961185984881
    38   1      1.3001309195239683       52.17215286084155      51.783903619649372
    39   1      1.8410309058277941      50.815021808393716      2.6926983018369604
    40   1      31.895294938739742      53.320472074634367      2.6810000182417144
    41   1      2.9627390181987305      55.233184554349648    0.085862952501414833
    42   1      4.9005691713947304      2.8901635694660279      51.968402463884189
    43   1      4.6219758002894142       1.286916730781982      2.5833753356268732
    44   1      2.7858238560191828      3.8607743070661669      2.6467297752297587
    45   1      3.3440412716506072      5.6439420829617495        52.0120335958024
    46   1      5.0460891351505737      8.1701940496212764    0.008418504490087228
    47   1      4.7738458856518182      6.2969463237973979      2.3643753397990297
    48   1      3.1896449302609766       9.367444373486487      2.6247045205427741
    49   1      3.7030132408366043      10.785314516726611     0.13952322742097348
    50   1      4.7988293131878565      13.931687455513337     0.14363241499314081
    51   1      5.1690197373754234      12.230358267982218      2.7488505320612671
    52   1      3.6667653163283145       14.99901746003345      2.7378461036803436
    53   1      3.1760778803942227      16.953022211532744     0.17593901908822732
    54   1      4.6658064066001383      19.611196324157714      52.037903555860687
    55   1       4.998158924866507      17.783787210807535      2.4548622257810555
    56   1      3.1722040196665855      20.602433000050546      2.8019430448088225
    57   1      3.0423414769817794      22.139375591684324    0.061128515948517981
    58   1      4.7449620189167083      23.202886702321756      3.0368278519107452
    59   1      1.9093033753865434      25.029090629151927      52.113116694616366
    60   1      4.5964274225708461      24.528568283314936     0.28030697918458491
    61   1      4.6566975182977011      30.373374702097319     0.37737361627326482
    62   1      4.9524330635651639      28.717015182454965      2.9848038640162224
    63   1       3.492081185897653      27.601189222813659     0.32497343854687727
    64   1      3.1334706333255267      33.319647942648253      51.987902723435298
    65   1      4.6688672880971227      36.337038920986359      51.868606547068296
    66   1      5.1049612228638006      34.374688396704855      2.4871585463804329
    67   1      3.4120663984830761      37.094959471034947      2.5919361221620298
    68   1      3.3965854781581393      39.106701638845692     0.21967129021441503
    69   1      4.8364239768917887      41.814516565491289    0.041978293766967364
    70   1      4.7765737220110926      40.189302280684089      2.7026358828365264
    71   1      3.3353753527515453       42.98753372357298      2.6281119757640057
    72   1      2.8963870597829366      44.772697213461562     0.15130294849580608
    73   1       4.848689593799631      47.363633413652899       51.93743692178176
    74   1      4.6054714411415416      45.404156350953961      2.4420117565412185
    75   1       3.357211019395268       48.07011570027381      2.6084805763807162
    76   1      2.9491625822065806      49.842043496801892    0.016387677195379528
    77   1      4.4263597446883614      52.596925347214253    0.033685103079904001
    78   1      4.9951795353718422      50.985399252667939      2.9565115085073539
    79   1      2.7943756667377251        53.7810260277314      2.6201821394092661
    80   1      5.7761122872966668     0.13996884503446322    0.060310849386186922
    81   1      7.9743498187624606      3.0685099196668264     0.12457818086629126
    82   1      8.0743796713894973       1.053675435754458      2.2967708179168085
    83   1      5.8534457338052404      3.8067745949770377       2.469702265183074
    84   1      6.3892994012710567      5.6522337436921601      51.781053477481322
    85   1      8.0647168187797664       8.368294372426508    0.051403555361495358
    86   1       8.195043950850561      6.3832254429069231      2.3908871148766822
    87   1      6.6470115851242122      8.8647390275555651      2.7708674768200989
    88   1      6.8031936852707684      11.017876647839893    0.057531074044871122
    89   1      7.7612161634527217      12.166154724805013      49.588132876366146
    90   1      8.4651768704877082      11.766483655579911      2.5919355403357875
    91   1      6.3822052700797416      14.832722602721718      2.4120132627955382
    92   1      6.2157869276379838      16.822863016580747     0.14888198334165703
    93   1      7.7904197861098652      19.267879825728198      51.964572992524772
    94   1      8.3838727037848884      17.369593443508336       2.410588927035159
    95   1      6.5828957883048895      20.356926076070145      2.4851317599748892
    96   1      6.3283260711261669      22.198250024161261     0.23036497659727972
    97   1      8.0630736703480856      24.797079398841781     0.24513677111700119
    98   1      8.0806976183195474      23.143585081503709      2.8891352579342646
    99   1        9.65301746683771      25.982302049910437      2.7582296761814979
   100   1      6.3958827560951823      25.838170449052292      2.8280051632561558
   101   1      7.6534203517380472      30.600700835749819     0.28458954643753848
   102   1      3.1893367376650557      31.708119124565449      2.9170190224330033
   103   1      1.6074159917430768      28.641546637527817      2.6285006870776622
   104   1      6.2708544744754677      33.506503492096435      51.799806388222102
   105   1      8.3587459503522687      36.544598201326089     0.34770882186856816
   106   1      8.4990095472220339      34.395716414682958       2.458325043624642
   107   1      6.2847902842315175      37.152766970385436      2.3807901447548692
   108   1      6.6803356928575797      39.125842714782024      52.039936475873944
   109   1      7.9961040306308808      41.724551704501032      51.918704643532536
   110   1       8.352662900001441      39.833605685210607      2.7864981783138005
   111   1      6.6079466942174925      42.443979009763744      2.5400521050625966
   112   1      6.0105803400608995      44.524468681851111    0.056903840842377811
   113   1       7.858899323823759      47.299418075159295     0.40192650850043549
   114   1      7.8717075745557397      45.362194389841591      2.7028658725993591
   115   1      6.4064639276902167      48.208009634386762       2.647238511975976
   116   1      6.1328769168524451      50.322420109929055      52.114868274971549
   117   1      7.4579485497050246      53.205276868722144      51.958754361816126
   118   1      8.1013130498911394      51.196012322333381      2.4059532640718975
   119   1      6.0432734070418759      53.986296315204982      2.7688755651470287
   120   1      9.6115886195061222     0.16774654440642389     0.16938692664743982
   121   1      12.548059418219871      3.8064286488604573      50.144393026182762
   122   1      11.310259602933357     0.91973164895613624      2.7123494031738411
   123   1      9.4417151551492999      3.8042059059528786      2.3009713386788873
   124   1      9.5341038181459954      5.8216117037952415     0.10920629879676072
   125   1      11.062533548422136       8.402201522587557   0.0026688588234384017
   126   1      11.286095717154716      6.3265146551106293      2.6474916410739437
   127   1      9.9488853714388359      9.3615417380619075      2.4290141547505013
   128   1       9.709979811643441       11.20344362245509      51.769855310289749
   129   1       11.21595013834944      14.013108201584892      51.886717117244842
   130   1      13.141604720396568      11.106604315344679      51.932300816407682
   131   1      7.7396193755087515      13.854998392597885       51.89565057868451
   132   1      9.3887240428952659      16.415344510126459      51.904216253673113
   133   1      10.754335410916914      19.584852229708645      51.935159371293793
   134   1      11.261242315523134      17.425180235298285      2.8543076596780708
   135   1      9.3561765126476182      20.593710091896412      3.1713001752881858
   136   1      9.4530030506903255      22.172355477554223    0.067589117909011842
   137   1      10.978423115036248      24.887636830424697      52.057621448284706
   138   1      11.285494048781391      23.097420254923211      2.4842850903465798
   139   1      7.8958028983497721      28.809683215232493       2.799474067092071
   140   1      9.5225929131329146      27.880055606368987    0.070277735865306654
   141   1      11.462106166773212      30.352645106847525      51.872751540147945
   142   1      11.414408331051771      28.558146358018391      2.6698213947888148
   143   1      9.7457657587825715       31.44559655485428       2.482156289815697
   144   1      9.4905761088156115      33.210429091100991      51.928385413911727
   145   1      11.262962466409403      35.708249590577275     0.41598872335495196
   146   1      13.045902987076717      33.266607125143189      5.3373999836634471
   147   1      9.7422260146264641      37.153433702580642      3.0882069291731375
   148   1      10.213894912587172      38.763845535300952     0.40769714065680923
   149   1      11.220344294971552      41.673887893024876      0.2706886454025807
   150   1      11.248212280868493      39.952133432340261      2.9196083811214004
   151   1      9.7145236347136699      42.653160817969685      2.8239836358827501
   152   1      9.0846192752341342      44.578137890684467     0.18819795499247072
   153   1      11.001814863749297      47.186262594799068      52.100813087787785
   154   1      10.674412145305595      45.678270508649433      2.7670262533475292
   155   1       9.401076993969145      48.383784352111739      2.8061753002919256
   156   1      9.3300733470297086      49.867015267424364      0.2655281075104402
   157   1      10.517048387226097      52.775546822798233      51.933345174281278
   158   1       11.61687186681152      51.314891921559216      2.5332218732747576
   159   1      9.5398087006918768      53.806782437469799      2.5537166182551396
   160   1      12.726931931807483      55.456389444414484      51.977526794394038
   161   1      14.205965951560101      2.6706919380459304      0.1869276359633146
   162   1      14.503112233819976     0.85065741251546589      2.8866672802263653
   163   1      13.030149106171775      3.7966467810227598      2.5661602077141064
   164   1      13.125193305239149       5.796136425946492     0.24128142577154602
   165   1      14.410934306298939      8.5911201855296842    0.067075445036255094
   166   1      14.387966174959306      6.5715504135574214      2.8997319028910002
   167   1      12.914794071850041      9.0681239969035499      2.6408139618121984
   168   1      12.697246587866028      9.3098213571019723      49.537652161356178
   169   1      14.098949196314706      14.183065406444973       52.07164529973398
   170   1      14.490806176777383      11.589936201958711      2.3845033848795136
   171   1      11.531737283041922      12.010437341642792      2.0281218048025962
   172   1      14.391315915495285      19.642826711915635       51.62267969582512
   173   1      14.307977164520951      17.620251752356388      2.7235645435442737
   174   1      12.655581590575864      16.758001198089197      5.1006319639616517
   175   1      12.267918586154241      20.124847148963902      2.1245266487089425
   176   1      12.886009983001211      22.053091309731855    0.099623889058970738
   177   1      14.997984845674649      24.824372339421689       52.00037819339336
   178   1      14.320662017672987      22.998804007950241       2.533016462184412
   179   1      13.125994020257334      25.914676747534887      2.4307723398703787
   180   1      12.737242078374376      27.745283847540701     0.18910844987452838
   181   1      14.422081397197246      30.219210824414446      51.908633063008764
   182   1      14.695878453597894      28.544894344260126      2.3249449084837663
   183   1      12.866392012058647      31.261251483803143      2.3729622160077724
   184   1      12.551545599833613      33.188495941426588      51.788301491427681
   185   1      14.422957000716149      36.338017958751912       52.10142426486059
   186   1      14.634989114203682      34.128494588378423      2.2851019018045813
   187   1       13.00911962696542      37.261093908301518      2.5010744113963201
   188   1      13.157115913624496      39.202332488292399     0.20744828359344722
   189   1      14.648272236099135      42.237863047238598       52.11333488880971
   190   1      14.578381651563204      39.996453620681883      2.4816565720192769
   191   1      13.076539357740154      42.281915287054119      2.5608250764568394
   192   1      11.985542158111766      44.544015493126835     0.41680159668555777
   193   1      14.185198157424384      46.906277536082769      52.092887640788831
   194   1      14.585359764104071      45.465169340618012      2.3921109833244216
   195   1      12.709280562843302      48.085518533425635      2.7630978242596256
   196   1      12.560381228656208      49.541941193679044     0.27598507465060662
   197   1      13.998111114236027      52.720089112480601     0.20364760612573338
   198   1      14.526246861179439      50.823535112815385      3.0137386765339649
   199   1      12.626624076351723      53.862293380083685      2.9294394385444242
   200   1      15.721438835644744     0.16470872397569022     0.19199983032066215
   201   1      17.800849671921469      2.4277828725662332       51.85348543399428
   202   1      17.651688485016344     0.41878922583500189      2.5082801210666612
   203   1      16.160025214142983      3.1736937194661974      2.4411165260267889
   204   1      16.309532301793332      5.3407170358100631      52.016666026163875
   205   1      17.995890142929714        6.05937308914904      49.017907540642803
   206   1      17.544720785131961      6.0803892306382981      2.5025249784627439
   207   1      16.178128494809567      8.9104483655433793      2.4831287514180862
   208   1      17.732250887990304        8.34732597398785      51.822002449209009
   209   1      19.098668422096967      14.409817303044385      2.8025280812516282
   210   1      17.666332961229539      11.533080927381587      2.7404213486685505
   211   1      12.421206242120283      14.661538884542082      2.4623469738427666
   212   1      15.916289362101182      14.325062153138409      2.6776622245177917
   213   1      19.652920812800723      16.407271249218059     0.25821712238702527
   214   1      17.736858713816765      17.786852661592892      2.1775682874831861
   215   1      15.882564734075938      20.087536639519485      2.8428371364708411
   216   1       16.37990760711439      21.841708913917678    0.038721413734997177
   217   1      17.922824093563953      25.112865007816715       52.01696234539267
   218   1      17.604970470653164      22.786251543017418      2.6733809026798738
   219   1       16.33561425979028       25.89337338672355      2.6593208436755198
   220   1      16.149801971790669      27.687447261984612      51.890542793028573
   221   1      17.521228625611673      30.646574696460334    0.028194718909926364
   222   1      17.394582990381785      28.591374407549594      2.6449109313947758
   223   1      15.930895194727897      31.293871977927981        2.10388689905457
   224   1      15.885213559569525      33.251286732624877      51.729607789310485
   225   1      18.029498972641182      35.714931133088129     0.11038977109222131
   226   1      18.007323521930903      34.143826489575083      2.5838434467629519
   227   1       16.38110118084202      36.779736270656478      2.4675121093374623
   228   1      16.299517095673114      38.742937140570689     0.32461690076714067
   229   1      17.813667162994729      41.639114168327779      0.1593968884882061
   230   1      18.065753031512866      39.797273634661522      2.7036498460213476
   231   1      15.945840534366331      42.617905543559786      2.6295646637614136
   232   1      16.315747151835797      44.713202150882779    0.011813268440066005
   233   1      17.614512226078315      47.439130435695439      51.852544368286672
   234   1      17.584975775886758      45.338744242500439       2.660118820291427
   235   1      15.653617652107791      48.176969027145454      2.1633014779311064
   236   1      16.024554899585425      49.916863061788582      52.126674822504484
   237   1      17.720534893264759      53.021415268689928      51.885846308835561
   238   1       17.82603861838798      51.192805637207499      2.2339616447967723
   239   1       16.13303341203677      53.556529960796681      2.4839439653587458
   240   1      19.581036899162374   0.0088281011169638931    0.097399764394065724
   241   1      21.315036297863315      2.5375236051052505      51.965750829702714
   242   1      20.969193088290236     0.65538092163123174      2.9004317288991284
   243   1       19.56850980878399      3.1727338744593361      2.9002439626720866
   244   1      19.245393498302683      5.2671728777219231     0.14781436790438296
   245   1      20.833324886554486       8.342065044052589     0.30281808745143302
   246   1      20.501923430777353      6.0946185479470092      2.7423458702857206
   247   1      19.591684437597451      9.0014292134970457      2.7329398613715434
   248   1      19.234206608744628      10.820779003462654   0.0035087516247587704
   249   1       20.74043463129544      13.297602808989392      51.881281011964134
   250   1      20.960994954109349      11.824336877431145      2.5642745278184349
   251   1      17.532143337079155      14.383520299377944      52.113611221050895
   252   1      17.771024280978352      17.594169578486614      49.205722731773747
   253   1      18.321871439617041      19.589560416924655      51.856507024048767
   254   1      21.131564683155975       17.61045093136465      2.4798183793873143
   255   1      19.425534033967143      20.250407519739571       2.466754840568369
   256   1      19.289938324684059      22.344130197446049     0.21642063767841388
   257   1      20.817061663132915      24.800762133404984    0.034973088260494223
   258   1      20.777851494271722      23.081218064183719      2.5672628676140397
   259   1      19.316503900246538      26.084660169475928      2.5557229651491395
   260   1      19.226490208339683      27.806805751846891     0.20521712250130417
   261   1      20.923675742887617      30.617576539767573     0.25747082413005101
   262   1      21.007278557518863        28.5547365190872      2.6131124084697976
   263   1      19.006631225914198      31.205979398389832      2.6833095853584394
   264   1       19.19815733401828      33.427675918136053    0.020602343459467563
   265   1      21.361506927883052      35.783107842086856      51.929104116913841
   266   1      21.254586981214143      34.085125990588274      2.3749205757699494
   267   1      19.529658030421125      37.087688719242138      2.3101080096917768
   268   1       19.21588317361098      38.568518162182869      51.918346280997703
   269   1      20.587430455872472      41.420253286027275      51.686384770604704
   270   1      21.205759264334091      39.928453473865268      2.4939277363378993
   271   1      19.214993993318753      42.705441988615995      2.3987565494673992
   272   1      19.350976314960402      44.298881210769423      51.997255476342524
   273   1      20.847353635662703      47.292610432578229        51.9900138965832
   274   1      20.655651342342352      45.411047415689836      2.7822114200604453
   275   1      19.166405218578738      48.186103459139183      2.4026953042242769
   276   1      19.301650620500336      50.339031304111394      52.041126482514962
   277   1      20.925601141003195      52.851157961959977      51.909803527632754
   278   1      21.224068430128568      50.946317110825021      2.1297697373575692
   279   1      19.628784918787286      53.538725468004962      2.5728495180779314
   280   1      22.700599353189755      55.269746442804603     0.32372908646450665
   281   1      24.311632511014132       2.683826814327491    0.080459585625036453
   282   1       24.35928512623666      0.7753754895696402        2.79963260675737
   283   1      22.820088155011923      3.7533062661794001      2.1784371180340836
   284   1      22.609130519723571      5.3279155309735371      52.046450187239508
   285   1      24.080904290085655      8.1116943945717424      51.889922497125987
   286   1      24.437954838174875      6.3736709028527976      2.5213567068559555
   287   1      22.575064725204179      8.8339347526998129      2.5697044761408603
   288   1      22.428984267830678      10.834894374125572    0.062345095421355821
   289   1      23.969204459515975      13.809298860475185     0.14725106766457796
   290   1      24.064208315006713      11.753394851190709      2.7667343065424013
   291   1      22.190602046938121      14.844769930097648       2.657540717993673
   292   1      20.938979849275764      19.872181537675399      52.093931282952688
   293   1      24.122850811689801      19.187565987218132     0.30878741144157079
   294   1      23.790830179940759      17.661125161241131      2.7451262344940086
   295   1      22.541873583614347      20.793604403427853      2.5987787333902754
   296   1      22.729448237042657      22.164029153531683      52.021294601168641
   297   1      24.116408155264946      25.156842877422548      52.108838198292112
   298   1      24.367179642180169      23.163411558078927      2.4887852014321097
   299   1      22.490030488578956      25.664209899263902      2.7530104729364622
   300   1      22.386956159330225      27.791014321065308      52.107235080501269
   301   1      24.213203642363709      30.784203607022903     0.35711690453254175
   302   1      24.169653113689019      28.727730077547658      2.8367357578247905
   303   1      22.663655276351427      31.443226737888107      2.9011120275554618
   304   1      22.987792102039343      33.480210742902848      52.112988784641985
   305   1      24.293592794926678      35.789373556615985       51.93368988144195
   306   1      24.380588214015777      34.254600154102199      2.7148589975101753
   307   1      22.708546135609922      36.657882972992013      2.5327014742291469
   308   1      22.418462083781218      38.681311102165083      51.786477990597319
   309   1      24.091989714875723      41.821852527721148     0.17322482403889608
   310   1      23.999841328680279      40.000990932886282      2.7095622137602104
   311   1      22.474082007678799      42.826579711559823      2.3578468827625816
   312   1      22.127604823281612      44.657363719707085    0.021447265345111627
   313   1      24.029097218175362      47.222655903714788      52.054143351458642
   314   1      23.813349807776582      45.353726194753506      2.4188204152485415
   315   1      22.488988954043112      48.115528906754854       2.607707240126659
   316   1      22.470180282741573      49.622132201688657      51.594109505406678
   317   1      23.758493925392635      52.327928255979025     0.02258208162755726
   318   1      24.329544121910821      50.996914501420363      2.7621325161217918
   319   1      22.820922533582017      53.594858337241838      3.0556618132524793
   320   1      25.656580946714278      55.507970368948271     0.42019757020685777
   321   1      27.487653564137808      2.6332935809061664     0.31197899862468847
   322   1      27.604254130133352     0.46913176627761272      2.6091524609440269
   323   1       26.08767233608074      3.4244710606759381      2.5419839621128175
   324   1      25.695292767634118      5.3132449551440928     0.09911743616433237
   325   1      27.355176536574774      7.8783257968554405     0.16425872417859583
   326   1      27.563003446019078       6.207403943015076       2.651146550398892
   327   1      25.838588566019794      9.0165982809287666      2.2302701878607456
   328   1      25.869947635750048      10.681699154074485      51.731546635301541
   329   1      27.254500786665208      14.055243724040666      51.699915228809523
   330   1      27.272824625533456      12.003652812179226      2.8086461064115644
   331   1        25.5215095169862      15.040293697865117      2.5216015645423564
   332   1      25.704719695752935      16.555104831687913      52.046636723013073
   333   1      26.985993590205027      19.578299378300429     0.44745789518824453
   334   1      27.076229822456675        17.6330809867471      2.1615226086343236
   335   1      25.478618923779901      20.195896285693486       2.995759944184921
   336   1      25.801602820428162      22.342383529948172      52.075129782599859
   337   1      27.385669142562325      25.553272187411938     0.14661284323670801
   338   1      27.490301693368764      22.894901830814195      2.5524779450548265
   339   1      25.749036446119877      25.533742161236916      2.3439094515998362
   340   1      25.525138848948341      28.149915147592594     0.20012177763137126
   341   1      27.573397350289309      30.683134572952262     0.27330435719927654
   342   1      27.443453041937669      28.823950936464961       2.645335425499487
   343   1      26.204154921281177      31.625241907952901      2.6658464577979903
   344   1      26.130810653461388      33.238793010186278     0.16458081565546256
   345   1      27.332146908113568      36.456660348156412     0.20891777821022059
   346   1       27.38604434175447      34.647444006846278      2.4418701629882635
   347   1      26.004918906526942      37.255998518297879      3.2194303744148209
   348   1      25.512093517557368      38.997096547720581    0.086148734068880392
   349   1      27.192288201782581      41.629980873594967     0.21773839822430863
   350   1      27.406820588866484      39.793288939701071      2.3130168138760703
   351   1      25.699004062076064      42.773565415168825      2.5248120986259788
   352   1      25.355136781418064      44.633031685734984      52.025187768470609
   353   1      26.937226547190242      47.204798567511169      52.090177587374797
   354   1      27.268140655874522      45.438762528228409      2.3848062834688912
   355   1      25.538786805732105      48.132870161079666      2.4471951603534774
   356   1      25.494746603133336      49.734368186537672      51.918584414306984
   357   1      26.968983257614465      52.505467302967318     0.17943788208487743
   358   1       27.31750243953115      50.903412412024778      2.3927259625632229
   359   1      25.771088287263229       53.64964278241272      2.9485767306329334