dump/Mg_900_5/steps_21 (written by ASE) 

3995 	 atoms 
1  atom types
0.0      32.100000000000001  xlo xhi
0.0      55.598830921999998  ylo yhi
0.0      52.130399999999995  zlo zhi


Atoms 

     1   1   0.0012115445196659578    0.072687740294232098      52.027067363898468
     2   1      2.0408973239759134      2.8682291180683666    0.019079625725100125
     3   1      1.8649912847217816     0.74619622599352498      3.0505696100119386
     4   1     0.19297673569790316       3.553196042120419      2.6776497282830563
     5   1     0.41232945611948424       5.517109743276551    0.050045842140408532
     6   1      1.6001072851195441      8.3562768171637689     0.22151613388255453
     7   1      1.6028995202075171       6.220204412710383      2.7985570078850484
     8   1     0.16231258244253091      9.0496084780429804      2.6302174889799717
     9   1      31.829426927686466      10.905619166691283      52.078801390512233
    10   1      1.9722823949117714      13.785189365631989    0.053837578444162981
    11   1      1.5079105554887517      11.938378009326009      2.1692025821319212
    12   1     0.24034445024469847      14.483436636208291      2.6970320153107163
    13   1      0.5237471446720009      16.412934183114892      51.994857858631015
    14   1        1.67843360350918      19.235855872799323      52.076811180754852
    15   1      1.7314321968452897      17.556741045470012      2.6493993726423564
    16   1      31.884238611301146      20.342595465981216      2.5147508892662684
    17   1      31.819171044398708      22.516764932273642     0.22655037678550782
    18   1      2.5982794137651726      25.857650180112376       3.048032069904417
    19   1      1.2791973022934731      23.104419621907567      2.8360733792839956
    20   1      31.675947875669841      25.764064029100023      2.9895714947938039
    21   1      31.530398664105384      27.844705088262671     0.11302503448618473
    22   1        1.42279754391721      30.117121440997813      51.833612869108833
    23   1      6.3646611370529396      27.415135232070931      51.816236991532776
    24   1    0.020678437110804949      31.511999986856555      2.5849076116854754
    25   1     0.28169180423469065      32.931077963904642      52.040395803966163
    26   1      1.4118202008664571      35.834449995197254      51.900216082377391
    27   1      1.6095372425142629      34.169018573203417      2.9104834072085435
    28   1     0.22599084878027279       37.13453456232898      2.6518643036995955
    29   1      31.913606398508584       39.05803032877521     0.26132612830975732
    30   1      1.5590479786339597      41.586217318623447       52.09512953093104
    31   1      1.5095964556686721      40.196169543645354      2.5834214626962333
    32   1      31.793962028380356      42.762380150546676      2.4958882806169136
    33   1      0.1906748747051123      44.862737989965183     0.17311423847680998
    34   1      1.5890147103490599      47.400602397047415     0.11362680484748611
    35   1      1.6355209945229747       45.59486172686281      2.6033176862565721
    36   1      32.018223668987986      48.466983864994248      2.4729090776423606
    37   1      31.736470860519912      50.684709647309425       52.06130491822384
    38   1       1.711039499322194      53.178783415433898     0.25166282829577269
    39   1      1.2869202482775488      51.237395822057522      2.7669597402773656
    40   1    0.049925839482640337      54.102353842899596      2.7277967682745605
    41   1       3.210793549645532     0.31346573013439732     0.15856893515278772
    42   1      4.9298821143943279      2.8727422638669275      51.963657387249221
    43   1      5.0624164487448757     0.64682569153281166      2.7022428801387224
    44   1      3.5742102887320808      3.2712024171402154      2.7149024871327798
    45   1      3.3008659810481817      5.6334524733462921      52.039565427398792
    46   1      4.7129331755625854      8.3772065295536393      51.870375873260194
    47   1      5.2111106825305802      6.2914433155727139      2.4104291879210669
    48   1      3.4228918342184818      9.2219880742908895      2.3751297171195982
    49   1      3.1738960125051277      10.977592346408162      52.065118046413424
    50   1      5.2968473531989257       13.96062546756789      51.955581310311629
    51   1      4.9075615097270981      11.936741443611378      2.6233803975180279
    52   1      3.2751033695419909      14.693097576696983      2.7284564058141609
    53   1      3.7184596664087111      16.232507550997518      51.818489006703878
    54   1       4.838053319484291      19.206274027326845       51.82325377362605
    55   1      4.8491381219255878      17.610089675371828      2.2049874183796931
    56   1      2.7504057877475256      20.565598286324256      2.5924900888712732
    57   1      2.4713199428146742      22.084184810408342      51.747930824081941
    58   1      4.6071672064492377      23.445062690392387      2.4069189771228174
    59   1      1.3502558463051773      25.124887032745807     0.07706980397527205
    60   1      4.8278235288376665       24.95178232480761   0.0018677540432381638
    61   1      4.4419854519991313      30.247032550768299      51.964427538227874
    62   1      4.5871554466734157      28.279128390986191      2.7392976433512981
    63   1         2.9505339577676      27.564615770945004      51.824672928221155
    64   1      3.5315432985131059      33.052668844726874      51.682175431144714
    65   1      5.0130696475610534      35.859125075441902      51.952390632656893
    66   1      4.5599894905631349      33.883725278632561      2.6356825806078952
    67   1      3.2815358473345797      36.746019041881063      2.4937354104026022
    68   1      2.8875086566080448      38.609726609416924    0.011784488970597721
    69   1      4.4033519015434601      42.006780379719174      51.963432154536591
    70   1      4.4002487569020969      39.665652605922816      2.7680709948816387
    71   1      3.2704643191794807      42.709202257906107      2.6935186226300085
    72   1      2.9092098573212897      44.976226332410597    0.085045778167890662
    73   1       4.871353528392727      47.576647586672451      52.036457127252945
    74   1      4.8463011787252643      45.723908464232615      2.3058386297081586
    75   1      2.9801872738202215      48.499590515927736      2.6362562195550572
    76   1      2.7982279850131411      49.881129173286006      52.020368632000903
    77   1      4.8236794527005671      53.118297694867202     0.13511997489816507
    78   1      4.4198249662301432       51.04210533255214      2.4664169921216921
    79   1      3.4091775057702329      53.769421501784329      2.9030526834319246
    80   1      6.5177155474483355    0.075637303147478921     0.15631860115152474
    81   1      8.0823497937078521      2.6773158245973345       51.68298256577075
    82   1      7.9895649983654957     0.42398285957737686      2.6827311368993421
    83   1      6.5085666764057839      3.1202305552371365      2.4599134473864015
    84   1      6.3825783292944944      5.6177467115244459      52.008033165238309
    85   1       7.822231401054661      8.2420397114748116     0.22205762263451481
    86   1      8.2256509124079145      6.4129860565968659      2.7556493934858586
    87   1      6.8489617514729293       9.470862843589245       2.643193203132725
    88   1      6.1350830217442285      10.858040349358001     0.19679024452092236
    89   1      7.8623363118245733      13.827619457205499     0.43500405599114017
    90   1      8.6246669533546552       11.95567646363541      2.7710395935195775
    91   1      6.1035964635921047      14.872577524169527      2.7613108172955134
    92   1       6.758521639041243      16.523913160929609      51.861342628252345
    93   1      8.0576150209078854      19.319267898739646      52.072852044661353
    94   1      7.9829831507437818      17.211841425724714      2.2144842646753422
    95   1      6.7063665070340051      20.471362506232303      2.5599084985619389
    96   1      5.5471970318646164      22.074717051967767      52.005395905035861
    97   1      7.9480983342581508      24.977468512397632    0.085564819389772548
    98   1      7.6094317141054972      23.493008000136193      2.5422358006118047
    99   1      9.3681509645594883      26.070948025468155      2.3531553538892291
   100   1       6.019984241446628      25.959224816614817      2.5459138432682993
   101   1      7.9033946158599591      30.613341021658705      51.836774847009067
   102   1      3.1313463482642208      31.196328637333892      2.2884765166079397
   103   1      1.1299438004724047      28.438711091419854      2.0772110981073184
   104   1      6.4089078430776008      32.953208330034371       51.72004339685683
   105   1      7.7999108889020432       36.14937144653527      51.903027904294291
   106   1       7.685151605620633       34.15233841069022       2.119402373390928
   107   1      6.0028304651804048      37.024314593440685      2.7180827099259095
   108   1      5.8102434225946595      38.529498887724472     0.28328675510571122
   109   1      7.7122249494442343       41.61572200001757     0.22511151856552372
   110   1      7.6142640421148373      39.656979219817686      2.7427412686333552
   111   1       6.191341480840201       42.67111825941025      2.8987104368365118
   112   1       6.246929131652978      44.469695034230682       52.12545182411732
   113   1      7.7138423236951343      47.151671074715708      52.078971142421373
   114   1      7.5050114337851461      45.465221836433457      2.6907569837585141
   115   1      6.0815326916880643      48.447674262642344      2.5295237456797763
   116   1      5.9875294168141062      50.278980217575203      51.881446879159448
   117   1      7.8539761434328428      53.064661981554416     0.24363624966296185
   118   1      7.7244128979353821      51.194753038457506      2.4515507565402412
   119   1      5.9272710637313155      53.527420406817122      2.7892288100834093
   120   1      9.5199428862960271     0.19359238321700362     0.12271661822046563
   121   1      12.923299063892653      3.6000257047279614      49.342168112374807
   122   1      11.501850716400819      1.1125996667483069      2.3612196820651334
   123   1      9.7475828148180348      3.4701799907473276      2.6188391116454266
   124   1      9.7216940708524771      5.5973327360716869      52.081006797992288
   125   1      11.193357314324812      8.3222536581337412     0.10797022323463241
   126   1      11.672226363097597      6.7473404237194519      2.5606984979478873
   127   1      9.9830918278822658      9.5176333204007193      2.7491242832615539
   128   1      9.6622715124143319      11.215984484372157     0.11938096338494353
   129   1      11.039883819793662      14.078326055023849      51.939862110437446
   130   1      11.946213092607959      12.310605490448657      2.5789206678479628
   131   1      9.6758573685000027      14.966348921776678      3.0227181699131296
   132   1       9.964080335919375      16.754204507708728    0.021874844214060139
   133   1      10.874585768328195      19.459082403538403    0.037730239425270311
   134   1      11.063525714358843      17.553619099822086      2.7523581998284739
   135   1      9.4339022195514488      20.214056132025455      2.7110389110318245
   136   1      9.4489766690642973      22.301489359885675     0.44526128891392469
   137   1      11.122850856239229      24.880032198579258      52.020891969395556
   138   1      10.815462917129011      23.385763881343536      2.9093926655634235
   139   1      8.0955603262097515      28.524644323392643      2.2358088936742591
   140   1      9.9337633966123082      27.245475922432135      51.690216047060893
   141   1      11.102097014369113      30.489805170056453      52.089057276892461
   142   1      11.084575917151319      29.027382714009061      2.2791008942513193
   143   1      9.1500616107567847      31.469142724103005      2.2893115238242543
   144   1      9.5392565932893643      33.230121971937599      51.937805717365592
   145   1       11.30564770328191      36.384323733192772    0.098169871365194616
   146   1      10.850776947711331      34.093314670566691      2.3730688511040183
   147   1      9.4242398973889845      36.976703455039797      2.5778781518305003
   148   1      9.5066571842973406      39.008517647706739       51.93493227324705
   149   1      11.183499350544828      41.388501017528057      51.552004943373305
   150   1      10.920480016996748      39.549636349614225      2.2970335045092951
   151   1      9.3981359403516684      42.350499455342323      2.3291822840058054
   152   1      9.6492289196798744      44.240273366798043      0.1227291697379666
   153   1      11.021466130393234      47.251898238706303    0.067098985574459841
   154   1      10.627023124623724      45.744402212064557      2.5673416873170609
   155   1      9.4309463096374095       48.44917822740085      2.1671670380481141
   156   1      9.2388163417779143      50.287200533788187      51.989599643729818
   157   1       11.05725591568612      52.845104341365435     0.27723149325832308
   158   1      11.399983895931381      50.563403408107654      2.2539675612518457
   159   1      10.052561783794662      53.630226006982625      2.8483344893869691
   160   1      12.722479351540599       55.44393851248158      51.929763823204276
   161   1      14.395201307737667      2.2148894611047552      51.763779783277784
   162   1      14.985428341515387     0.79249296176935236      2.3420814247921213
   163   1      12.815600930740658      3.5796793006023289      2.5860937236916324
   164   1      13.233815673027117      5.6654811531434905      51.883665590163858
   165   1      14.762073874413572      8.7851859110311885     0.27222531868148497
   166   1      14.711859484732555      6.6467820163893396       2.655921346743022
   167   1       13.09920525056217      9.5302787867773695      2.9523044536338143
   168   1      12.644198983917205      11.253744602471553      51.914548436528854
   169   1      14.610395445219938      14.327075917970747     0.26423344180913849
   170   1      14.892434571905317      12.098491922425987      2.5308252970430578
   171   1      12.742238144588024      15.364933765462025      2.8320686428483324
   172   1      12.984933769366931      16.835144496013719    0.091520465173754326
   173   1      14.433920306880204      19.272111425652632     0.30813012269065188
   174   1      14.484851183358384      17.552727202555587      2.6052946705213893
   175   1      12.729148959039357      20.432920160506399      2.8059775978170265
   176   1      12.471606361437013      22.313476063331883     0.29557219837424603
   177   1      14.169539810583201      25.048152567948677      51.944018030534345
   178   1      13.999516754447573      23.530049410431374       2.647418186282656
   179   1      12.517922247857623      26.318993118659204      2.4227702869801306
   180   1      12.987965124719572      27.850378768447829      52.050842752245465
   181   1      14.194630383782643      30.711291395718902      51.716772964966616
   182   1       14.49310925982719      28.742912053360513      2.4980699297080458
   183   1      12.972041746206486      31.666793231820421      2.0642992013200825
   184   1      12.796112752469048      33.455741693843294      51.901743833937324
   185   1      14.512241397075973      36.238183409130272      52.121048264493048
   186   1      14.561210895722454      34.449279681317165      2.3169300904953545
   187   1      12.468993211136107      36.811848266809982      2.9712882697819745
   188   1      12.814735519812807      39.055264820732148       0.220191528235923
   189   1      14.172645812375324      41.897601308297574      51.916173140762012
   190   1      13.952976058890172      39.931744508048816      2.6808393336666514
   191   1      12.227624802613036      42.731463810491952      2.5240519499790754
   192   1      12.466943630779793      44.704901035063109      51.837294920026793
   193   1      14.310663785448911      47.269737789123077      51.889611304879772
   194   1      14.358474035703319      45.220227001099978      2.5838737940749557
   195   1      13.236544528506823      48.014459115192899      2.3576420715803561
   196   1      12.725222665486918      50.081371867958723      52.044212358522799
   197   1      14.709331818721573      52.453794284593116      51.578219883192368
   198   1      14.317424931756904       50.85130557277909      2.4378658735263503
   199   1      13.079126574128296      53.883793539750421      2.5735174801723852
   200   1      16.278512776371151      55.077932817359759      51.959475762712756
   201   1      17.605145563543093      3.0887970585622133     0.18061536302736833
   202   1      17.869641011049087       1.089453122461902      2.4269718329447905
   203   1      16.170270428577965      3.8191809133937697      2.8624392512478498
   204   1      16.500912052823562      5.6742933709498713    0.029059516841287873
   205   1      17.723049589414458      6.7648244091759127      49.265949294110847
   206   1      17.602057617393967       6.222112017103437      2.7211242629773427
   207   1      16.627354605861623      9.1701192132233569      2.5588956488732899
   208   1      17.920035589079866      8.1838694617043082      51.840306886037624
   209   1       17.68744576706737      13.925949302629745      51.679775333110861
   210   1      18.158365765522053      11.887102065410998      2.1295112087961372
   211   1      16.163198516978952      14.852347708687066      2.6075690584000011
   212   1      16.208381347498396      16.403085232786104     0.25188316162049812
   213   1       17.51931131346117      19.741343898678725      51.894299732397542
   214   1      17.923231779612383      17.418885534338212      2.7702788919857269
   215   1      16.072122412955018      20.453670598005271      2.7755365614822276
   216   1      15.624017396257571      22.658550939996406     0.16397421660394509
   217   1      17.306840575454206      25.192442817065626      51.941059281779751
   218   1       17.50454819114033       23.37017992418517      2.3638151606413058
   219   1      15.497040271530214      25.932740528162203      2.5181608193514697
   220   1      15.739927125197687      27.813792701334034      51.964960317410259
   221   1      17.467221432681178      30.776191406613073      51.903903656273833
   222   1      17.393657839675644      28.629233503732046      2.5215617297993886
   223   1       16.06736237724218      31.651098429957038       2.135388324933833
   224   1      15.938471956244998      33.347300332316017       51.95829178354402
   225   1      17.435745364541912      36.634470176071353      51.850778980108956
   226   1      17.664793558641566       34.14799735857676      2.2472525416212812
   227   1      15.821501656082898      37.352885543232361      2.6873696043429716
   228   1      15.940867008442344      39.252413192425401     0.19253169402146816
   229   1      17.571508236792315      41.539663956553504     0.23767274586138362
   230   1      17.327967501215984      40.114624711429201      3.1560997854741437
   231   1       15.67738106068969      42.461783961841448      2.6074732439277413
   232   1      15.946138634892502      44.867561773260441     0.19499308417829347
   233   1      17.908507459267039      46.998885342240676    0.026521219950127475
   234   1      17.431807948526419      45.653912180589437      2.7569300036737401
   235   1      16.001183724335231       48.14495992898496      2.3764613342782894
   236   1      16.215251382686493      49.753385880883513      51.988577267862489
   237   1      17.879989824930565      52.806892192383444      52.013874924786172
   238   1      17.352908248195231      51.082260054617805      2.6747412193412283
   239   1      15.780112955504038      53.251291910696921      1.9824704947313281
   240   1      19.194554536177119     0.35247093025406528      51.924234686818373
   241   1      21.000594485641553      2.9697578365343791      51.984130511626731
   242   1      21.180073704198357       1.024131499933866      2.4145645148964174
   243   1      19.386783465509122      3.8712390302039239      2.7502423028219551
   244   1       19.56017394648805      5.4787564649813687    0.050561406041799248
   245   1      20.786304515715848      8.0728896201952747      52.108144744212701
   246   1      21.004912865719795      6.2548526549543411      2.6799015452647268
   247   1      19.496147517189172      9.0353486276532795      2.7550703711539346
   248   1      19.609532387046762      11.082878946271549      51.811382159558079
   249   1      20.984765662707286      13.920873568924691    0.046154143248435031
   250   1      21.102782094313046      12.060909869791345      2.4956533627757778
   251   1      19.066365366619117       14.62225320152023      2.3075713011726919
   252   1      19.130655387798225      16.588976735837107      52.081622962702134
   253   1      20.449635109344904      19.297180120838707      51.960131942110166
   254   1      21.076035105198081      17.777274999338211      2.6750938700039142
   255   1      19.000831457764424       20.45236773247705      2.9538593302279876
   256   1      19.267988702344152      22.466919648534184     0.20176145281802266
   257   1      20.601557892693762       25.25840430288234      51.778779008352821
   258   1      20.824437378724724      23.305545915568828      2.8242324673677848
   259   1      19.204326998252494      25.733622571412518      2.3419593485454753
   260   1      18.933607995506694       27.93950214341946     0.35914164505487484
   261   1       21.10927883951987      30.645302779969587     0.15935029405780252
   262   1      20.792251445525689      28.690685377721412      2.8130688246145836
   263   1      19.141430275983637      31.477269745446687      2.2758886273124985
   264   1      19.272402442769884      33.638385831401237      52.021757683410051
   265   1      20.736953319849057      36.450146696537146      51.988087118118727
   266   1      20.780756939508795      34.278034008389646      2.6957226048452805
   267   1      18.747824735635881      36.984223417733148      2.7873512885327707
   268   1      19.087053894931181      39.028316418001204      52.026972572267056
   269   1      20.903375381731326      41.724339302633418       51.65500936750567
   270   1      20.494571275993334      39.790754464063262      2.4333682721706298
   271   1      18.813803763695368      42.669686057521268      2.8006988194951523
   272   1      19.100829468363926      44.157835122490852      51.971788118131251
   273   1      20.683655167904593      47.263078786693626     0.18537883611763051
   274   1      21.080690082458947      45.405021721935931       2.780000379537146
   275   1       19.27185148652848      48.160720790087801      2.6080264745310426
   276   1      19.029454003743297      50.428937890336734      52.093517150683653
   277   1      21.173108873475929      52.604945190694835      0.1291588096856926
   278   1       21.21702242824351      51.069393106673516      3.0535664215243155
   279   1      19.224185061576581      53.803513438343977      2.4482901369739274
   280   1      22.289557604242091      55.575959014756975      52.009669298893364
   281   1      24.059771918887968      2.6632581758646032      51.988950064213668
   282   1      24.422574772304696     0.96615176744123199      2.5850428903793294
   283   1      22.706495977693262      3.5995050558415604      2.3007162090179643
   284   1      22.483131750050315      5.7617509564278739     0.31798430773203845
   285   1      24.096187082594781      8.3323674139812507     0.13109183610751318
   286   1      24.201946211133986      6.4643051516949468       2.772678136239199
   287   1      22.580546167950601      9.3557010662785789      2.8627254864682716
   288   1      22.776480954499707      11.072079844511006    0.087639640143879274
   289   1      24.379510928493978      13.902093794611543      51.902262953914025
   290   1      23.983101879402732      12.240284131836887      2.7657872950213638
   291   1      23.155059329550511      15.053190936611976      2.5879941529504271
   292   1      22.400197988946381      16.909411665018006       52.04034078246066
   293   1      23.488760037803328      19.793942806684448      51.881781544025721
   294   1      24.488529011218887      18.003445429551711      2.2609261207847937
   295   1      22.224531730569083      20.457663442001902      2.5299154746099735
   296   1      22.132228128961334      22.407000576606269     0.14082081115515555
   297   1      23.681907420814412        24.9241471039354    0.050715718880757397
   298   1      24.020549259430698      23.432082676683052      2.3887138380490556
   299   1      22.279464363109952       26.11811275300424      2.6574811668837639
   300   1        22.3024548957648      28.003518308767529   0.0040383918713578189
   301   1      24.282393136958635      30.659158232051478     0.28770186356576188
   302   1      23.948507325425819      29.008376310644962      3.0449779139286735
   303   1      22.658723594228928      31.777070954401253      2.7782158227055573
   304   1      22.344268079017542      33.316698031844524     0.17128523968092429
   305   1      23.699394134391088      35.870834514236826      52.047742711586963
   306   1      23.919958424180734      34.397415154403191      2.5203531146485014
   307   1       22.05522209940256      36.920875281954807      2.7391923471553357
   308   1      22.626141663370685      38.983167114174321    0.006212868841181619
   309   1      24.193374181300552      41.371513271970343    0.074220207683087264
   310   1      23.634682659722781      39.756578422020084      2.7853836565737944
   311   1      21.898212963709508      42.628604037556464      2.4729079854224638
   312   1      22.458672819982812      44.712795389744471     0.13953500145935563
   313   1      23.809955261384161      47.128785427308067     0.57035220265033648
   314   1      23.805988218232294         45.303987687231      3.0240260099342762
   315   1      22.534663498252915       48.23285341476943      2.8481695526318225
   316   1      22.245065286248931      49.568427611109527    0.066792275336597026
   317   1      24.337738076483099      52.701090285944645     0.14576510681335708
   318   1       24.21895934277045      50.838706705846015      2.6256041506599739
   319   1      22.915136427794831      53.937269005469993      2.4316445408092049
   320   1      25.790999068386057      0.1452902873047214    0.055436684287248038
   321   1      27.117030449890233      3.0773736855838756     0.13881480241176686
   322   1      27.568011044645235       1.124707173830537      3.1044687166835701
   323   1      25.747127321346163      3.9019057533126889      2.6856616542146159
   324   1      25.635293185198343      5.7532896399535911     0.23110049202974184
   325   1      27.223802886492216      8.4844536602844105    0.043516706443971265
   326   1      27.284440408220775      6.5851362375987383      2.2964207958110601
   327   1      25.834828487516592      9.3730059160799151      2.5945588449433243
   328   1      25.843598404392825      11.436431506936289     0.11825822312774224
   329   1      27.747458198637258      14.040982772456793      51.737792180857696
   330   1      27.403269677477134      11.930863854310291      2.7379711024640456
   331   1      25.974005296689935      14.858391635927731      2.9821986144359838
   332   1      25.861277134843402      16.304150582039576     0.17707500263834941
   333   1      27.312158635917719      19.410767696950952     0.14841784347949971
   334   1      27.767022572602244      17.520246963000776      2.5578354755586465
   335   1      25.757909239594419      20.781309120928313      2.5672210913838756
   336   1      25.219574763739384      21.934712712296975      52.049569975174826
   337   1      26.870080876806636      25.268842278031595      51.935578637718791
   338   1      27.110000772124057      23.252387665757137      2.4116513050168753
   339   1      25.238804132618924      26.106765006322266      2.6410594110443735
   340   1      25.343248027593138      27.907408805046465    0.075385818529829771
   341   1      27.136542307664676      30.778600695209235      52.073309622026891
   342   1       26.98102573525389      28.986524379207456      2.4629185442969761
   343   1      25.884424455918023      31.855990176268875      2.4976370153052252
   344   1      26.026732113316253      33.684484621326689      51.909857237867513
   345   1      27.549977635144792       36.33328524053686      51.919211731933039
   346   1      27.256113761667777      34.519521997437813      2.2855863187258847
   347   1      25.134772367452449      37.263108888678538      2.4136986870093917
   348   1      25.596407642948396      38.594963577919181       51.89524120987523
   349   1      27.234946223379751      41.896859829327745      51.961044660532345
   350   1      27.005408174056448      39.625018323861106       2.282144644105307
   351   1      25.335266194372753      42.869796388390029      2.6614747718009877
   352   1      25.600787399464288      44.638863384950454      52.031054112887162
   353   1      27.569016550629357      47.179013763820834      51.853947708305995
   354   1      27.219063217123526      45.446549216893331      2.4995343419668221
   355   1      25.567396425795138      48.060146010225502      2.8610475320954754
   356   1       25.60614200573016      50.175578043863631     0.36646364306517104
   357   1      27.719680931147021      52.746094563575298     0.34025688334152659
   358   1      27.273140526784779      50.864231178797517      2.9278896772598109
   359   1      26.127691839211636      53.826230619706465      2.4766194951454943