dump/Mg_900_5/steps_41 (written by ASE) 

3995 	 atoms 
1  atom types
0.0      32.100000000000001  xlo xhi
0.0      55.598830921999998  ylo yhi
0.0      52.130399999999995  zlo zhi


Atoms 

     1   1     0.07971475597853768     0.02257015412243684      51.902618779225818
     2   1      1.6094647192505398      2.6028867300908649      51.859392433022499
     3   1      1.4676410915057665     0.71570179213712304      2.3777646218156372
     4   1      32.081648302770233      3.3573452162856618      2.5480395794696533
     5   1      32.077166256606112      5.4792622096386925      51.785904963521006
     6   1      1.1157623616470289      8.3979365381304838      51.767604475886976
     7   1      1.3888999259348691      6.4184297143292994      2.3988841268532326
     8   1      31.855386702921983      8.9599060552152192      2.2659485868757439
     9   1      32.001745550506079      11.729388581583795      0.2475135108804169
    10   1      1.4623447981160016      14.242820277571312      51.664624706550548
    11   1       1.348634690352289      12.017232316736882      2.9431018693818314
    12   1      32.025099872797682      14.488002825031426       2.630661520476032
    13   1     0.27646510967119164      16.930933833864813      52.033904919177388
    14   1      1.8571788802499796      19.500334825973901   0.0057325249525001804
    15   1      1.4536580500187271      17.449071574860749      2.8142850597850622
    16   1      0.3167812856450965      20.141099354115457      2.4639983566964769
    17   1     0.30208786754732414      22.165322366241618     0.11264702697255147
    18   1      3.1999223772839533      25.370305542340958      2.5264304575642735
    19   1      2.0293318560284792      22.631210331015176      2.5228538413277559
    20   1     0.20073878768096345      26.119727309450226      2.7193786569807878
    21   1      32.036206736617466       27.79707914581827    0.090844165094910709
    22   1      1.4922781854328879        30.5358455307227      52.127388136444225
    23   1      5.7915709309206518      27.585314685584986      51.804722948762056
    24   1    0.076033749018735983      31.770204418926237      2.7156667889806156
    25   1      32.056618420624474      33.349056204919691     0.22877995622034858
    26   1      1.0122737926107821      36.237629288041013     0.21075922175105727
    27   1       1.864956038703327      34.181693158192708      2.6148447888760038
    28   1      31.954996960302108      37.302874380200862      2.7620669276156224
    29   1      31.719983898132661      38.961981786239406      52.048928139163635
    30   1      1.6038539146568767      41.758499715413777      51.810770235681957
    31   1      1.3433199325268941      40.135759262669559      2.3869464090434622
    32   1     0.13479664983520079      42.920188495652297       2.696734009418186
    33   1     0.22423955912490226      44.380922018135315      51.839967614993107
    34   1      1.4568925680605083      46.906974310310638     0.21858075857625286
    35   1      1.7392360722008142      45.688849377318704      2.5930592864868962
    36   1    0.067921443764820039      48.438837294743372      2.6022854900645145
    37   1      32.055821691328738      49.859546430159781      52.041146220214479
    38   1       1.344114996687412      52.970020231758333      52.085158524495924
    39   1      1.5044322445577833      50.845053816544116      2.3040352338331718
    40   1      32.058193698004345      53.693320127428876      2.4308829941981149
    41   1      3.2977505994951102      55.539473254784014      51.696600676469814
    42   1      4.4772165486088289      3.1788568986389119     0.19085778241444648
    43   1      4.7912421994025003     0.55150609963344333       2.243516636901091
    44   1       3.072453987509701      3.3578889196256947      2.4547964152429786
    45   1      2.9600324949265469      5.6896446189887016      52.022592030966855
    46   1      4.6781765764924739        8.26443089788091     0.14674479372182489
    47   1      4.6082617697921107      6.1000393277989389      2.6904900885578722
    48   1      3.4859829186837694       8.689605483217683      2.5886906227172823
    49   1      2.9237716956078885      10.850036188633585    0.093732994491394384
    50   1      5.2489268363262598       13.89624788831304      51.845329176211081
    51   1      4.6461873736280737      11.768422161016247      2.9659284311040568
    52   1      3.1433019807793614       14.63461955007188      2.6494001088490515
    53   1      3.1436824572600597      16.667587838910865    0.023171833711823728
    54   1      4.8019452973248269      19.221416941796448     0.42333573313152922
    55   1      4.9954965360109789      17.370122998043652      2.6962455336109215
    56   1      3.2485314954539124      20.082612354593859      2.6824004832904031
    57   1      3.5720717184569564      22.171114580945204    0.089867839755674708
    58   1      5.1738264774374487      23.083238046354658      2.5234743369665851
    59   1      1.4086879934238314      25.085240376974927      52.083206583245058
    60   1      4.7508940313107093      24.941121718263979      51.926590818229045
    61   1       4.799967258419076       30.74765872221543      52.075637559750291
    62   1      4.6199152731897852      28.433826839492038      2.6013127155348661
    63   1      2.7661971291789125      27.820042050890713   0.0074428086916707818
    64   1       3.095532706861972      33.306201770565579      52.129147951433808
    65   1      4.2447637022232456      36.234740291888457     0.32791821999571286
    66   1      4.7803306192430588      34.080384667350422      2.5650295192136556
    67   1      2.7261495866624639      37.413597669104384      2.4181109375850203
    68   1      3.2748250495813629      39.011051251881909      52.005495826565017
    69   1      4.5314701169184728      41.840302513540784      51.997936395963997
    70   1      4.6501774980525372      39.860378622016924      2.7222985202908281
    71   1       3.203085670518091      42.470373601626662      2.4556849137291361
    72   1      3.3615774044209292      44.488198951155091      51.739240066060908
    73   1      5.1244802904241746      47.181533250637585      51.739252417735479
    74   1      4.6487888692232433      45.327372206042106      2.1000779081976102
    75   1      3.6716031893642955      48.137293263741256      2.2936535023326208
    76   1      2.9243255653314058      49.740878077298682      51.861126403640981
    77   1      4.4545727026044037      53.034189722414972      52.090668904163998
    78   1      4.7462702654664923      51.072130699430431      2.5510236002752875
    79   1      2.8100236668503635      53.658951006815101      2.6597125426648294
    80   1      6.2956757740927163      55.449762032232236      51.898281072452157
    81   1      8.4569469353271032      2.7390585793463815     0.21639494361325134
    82   1      8.0922099461146928     0.63634259811867222      2.1502263217833613
    83   1      6.5748979637167722      3.5314175859479948      2.4626691409541412
    84   1      6.4179027620681461      5.8345987966096526      0.0934560271532483
    85   1      7.8883764317203173      8.4422999393783709     0.33607603382763562
    86   1      7.9082910110730671      6.8090630987294691      2.6783131669337519
    87   1      6.4976583161787547      9.2190053695753509      2.6547261631890215
    88   1      5.9843471222851621      10.890219391455462      0.1190273749894856
    89   1      8.0467961219347828      13.094141591960783      51.009067245483585
    90   1      7.9960045366127277      11.787634257810506      2.5864544487143415
    91   1      6.1918451935960626      14.770116533790672      2.7333778037859853
    92   1      6.8367380176591412      16.807602748404346    0.011468418070471413
    93   1      7.9771050133967556      19.764084222007032     0.11565095832822074
    94   1       7.908655571683747      17.792274179613266      2.6855210000716383
    95   1      6.3637518645591946      20.254160794219487      2.5127815227156178
    96   1      6.9271919348388771       22.61717759977023      52.098015041530125
    97   1      8.0529670218745508      25.439967544797451      51.629779131390706
    98   1      8.2470875823294687      23.472086239350681      3.0684353900172363
    99   1      9.7087971885967725      26.088058456133961      2.3537583699618971
   100   1      6.6206897324929059      25.901747895959566      2.4251492832085857
   101   1      7.8685895183740104      30.697322613533785      51.893011809801216
   102   1      3.4455228180064443      31.038038869412961       2.704723553710938
   103   1      1.1507298790834888      29.062208730718275      2.4608873221782539
   104   1      6.5446268445986071      33.615288263870006      51.971009111852368
   105   1      7.6676539516432545      36.402279581171008    0.019907391088438888
   106   1      8.0986604743572617      34.704472171523626      2.2831107553901067
   107   1      6.1789691680181784      36.880411322885386      2.7539434590864698
   108   1      6.3141085379221744      39.336605357266563       52.03559498034307
   109   1      8.1866699213429737      41.866683416681461      51.895968365744778
   110   1      7.8732522973157621       39.91477601244091      2.5105196463622126
   111   1      6.8656004669029889      42.505948804128572      2.2585673186735487
   112   1      6.4329849432455264      44.373148390354835      51.491544092984796
   113   1      8.2445252216726246      46.979501956602071      51.702768110873457
   114   1      7.9229568491833797      45.563874431010603      2.3391027290303832
   115   1      6.5041858654328575      48.196177484201669      2.3031097581802933
   116   1      6.0596974580394161      50.092547941090196      51.917699687254782
   117   1      7.9281161010280945      52.755212958939744      51.930578708278247
   118   1      8.0703718802111091      51.114261266898268      2.6644948588640958
   119   1      6.5590405411819361      53.789154786014542      2.2570640081362936
   120   1      9.6499242724451761      55.390048789721391    0.024085804865374469
   121   1      13.009344336062684      3.8029883636335802      49.638241040362956
   122   1      11.367233371506863     0.92814505693139271      2.5227835483279479
   123   1       9.712401127180188      3.8510572707365966      2.3948403232149191
   124   1       9.440922349347348      5.6346359752304958     0.13486748291513537
   125   1      10.955188394559803      8.3191163404438679    0.039943518841413429
   126   1      11.333630113947589      6.6647770753760316      2.3013773553184231
   127   1      9.7246142569170999      9.4896681027058936      2.7736423790043645
   128   1      9.5560465186991781      11.180125286007371     0.19516693700442664
   129   1      10.587942795517385      14.244321890674593      51.989490144754456
   130   1      11.423005310627353        12.3678586792233      2.3802241651498908
   131   1      9.2848094825740706      15.152391092627555      2.1997287492714137
   132   1      9.7958775181305047       17.40008533093869      51.519763524266985
   133   1      11.125695084803453      20.082949322131473    0.044743030174395244
   134   1      11.008062225463638      17.756566372944249      2.3094458461658665
   135   1      9.6006048578881149      20.311815470516564      2.3442037294732905
   136   1      9.7727466018143865      22.586996685707867      52.076902505742432
   137   1      11.200016271684653      25.470392082952301      51.872783635170023
   138   1      10.968165263841488      22.968071181204319      2.7348630221424552
   139   1      7.8308528668724247      28.608705854460634      2.7002121677795197
   140   1      9.8675983479655631      28.020626591695205      51.756859181081339
   141   1      11.119211339714633      31.111080447531673      52.075746338597689
   142   1      11.125365981975552      28.776642244459257      2.0290026583776917
   143   1      9.7437090728766282      31.249933136841225      2.7160588619701787
   144   1      9.6828132940080831       33.46891745440908    0.090067455697091986
   145   1      11.049739791701397      36.257751042851808     0.05170780877577253
   146   1      11.012509045724498      34.662901649714279      2.6273957354557034
   147   1      9.3710116280367455       37.04921871079884      2.7378894681403452
   148   1      9.5397564354158906      38.845793847670159     0.11986008714120899
   149   1      11.086742481527262      41.425263056032627      51.863807317438592
   150   1      11.219739935583963      39.943671935614177      2.4482804138207519
   151   1      9.9818881651904849      43.033713494684278      2.5933710038571798
   152   1      9.8240207627475407      44.484437140556025       52.08487594440998
   153   1      11.256007695755612       47.30146274057978     0.21468665153536962
   154   1      11.150708949412019      45.756792182429834      2.5996306770942335
   155   1      9.4364533413931131        48.1965019231531      2.6173061055555813
   156   1      9.4227215282641588      50.285997450178812       52.08027760530419
   157   1      11.129798283402311       52.72457275831664      51.833138514765523
   158   1      11.294846063197085      50.559675817873121      2.4782311015911693
   159   1      9.6191078376083734      53.282606584476994      2.4619537613276572
   160   1      12.841465902904106      55.388617061071677      52.108047365856834
   161   1      14.346465764379563      3.1629151775516195     0.26213062756926747
   162   1      14.562992619706089      1.0755872711003611       2.587883288947622
   163   1      12.406007537186278      3.9548764854652645      2.8608392992370453
   164   1      12.762604449960735      5.5358489350757445      51.985207796519767
   165   1      14.138850281925766      8.0451327167910982     0.47573112768945752
   166   1      14.525874848426037      6.0637412280615255      3.0735032911176536
   167   1      12.682294261073755      9.2787903988042615      2.7439986482825818
   168   1      12.620121253236944      10.723183888427037      51.841848517071973
   169   1      13.787824643819587      13.767064168161635     0.18139680983482886
   170   1      14.209720376238685      11.754629497263958      2.9595655350533865
   171   1      12.524649310643122      15.047404997234523      2.7980133604204105
   172   1      12.832218608434227      16.576146212434427     0.20541390696103606
   173   1      14.082379773855431      19.520411460358087    0.047207221332708917
   174   1      13.894019823237931      17.706548443955526      2.8801232208435406
   175   1      12.792683295309144      20.419737322150223       2.654465655548353
   176   1       13.09684838380495      22.871834132756277      51.833856454497422
   177   1      14.635661868665675      25.327133864045983      52.094970747154505
   178   1       14.37966179252598      23.264240520478829      2.5651263329598843
   179   1      12.858061567306613      25.813740278081735      2.2921254027247606
   180   1      12.978559575179046      28.351855547628173     0.15807803352959554
   181   1      14.520751633157927      30.895112014896824     0.13894811239189545
   182   1      14.659383162222905      28.840446349177316      2.7729264079091567
   183   1      12.996189850345392      31.619853719821364      2.4428465612417263
   184   1       12.78640191170617      33.650538861472775    0.053204535057110543
   185   1      14.295803523997344      35.984892737490419     0.25766531663662223
   186   1      14.397951935633193      34.394838253462972      3.1587623569791132
   187   1      12.834253235658519      37.166089937861607       2.783783434786872
   188   1      12.508500910619466      38.566257703168034      52.072645289668735
   189   1      14.633069230598897       41.46344816978111      52.118647020870817
   190   1      14.278187459879133      39.749925769534507      2.7050893685116768
   191   1       12.90007724792863      42.915109073127731      2.1152311510380399
   192   1      12.803658629609416      44.717587208316594      51.971719379016989
   193   1      14.462112796832375      47.274127247009865    0.015596537412686315
   194   1      14.048962049461959      45.494195702142605      2.5502229393929614
   195   1      12.827722514931672      48.183748506852496      2.8615091739682974
   196   1      12.916274318617379      49.988835293427755     0.16612068377816619
   197   1      14.734600672406486      52.457893745748741     0.47515371403393469
   198   1       14.56254450858375      50.909588262878671      2.7958689894397937
   199   1      12.634980830195003      53.517869682018564      2.5861650222593875
   200   1      16.328429138228326       55.40034598755323      52.078040975911819
   201   1      17.501099423275726      2.4358856885549582      51.801500335002444
   202   1      17.879800874125262     0.78057964179669959      2.4892791576771578
   203   1      16.052073296783238      3.6284733185486426      2.7183626806035552
   204   1      15.596981464248945      5.4732414663976083      51.748654556823269
   205   1      17.474862652130344      6.4105237787476224      49.571484709736424
   206   1      17.448651788220978      6.2554902120537097      2.1752222859582258
   207   1      16.125999174410889       8.618958614503418      3.0071606978836511
   208   1      17.089011352446811      8.3094280741760187      51.975503396733892
   209   1       16.92571273809153      14.029214294813077     0.34798562220866064
   210   1       17.36734693348113      11.870998314666465      2.8096856564089463
   211   1      15.505965930332007      14.891988333078862      2.8978742586721364
   212   1      15.844478615847365      16.800811730140339      52.104606247655425
   213   1      17.095265621438067      19.511735192037751      52.007571500960211
   214   1      17.170664430051808      17.449575491817445      2.4438143470467852
   215   1      15.813818442935283      20.635911099398829       2.321576623521806
   216   1      15.846955210137962      22.377476458044878      51.990314226485552
   217   1      17.844793432976868      24.598941719977894     0.18010809673877648
   218   1      17.536866238677778       22.98263139488181      2.6564678018350243
   219   1      16.159531238674663      25.890267229864115      2.5185845339086943
   220   1      16.091371564571407      28.362602857887172    0.081261162946076451
   221   1      17.907645549672814       30.71764632365889      51.953513941725646
   222   1      17.697347586530501       28.75757305524332      2.4191454949640869
   223   1      16.350567027288722      31.482591835440285      2.6268782964858519
   224   1      16.019531836050078      33.446798411617486   0.0050520203311089076
   225   1       17.64888242047061      35.962858170192575      51.977489464313713
   226   1      17.738462531697834       34.54691776863045      2.5666775865829128
   227   1      15.987162380008565      36.918703221194406      2.8341610508834769
   228   1      15.866342840883188      38.740298385795079     0.24874359148623887
   229   1      17.653615645109848       41.54141315188788      51.968636709424509
   230   1      17.680110668162083      40.023776879433697      2.4349311718839584
   231   1      15.954530994036134      42.822284467651578      2.3783511117009715
   232   1      15.850379266084742      44.354023735121906      51.847510068077035
   233   1      17.823750410147895       47.08437869862005      52.011189979231332
   234   1       17.63484426576774       45.22019319745673      2.6744165383336833
   235   1      15.782637292310207      48.233316392134391      2.6981323469515019
   236   1      16.089217811259015      49.963708181440886    0.065750977952136538
   237   1       18.01214504177365      52.746846075613355     0.45113041460548098
   238   1      17.838625369846426      50.531315894529158      2.4854538449681227
   239   1      16.202331851989069      53.906210377381875      2.6353506272790259
   240   1      19.659113697435252      55.473911060352755      0.1371290369477175
   241   1      20.965479578376886      2.6488687278036451      51.813142107477006
   242   1      20.911866251328309     0.74617422875349981      2.5421616110598979
   243   1      19.337409227392232      3.3427450267698902      2.0993823414814092
   244   1       19.16628756291496      5.5259194405660326        51.8837582870744
   245   1       20.77878639278277      8.0347318862489647    0.057418060622202241
   246   1       21.14504030506242      5.9364993322695225      2.4742398482362504
   247   1      19.309840262416099      9.2016347409718975      2.9287078884356355
   248   1      18.669334103620127      11.041176915642431     0.22944929665621008
   249   1      20.060690218851185       13.63885214470926     0.29464228774900519
   250   1      20.626128027988017         12.112819904278      2.9885884010254835
   251   1      18.712436782848982       14.78707352961376      2.5676168241484012
   252   1      21.029697769996719      17.218481641763276      49.638212214796866
   253   1      20.780563865331317       19.25379951817677      51.911558734977284
   254   1      21.011289064833647      17.318247701934631      2.8985949969697047
   255   1      19.049866162842406      19.764971509164088       2.450558860377904
   256   1      19.116399799829932      21.944737405561817       52.12580322674841
   257   1      20.930864978256857      24.953735301393291     0.15714386687202389
   258   1      20.916348353809145      23.618212164315256      2.5280498518632397
   259   1      19.227253806994092      26.146149457555769      2.5019570852786464
   260   1      18.809158632965236      27.621223168252502      52.026772465056943
   261   1      20.985436784754079      30.554922741470534     0.29122117112929052
   262   1      20.819296229431732      28.841087223101276      2.8760629202594448
   263   1      19.242820336091814      31.735560082541021      2.5516379994835932
   264   1       19.58851964798853      33.309592464062305      52.076278093084198
   265   1      20.815486433725546      36.126395953997815      52.045604520577399
   266   1      20.661978142315714      34.350460148445563      2.6362062351672915
   267   1      19.227265047991562      37.248808160989142      2.4806501582630265
   268   1      19.192765556090055      39.147820590708228     0.20197534976586454
   269   1      20.764356013502994      41.574167322310586      51.973726221781639
   270   1      20.801672169553033      39.956797489297927       2.582084382055589
   271   1      19.332630004672964       42.54864176449815      2.3048050845644044
   272   1      19.198601283085345      44.258905079065009      51.989958191783138
   273   1      21.025076373754125      46.958491755307207       51.90149743105664
   274   1      20.792213784033322       45.31761254431715       2.184819408830204
   275   1      19.200643297267757      47.686476242251352       2.376574663650755
   276   1      19.636479116916103      49.460535244382058      52.102035882079733
   277   1      21.104300882215089      52.834205576417013      52.068985690204215
   278   1      20.913859168725935      50.711061582197885      2.5236478912728817
   279   1      19.348137614351145       53.60999286458749      2.7719827428268942
   280   1      22.528557355312891    0.089977006981359062     0.18452093341368375
   281   1       24.36510742258217      2.6904723917786693      52.047312086574081
   282   1      24.087505447736962     0.47699366545932864         2.5081088847666
   283   1      22.933550815199965      3.4337462521938527      2.2534643766189841
   284   1      22.589430317756634      5.4046772152634075      51.874980614677099
   285   1      23.952254697397347      8.1586892960485553      52.013724207768888
   286   1      24.023526526756807      6.2943372921736431      2.3190014663412222
   287   1      22.282443917263173      8.9491134727848358      2.8150949887570942
   288   1      21.960266117055774      11.151471997744332     0.61315138653159773
   289   1      23.888961600433312      13.830639298323725     0.41399210853949742
   290   1      23.950029493707518      12.045975208824744      3.0611116461370607
   291   1       22.64468525850382      14.627693579360921       2.766201087275884
   292   1      21.905349787361729      16.422445722428538    0.092443859064151576
   293   1      23.900024584447763      19.316326549964234    0.099800795570565301
   294   1      23.891755632748307      17.577771726557227       2.562536017929383
   295   1      22.079933731701029      20.243985693839491      2.6874299109386044
   296   1      22.334404737781679      22.017080643226851     0.29247106508988602
   297   1      24.200209199397396      24.651292202563127       51.98161727336894
   298   1      24.232025396404527      22.937794019984501      2.7970923473753482
   299   1      22.884001603245824      26.016892910886614      2.7575508391403938
   300   1      22.418379189393072      27.757445008140976      51.953693961036983
   301   1      23.907815698560636      30.308683990554805     0.11730373819194068
   302   1      24.143535503191039      28.664854502081898      2.5976162893192352
   303   1      22.570991845209115      31.523265905358041       2.624312344336583
   304   1      22.827598509797951      33.162792696117357     0.11705675451328566
   305   1      23.841222464903975      36.112475341761296    0.010704968488767369
   306   1        24.6945808295511      34.060417116731578      2.9907555617109089
   307   1      22.283336407696037      37.042066374490147      2.7163481960955691
   308   1      22.480278984187994      38.893596961462755     0.17933859767659485
   309   1      24.895205364011861      41.744482068359012     0.38005229054981815
   310   1      23.920523068420234      39.777982636855846      2.6485588519477972
   311   1      22.687609668312035      42.728242371529092      2.8515044032891601
   312   1      22.554122909791189      44.183362233596689     0.33330785286755837
   313   1      24.077785851397529      47.754494292966356     0.15804207361795941
   314   1       24.11944258453962       45.44340356946028      2.4077858424803602
   315   1      22.237664088595576      47.827518100626243      2.4328371390285199
   316   1      22.807550601596681      50.107944079596642     0.26710484954175551
   317   1      24.150464970853132      52.844445513096368     0.12346065045289382
   318   1      23.811130137767488       50.53706778151242      2.7523730548381127
   319   1      22.459941602047262      53.407830304781783      2.6143900338267616
   320   1      25.857930648974353    0.029253892346703975      51.785963039520944
   321   1        27.2915237343766      2.5738602528440282      51.444553142431189
   322   1      27.199061433025193     0.86132651928208048      2.1663336192097948
   323   1      25.975599321225861      3.7577138701228794      2.0793628641953159
   324   1       25.79659277647281      5.4229211204057046      51.788724192433918
   325   1      27.117252140371324        8.32167169338625     0.16069683558443337
   326   1        27.1987439510408      6.4304530134859101      2.5899974802602763
   327   1       25.40810638290716      8.9643845456227158      2.8735698182936047
   328   1      25.494701123753302      11.000771160569609     0.12115445679404203
   329   1      27.229515928595909      13.618730675948731      52.088568396901067
   330   1      26.870051290002856      11.674694549104982      2.7771238809063936
   331   1      25.732933399143104      14.880319174003736        2.45173701788831
   332   1      25.418141575748166      16.733809729211764   0.0040607404519192617
   333   1      27.160075093472944      19.165968006715868      51.754899720203511
   334   1      27.436909094960978      17.462078918816818      2.2643814460886715
   335   1      25.707520118100913      20.101018851070936      2.6557645617663028
   336   1      25.821188645348929       21.77143368120997     0.07726747488541956
   337   1      27.263035834609649      25.039264810858818       51.83950319650355
   338   1      27.539468512956645      23.037947047144069      2.5960555678169039
   339   1      25.646923635073065      25.647851909068685      2.2145806846563043
   340   1      25.608626631665285      27.530299352946102      51.776151383329982
   341   1      27.431066383198544      30.220761058743737     0.15443246433144903
   342   1      27.404226511924016      28.203015828129054      2.6522181284573341
   343   1      26.001741663067161      30.928386235323885      2.7173667159009161
   344   1      25.589572433016304      32.950985368873958     0.36965645731475716
   345   1      26.797788179443597      35.652846951709854    0.083257612168067971
   346   1       27.41809977464122      34.060126679474706      2.8909485981112768
   347   1      25.692041099596942      37.237681765760023      2.7590033648928332
   348   1      25.561461304719078       38.59682466305506    0.001612182760239286
   349   1      27.776222201433708      42.201823664380193     0.16170706944041693
   350   1      27.175190366170618      39.766179901112061      2.4892086194786005
   351   1      26.007323715196399      42.906616968039224      2.7162052806929862
   352   1      25.949121481797775      44.754232441726593     0.24206666257783857
   353   1      27.278252792076245      47.431379654564097      52.051653077697104
   354   1      27.540476897732194      45.741274803870255      2.5264671980842461
   355   1      25.604952059647349      48.062508569010497      2.5702914620835511
   356   1      25.709832439992091      50.491869874284284    0.093290703809877876
   357   1      27.143639636483599      53.116273141314679      51.600411645864057
   358   1      26.979042289635473      51.144092558381793      2.5054911431120592
   359   1      25.972780121627512      53.761278092074754      2.3361454173640293