dump/Mg_900_5/steps_81 (written by ASE) 

3995 	 atoms 
1  atom types
0.0      32.100000000000001  xlo xhi
0.0      55.598830921999998  ylo yhi
0.0      52.130399999999995  zlo zhi


Atoms 

     1   1     0.38521429407264057     0.59690911070132613      52.012854410913363
     2   1      1.9374202334877864      3.2511044898362935     0.13411957996439647
     3   1      1.7609036043625459      0.9845792161882263       2.589778983445941
     4   1    0.056129816509576859      3.9188775153869098       2.628086911506355
     5   1      0.3049096607552092      5.8105250132396566    0.077755834028739104
     6   1      2.4726618204882622      8.4266278133304411      52.112603511933678
     7   1      1.9432434438999524      6.5671085544720382      2.5959401720376252
     8   1     0.57165507983163666      9.3884554481845068      2.5218821790082258
     9   1     0.66460920748130592       11.56759510883629     0.18692940546823916
    10   1      1.7065923633416795      13.699043395635783     0.19673609822021557
    11   1      2.2004666757575477      12.154678158650189      2.6777431337529864
    12   1     0.21773220351688113      14.716302169619672      2.5887525809093241
    13   1      32.077051564882154      16.635878112618272     0.34736096125505228
    14   1      1.8562862414565664      19.660344437591853      0.4386063687819694
    15   1      1.8697714056987487      17.745548596113792      2.6346635473270892
    16   1     0.56528067153652983      20.761865235988402      2.7092148327756771
    17   1    0.072848001809303647       22.54669812226496     0.33703109587808078
    18   1      3.4549400652493651      26.618722516067344      2.3490059990536958
    19   1      1.9698347696488119      23.280611264421754      2.9087940635898435
    20   1     0.11670181100346501      26.093684965128844      2.5739485658108032
    21   1       31.92419409267546      27.582077125432473      51.831784875839411
    22   1     0.94843619959340841      30.510106523645174      51.845416837452916
    23   1       5.952135895316343      27.750913770909936     0.12817912570493636
    24   1      31.907048498735328      31.521345201953203      2.9108748003350331
    25   1    0.084763510635572956      33.284731016029568      0.1774273244669477
    26   1      1.5531511193423777      36.049248058706723     0.10338297540608095
    27   1      1.3171516030653732       34.46669571528502      2.5092873521935792
    28   1    0.014999307254756948      37.199784879206582      2.6159286298353668
    29   1      32.050223705730495      38.747055142773256    0.020990921585984045
    30   1       1.624473369780052       41.48694367001103    0.098799976675807588
    31   1      1.3941136981370075      40.025207203744216      2.7048596625945591
    32   1    0.041105659658072002      42.753750762505575      2.7719151191467764
    33   1      31.935740970925227      44.532456283407519     0.14165807745011436
    34   1      1.2365767752054599      47.192357193049567     0.15341208349761146
    35   1      1.5018893941811742       45.24783929154637      2.7724925728064451
    36   1      31.858469243188658      48.155773722764479      2.4884831166278354
    37   1      31.824216944006988      50.005723323707436      52.117933809851365
    38   1      1.2865820756132087      52.648441169621989    0.076896754853199439
    39   1      1.4768190696380799      50.795548687172122      2.3886450947684246
    40   1      31.723811656213709      54.041814422900195      2.6107787957373207
    41   1      3.2798786782886524     0.29673821319570209      52.070983795811259
    42   1      4.8418279406518101      3.3659450293610469       51.54139782057181
    43   1      4.8416235207478513      1.2950556717733084      2.5182363848386111
    44   1      3.4310693516297097      3.7686320659871728      2.6111964500692566
    45   1      3.5724551324616507      5.6418615616743342     0.12309037251094875
    46   1      5.5121293147028174      8.4867459128915215       52.02398833523457
    47   1      5.0120440533568047      6.5529877824612575      2.5906700722569282
    48   1       3.472864601375786      9.3451617779264389      2.5839318678228187
    49   1      3.5169180809576157       11.39704270072831      0.2365257579230387
    50   1      4.6831016262433884      14.275595628377332     0.15571838996223133
    51   1      5.2468317627881005      12.024997542229821      2.8810468632515542
    52   1       3.590334618404182      14.815415167488347      2.6385492388644289
    53   1      3.1312585821905836      16.766870170886623     0.20738650240938675
    54   1      4.9607950909272152      19.313689186674289     0.18987632172801847
    55   1      5.1119329692055784      17.537934471255145      2.4160362331807561
    56   1      3.7685565491550981      20.818328306710825      2.7883571817787645
    57   1      3.4218139327671278       22.07358626259057      52.105032910221979
    58   1      4.8512007966588993      23.523627101813954      2.5535375269540861
    59   1      1.4629205302482808      24.964124453637002     0.24159962703178414
    60   1      4.7786843466706639      24.930550324385319      52.024004042868889
    61   1      4.6445287638635619      30.712187174477236      51.936575361969787
    62   1      4.5583944067529965      29.281720324222483      2.2037139173080651
    63   1      2.7818539124681068      27.951227350175717      51.760584948270562
    64   1      3.3309471022720256      33.421545731264459      52.003792137817697
    65   1      4.6302414412278727      36.199015678021034      52.068088618435212
    66   1      5.2726351717439357      34.589492340354241      2.4766220089527669
    67   1      3.2423582128879875      37.295447938587628      2.7635974003109745
    68   1      3.0547105048473253      38.652272820196352      51.871925787627347
    69   1      4.4838704105234246      41.676393790160766      52.080196048318896
    70   1       4.465347185018846      40.077033315167235      2.2948348669251333
    71   1       3.061432003023858      42.900170676548292      2.6066840686924149
    72   1      2.9797733541315701      44.625676581844147    0.073590349343262612
    73   1      4.6798522821471886      46.977596296327114      51.958962860450271
    74   1      4.6412173008444109      45.542143177089102      2.4889835614329581
    75   1       3.067469105914761      48.215654022995935       2.225774224162206
    76   1      3.0844389994945969      49.849930288529293      51.842075948294024
    77   1      4.8441804474824854      53.318631506874638     0.16639641601938196
    78   1      4.5858091590516867      51.027758720320506      2.6639547500240788
    79   1      3.0793521270709254      53.674118132239919        2.60020993442533
    80   1      6.7841896211751687     0.21587218593876253     0.16037120656749923
    81   1      8.1256975673583778      3.0946462288112935       52.03914212057272
    82   1      7.6679301030448554      1.1195412734158539        2.78820031735677
    83   1      6.2879536813187809      3.8328484942088834      2.1500343047986088
    84   1      6.7197893460775306      5.7116751144041942      52.034062239474792
    85   1      8.6146270868709429      8.3275789595705749      52.079157447664358
    86   1      8.1572747902243687      6.4188042468804332      2.5199914750717203
    87   1      6.7202310279144628      9.1578187836577136       2.630766636511094
    88   1       6.424353564975231      11.121115680049448      0.1369241269345057
    89   1      7.7884918006762991      12.229357914838889      49.659890513915265
    90   1      8.1713188331311546      11.682738736329316      2.6996296434015776
    91   1      6.6702305405252975      14.948823450941561      2.6038762825776156
    92   1      6.6876105666432792      16.815870340051081       52.06627532837598
    93   1      8.6626990017961507      19.465139577471245    0.064278462376256493
    94   1      8.3994775128481525      17.399615919094728      2.6384650100910276
    95   1      7.2705150093878288      19.791782713938893       2.614520284864585
    96   1      6.5907506677730119      21.567533524877213     0.16863238378464346
    97   1      7.9377895602692519       25.28063911306101      51.766879570321841
    98   1      7.7794308567749679      23.136469177321644      2.6288573329041514
    99   1       9.556497023669392      26.236804648857881      2.4030023332270378
   100   1      6.6116773859996449      26.118936620119115      3.0744481984620355
   101   1      7.6718847209896213      30.283837633886325      51.826643918860178
   102   1      2.9507599385675705      31.845552910123686      2.0357216898019344
   103   1       1.332601406466202      28.967321473436087      2.5448495611958544
   104   1      6.1224551176086157      33.548133535889136      51.717825863515237
   105   1      7.4112205068218442      35.997590069556466      52.000832674002304
   106   1      8.4093112455812076      34.331230769269943      2.5897340678029117
   107   1      6.2411910187400403      37.452018485396799      2.5175329242433202
   108   1      6.2512432845022161      39.005660043108414      51.872095086019847
   109   1      7.7436608453181801      41.893805322667141       51.98275148705855
   110   1      8.1502753998454391      40.288696233755552      2.4324162726243377
   111   1      6.1274294699784626      42.596924490023021      2.4734120694670798
   112   1      5.9949746167959379      44.205417743847498      51.983482358788869
   113   1      8.0390889017371574      47.011377047081155    0.080191884723089066
   114   1      7.8075515460122942      45.621282436322694       2.909900420216716
   115   1      5.9751927086099901      47.999013364849667      2.4741912897385321
   116   1      5.9104311331338399      49.918453311872383      51.984569245880316
   117   1      8.0039306816115623      52.608198320441296    0.095479276836582999
   118   1      7.5555447744516089      50.815197875678187      2.3651270220689766
   119   1      6.2051744399666502      53.765883109380837       2.413037761194019
   120   1       9.695519878706909     0.30790682031624916      51.977470516841286
   121   1      13.051373172794074      3.3698158707250032      49.653626519714699
   122   1      11.275563215589759     0.92433661051859306      2.4254827866596336
   123   1      9.4713625899317577      3.4903747979832573      2.7515200172014866
   124   1      9.7206575405865774      5.6271415856114029     0.11291671752076339
   125   1      11.562619989470845      8.2913032947797394    0.050556170790917246
   126   1      11.143672812716789      6.6647015682910142      2.6528907382869473
   127   1      9.7206639654161187      9.2074681465149357      2.6716093852800675
   128   1      9.8074818048805792      11.072936548481632      52.066860585967639
   129   1      11.502041482424428       13.65593661463641     0.29238494988091623
   130   1      12.864795589967091       11.26197253779293        0.24258460048534
   131   1      8.1219914753641884      13.672696595247595     0.16171348814435665
   132   1      9.7323240906788833      16.522111429844632      51.955352348637597
   133   1      11.571200745335712      19.326514600904353    0.056845584402983748
   134   1      11.235441517522146       17.58365547730158      2.4784024427791489
   135   1      10.078814723217187      20.292763441367111      2.7717678369211196
   136   1      9.2020888127893521      22.370358243564983    0.014916209793348411
   137   1      11.310969062039749      25.100750765054123      52.055853525773152
   138   1      11.449149476711776      23.276436084925454       2.726950166789607
   139   1      7.7001376545405016      28.736765297454021      2.5766450142914743
   140   1      9.6910480889864896      27.993934344651731      52.067662214411023
   141   1      11.131119176488466      30.435350783475542     0.02624026195234716
   142   1       11.29891620047397      28.654889521525902      2.3943404775593202
   143   1      9.5948544313286366       31.55499547182924       2.632269989891312
   144   1       9.191344501935534      32.746586448118151      51.756491822680573
   145   1      10.703801827455715      35.999367753990498      51.560759507819469
   146   1       10.72660609446962      36.017175748460197      5.0099675701079125
   147   1      9.2075006831964821      37.401184268542231      2.6037941404560896
   148   1      9.0007936511150479      38.786412486273122    0.072872231672929916
   149   1      10.912795517216901      41.630249105775732    0.057254662794004062
   150   1      11.109894697289207      40.057378220700478      2.5576148762744984
   151   1      9.2639279505498155      42.725337304646217      2.3630242303084747
   152   1      9.9550804918898965      44.625662074615384     0.12254684868579183
   153   1      11.089662507389194      47.542107350854607     0.16197981687442245
   154   1      11.142470769886405      45.730933814299803      2.5873491616106672
   155   1      9.6320216181311036      48.222568287818007      2.5719496430760875
   156   1       9.082945418889901      50.209335460921302      51.868963973778698
   157   1       10.84464822648466      52.653851545409353      51.896941710105338
   158   1      10.603402616614272      51.304568544906608       2.440934532119643
   159   1      9.4070700940279419      54.092989106094279      2.3797772223475757
   160   1      12.789699369653635     0.65177654195754164      51.858743410870787
   161   1      14.687949399310066       3.190536189804889      52.108473301749534
   162   1      14.379762862835996      1.2895947175197437      2.4413465770996856
   163   1      12.631703452289411      3.9501923556203851      2.9971062197876903
   164   1      13.193563235728076      5.6794349128742105     0.61465976304588787
   165   1      14.636858488058436      8.0870711431090321     0.39476549334205308
   166   1      14.735261485488204      6.4796347399136254      3.2699001946894133
   167   1      12.853032677697477      9.3464752604814745       3.043966187301637
   168   1      13.097034254144944      9.4181575211532653      49.711809194940123
   169   1      14.231079885013783      13.949475738161945      51.993818993898749
   170   1      14.322338197042193      12.616253529633763      2.5420633777235451
   171   1      11.045508477047651      11.804258382756061      2.7233353095457136
   172   1      14.704865783825078      19.790573331578287      51.883683608458462
   173   1      14.493283891180472      17.780798568988459      2.3856577852070333
   174   1      12.894484395278145       17.59724419029612      5.3423333653961302
   175   1      14.980082311986109      19.830935181649075      5.5314314251090719
   176   1      12.714431102403704      22.212932644279299     0.06060991298244027
   177   1      14.427213577824654      24.905980998408094      52.078682390984547
   178   1      12.902369634270178      20.330119403316946      2.9554029191630944
   179   1      12.749135866444917      25.833203710715377      2.6530280685416341
   180   1      13.132774520708219      28.225928278864291      51.953055886183137
   181   1      14.114431037862646      30.768554632156647      51.643478350118926
   182   1      14.434036499746858      28.582768274232027      2.4496464518456049
   183   1      13.016446054192681      31.433563062825549      2.4526704975116962
   184   1      12.313514170100213      33.280925734266717      51.891314054403821
   185   1      14.185086454547029      36.108346069366355      52.112951336374572
   186   1      14.440412106947496      34.664168948112291      2.4856173059791686
   187   1       12.40269467510587      37.070850125439733           2.68810477798
   188   1      12.350423265552537       38.79544280821186     0.15351104699558898
   189   1      14.079109464407534      41.200889752401238     0.25002255639540893
   190   1      14.530295783803091      39.804348984735498      2.7799469423114331
   191   1      13.007230971527779      42.551585846025816      2.6798235806666488
   192   1      12.908516449490874      44.416398058124265      51.774928954969312
   193   1      14.503313037592774       46.89959462660476       51.88764313032825
   194   1      14.112511602094814      45.351605923054798      2.3776220735918594
   195   1      12.969019872946133      48.585102771809758      2.4203495730046156
   196   1      12.909741051992603      50.071818762997879   0.0050198594384988629
   197   1      14.619725339612122      52.988623871545855      51.945002092586741
   198   1      14.045140969940462      51.355115357964841      2.2499213894628407
   199   1      12.430163006912743       54.19265804645724      2.7762784623174039
   200   1      16.203933849331094    0.085358867769367061    0.038328139263836943
   201   1      17.962381337650804       3.221322840896264     0.44699529216689082
   202   1      17.670168533247832      1.2966274445370138      2.7835900659286383
   203   1      16.749025138839151      4.0918607119682484      2.8351791256175005
   204   1      16.236528902436405      5.6282254537755643     0.17112759108874401
   205   1      18.031552219113763      6.4178715113960516      49.182470008873238
   206   1      17.675630089353149      6.8751415136179626      2.5399416626916511
   207   1      15.949668971902957      9.6790964785130633      2.9100364652715003
   208   1      17.601257152702772      8.4978378821007468      51.888001626820675
   209   1      19.161663401871952      15.039873807501271      2.6102658299186072
   210   1      17.569509777579508      12.224747640989484      2.5668181328806292
   211   1      12.838853040872431      15.166798179098334      2.6582349191223771
   212   1      16.033484943654852      15.206595159490817      2.6045201803343736
   213   1      19.896677093331441      16.456238037193646      51.891889845588913
   214   1      17.491949937974983      17.934699830254445      2.4283604283659281
   215   1      16.068183246610285      20.559141152291019       2.613617079603423
   216   1      14.750406838407015      23.010048593211216      2.8349186554325612
   217   1      17.611112977414095       25.04240767562381     0.14714734364937843
   218   1      18.025930770165363      23.161913862976725      2.5166557376202228
   219   1      16.081341544111151      25.979379927210932      2.7140092685365516
   220   1      16.202144128824262      27.851773613582836     0.10385236174398774
   221   1       17.52533458511709      30.816440557932985      51.868215598734579
   222   1      17.550339336637119      28.812013694950064      2.5869949432536035
   223   1      16.120291442425277      31.631281651166649      1.9952768840710677
   224   1      15.543181567619811      33.453256200390236      52.106162779881984
   225   1      17.419610780790922      36.328935409096765      52.003987823816878
   226   1       17.55935644956871      34.134916291559108      2.5872094554118932
   227   1      16.102601348092762      36.960268217931478      2.6260644069076715
   228   1      15.443584869457839      38.639072277725113      51.952201095499589
   229   1       17.65017668482281      41.215473194311606     0.11050645448350124
   230   1      17.627858415902196      39.776657307835997      2.6277521469467913
   231   1      15.773087962875996      42.513701425494759      2.3941328070940084
   232   1      16.062199142565323      44.349762589326588      51.939598416697585
   233   1      17.605521988459795      47.406331364818115     0.22456591285935498
   234   1      17.617103550734004      45.805037058875619      2.5416468038769588
   235   1      16.131622303624695      48.484788848650972      2.6957744282859197
   236   1      16.163801314620972      50.605857777207646      52.002532190364477
   237   1      17.990070250124734      52.972406584916293      52.095949779135815
   238   1      17.291674882086994      51.218211566209831      2.7920243067345387
   239   1       16.15809542613248      54.277034373051137      2.8129682772546278
   240   1      19.388071990036259     0.32755181068092637      0.2143812082732971
   241   1      20.811623362078429      2.9543096356714482      51.822990081018155
   242   1      21.156783012891196      1.1455163542231546      2.8554732836283963
   243   1      19.755833686661603      4.0031443401541624      2.8134995960396858
   244   1      19.508367281217243      5.7443661950810876     0.30534042609562351
   245   1      21.103061959567999      8.4448133249516051       51.82232510143438
   246   1      20.774735944060403      6.7355711567463095      2.8451210718340501
   247   1      19.617744288799809      9.5120198288722122      2.8914604765343022
   248   1      19.285355425138079      10.830688820562049       0.275496504469113
   249   1      20.765602345697676      13.509811326169322      51.917900492602463
   250   1      21.145648510807536      12.307384672231734      2.8281819614009573
   251   1      17.811024542275014      13.691139089930887      52.022700947090691
   252   1      17.587511262734086      17.727829044270941      49.467792155083949
   253   1       18.05293823227861      19.519293348366347    0.090471321198066432
   254   1      21.209869659402408      17.742712772070256      2.8029224320951194
   255   1      19.671786031175898      20.102361428004471      2.7108394374755411
   256   1      19.409141498522864       22.52731937110272      51.921206295386213
   257   1      20.751192802878286      25.295520234765362    0.029947602460937632
   258   1      20.989247764425411      22.887753177130602      2.6697772446592167
   259   1      19.322734104725171      25.908982522528511      2.7277617763743853
   260   1      19.180727179320915      27.923406561008697   0.0020814157074295499
   261   1       20.76547865422846      30.665206803862908      51.701146963815013
   262   1      20.610087683563371      28.632002043933582      2.5070404459195164
   263   1      19.117554761932023      31.334973512187066      2.4583899790438446
   264   1      18.989351827871005      33.632953853439979    0.028700988953016187
   265   1      20.858829312276363        36.0938517472866     0.21680382424154743
   266   1      21.008530491436407      34.520971948395839      2.5771246565785311
   267   1      19.106424532712428      36.711737078598723      2.7168395129914393
   268   1      19.081941605236509       38.69180727870669     0.19027590391679786
   269   1       20.64446434914651      41.880957542659566      52.031525514556961
   270   1      20.848192734130965      40.041151605209144      2.7635142830009443
   271   1       19.02077684154397      42.656722681029834      2.4983294125550684
   272   1      19.033620560079878       44.55684771729468      51.954354474774071
   273   1      20.883302524506831      47.128375992100288      52.107606756282919
   274   1      20.643356619333751      45.271089261509758      2.4300495798106265
   275   1      19.485796188210273      48.301489605883482      2.4730172770074388
   276   1      19.144586573393084      49.959159618885217      51.967735186192535
   277   1      20.952598542781345       52.92643880316097    0.089132529737100494
   278   1      20.510501558871184      50.995428134068291      2.4839514568909413
   279   1      19.415353673130166      54.113403827445886      2.6607982074577099
   280   1      22.270127916584389      0.4003398345233844       51.97561075940186
   281   1      23.831373512417603      2.6546697961797787    0.064022838341122323
   282   1      24.164989758712348      1.0191913643511896      2.4089827910647466
   283   1      22.759866819793405      3.6518124868350506      2.5531760031344888
   284   1      22.836338750348258      5.6954166049327739      52.121829698893286
   285   1      23.997458771261208      8.3490467587274857     0.25606140957876189
   286   1      24.111552345868514      6.2614822097516614      2.6378231658804898
   287   1      22.497849274073495      9.0069924249795648      2.8940882240498387
   288   1      22.383077159270314      11.105344179967428    0.035183382962302202
   289   1      23.822149427604337      13.569630287038818     0.26452575323873379
   290   1      24.574242932380496      11.821555603215595      2.6361345394561413
   291   1      22.529083148099048      14.755689325976936      2.8465014457806466
   292   1      21.186584563917119      19.345972047239279     0.27594640258817477
   293   1      24.338834600627706      19.549881688584254      52.003079405953109
   294   1      24.237123856280139      17.434114648972194      2.8524048590208397
   295   1      22.959000073374529      20.186011027411229      2.6158085635689385
   296   1      22.420758660190391      21.706099195027214    0.031132407214533114
   297   1      23.947848581702946       24.70101243684703     0.17309114823713914
   298   1      24.334246998404826      23.109718129055615      2.4438739257921545
   299   1      22.600942917566833      25.894628508714458      2.5279644810988526
   300   1      22.208393268904661      27.842210093085058    0.079129726574530018
   301   1      23.903729774662679      30.376004044714925    0.060580130825320627
   302   1      24.291599625574449      28.332010402501719       2.791718834491685
   303   1      22.562650781753614      31.024213858190851      2.6073734470692931
   304   1      22.432000962867662      32.860191102498717     0.28789655042137052
   305   1      24.093550870530699      35.940602012096356     0.28650484235754947
   306   1      23.831396765366431      34.040776435837522      2.7813448138586607
   307   1      22.234538446073635      37.004938162026029        2.74366851329926
   308   1       22.19617646732933      38.989311713954933      52.120265295032908
   309   1      23.771833717972402      41.883408016905697     0.37062918060946159
   310   1      24.209465943717571      40.042332767649995      2.5442198402628629
   311   1      22.216334043079236       42.73814956017042      2.6889350808212114
   312   1      22.310431336202125      44.372692261680719      51.929601811199738
   313   1      23.714157417487566      46.858236934136244     0.15654419510457795
   314   1      23.741230768730315      45.425363420987566      2.7811639743289591
   315   1      22.589943004958631      48.388378038305028      2.4110211289670795
   316   1      22.025999273988354         50.022784047022    0.033102948363990796
   317   1      24.243063041893603      52.768483421093876     0.22575446310939085
   318   1      24.048644071053712      50.674073504510979      2.6846208026067377
   319   1      22.371405756213694      53.711001905417099      2.4112774348743837
   320   1      25.348413081155904    0.070513094379890548      51.954589132037079
   321   1      26.731690360678353      3.2627294509504416        52.0365082758562
   322   1      27.264040944230835     0.93546199915784933      2.2391457687488754
   323   1      25.737705088554463      3.7098084417521573      2.6363505321293959
   324   1      25.939618942224282      6.2382375012302624     0.25663833879295206
   325   1      27.510028281183679      8.6539057965089494     0.44285618060956761
   326   1      27.740910376184949      6.6947609197217295      2.7216592688646388
   327   1      25.723599925792008      9.0525093372399255        2.94217497706653
   328   1      25.821631557983029      10.735169071372544     0.29902923806622228
   329   1      27.048198700147406      13.656984223138469        52.0036503650106
   330   1      27.541922048629832      11.934586705110588      2.7888798223663813
   331   1        25.8383659954949      14.526740669944719      2.7243271960833502
   332   1      25.471334401692395       16.64636120976175      52.058265283952082
   333   1      27.965058579000857      19.123772013990376     0.36109826164967512
   334   1      27.282882175620131      17.301572849154777      2.5853600285545442
   335   1      25.966438592427874      20.344562747092166      2.4860269629427618
   336   1      25.808100673357934      21.840332718327051      52.099724878337049
   337   1      26.975333383030936       24.34855944977544      51.986697745722239
   338   1      27.365072961149099      22.910553960198055      2.8167219053173684
   339   1      26.022110843892129      25.680315553319087      2.5531297420719796
   340   1      25.295653601376987      27.498274989540846     0.38678894474914632
   341   1      26.755534833858288      30.553141670189504    0.089533608969966011
   342   1      27.178925024359263      28.456949568944882      2.8366359426829688
   343   1      25.493593154587174      31.220809219046728       2.679787101619715
   344   1      25.392803578686497      33.159457722622193     0.12899630001475423
   345   1       27.21429992689707      36.095520130543193      52.107964528403961
   346   1      26.703979699392523      34.281110115536549      2.7807807469260393
   347   1      25.144854150275737      36.974923898659171       2.583635922902467
   348   1      25.515281279122693      38.577027384229581      0.1945534894444117
   349   1      26.745513556355149       41.89185570219643     0.20635182938574206
   350   1      27.353319642634506      40.081455601825404      2.5287064595420685
   351   1      25.874186444689219      42.867461879373757       2.639954697272255
   352   1       25.55112957811167       44.52444788472026     0.40600944995613547
   353   1       26.79541856149762      47.293982259566562     0.28170614932569654
   354   1      27.143821506427081      45.567413458135476      2.8710987595611108
   355   1      25.931749901218708      48.177900603542994      2.9948680766561688
   356   1      25.754962408913887      50.138633705970506    0.062276744341385158
   357   1      27.360871083113906       53.03370099292485   0.0041059696622733058
   358   1      27.268897341164894      51.308057840180552      2.8477674101183572
   359   1      25.640676907633573      53.873396388837321       2.578038816142727