dump/S5_s00_n130_r1024_560_20/steps_11 (written by ASE) 

1534 	 atoms 
1  atom types
0.0           114.158223526  xlo xhi
0.0      7.2199999999999998  ylo yhi
0.0      22.831644699999995  zlo zhi


Atoms 

     1   1      2.0172313016245029      1.7927879533404993        4.60806764400433
     2   1      2.2126111519347207      5.3952358209635571      4.5787653749832593
     3   1      7.8350332809018424      1.6279371285492019      4.3709595293996513
     4   1      7.7418790735553893      5.1176581542673549      4.3525721235200141
     5   1      14.026239116678125      1.7469159228617108      4.5341086822114693
     6   1      13.532063113130196       5.438232088914047      4.3866543925701409
     7   1      19.475051488722997      1.6271305717454623      4.3289477845722493
     8   1       19.25332289049889      5.2634744078162869      4.3232778132130854
     9   1      25.137076913781694      1.7022621385919121      4.1945292897154136
    10   1      25.116023522527954      5.4162539699512307      4.3319443447857404
    11   1      31.154055792085259      1.9304314069388715      4.3322423306465971
    12   1      30.998053111064799      5.1350297771902387      4.3457001608624228
    13   1      36.633390797197791      1.8579243535346202      4.4106459010703851
    14   1       36.51535667843617      5.3123593579853798      4.7371137272623125
    15   1      42.264052921619651      1.6219801870884027      4.4956090992238078
    16   1      42.206490025440409      5.6228786249580107      4.7548091014759519
    17   1      47.974468196892623       1.918087280097736      4.5501592639656492
    18   1      47.965562775206408      5.5360156573696369      4.4569215667048008
    19   1       54.00277282755625      1.6948498472834526      4.6429081611550664
    20   1      53.825547832722094      5.4678213897134755      4.2522331979050412
    21   1      2.1691479597184102       1.574005025732834      10.106858250210264
    22   1      3.7712647338282008      7.1948031461067288      10.895081012355025
    23   1      7.6365028282702125      1.7179767788189382      10.252033909211926
    24   1       7.790576625661946       5.474289522814189       10.21717512635195
    25   1      13.650242312312484      1.6996530592443597      10.475105052745169
    26   1      13.447779109316675      5.3487268410361066      10.114544784649043
    27   1      19.361259353175562      1.6615044840650472      10.208641279134042
    28   1      19.283298660817366      5.2546569189421035      10.092176461319657
    29   1       24.98111227920791      1.8587740522533638      9.9226422297761214
    30   1      25.045639164725785      5.5102200842662423      10.105673721174197
    31   1       30.83791544724243      1.7756401695150441      9.9482634556970648
    32   1      30.828173053424589      5.4017485513610772      10.077606761783457
    33   1      36.482639678670786      2.0219328932038647      10.264668306855787
    34   1      36.449271487506373      5.3912094168193834      10.280932318220932
    35   1      42.335085049329173      1.6163878874313649       10.02636138773741
    36   1      42.188073212109614      5.4209745902046365      10.110979041998977
    37   1      47.864825187223012      1.8780401910182576      10.132526855165667
    38   1      47.882772557533116      5.2847707068535925      10.243008879682643
    39   1      53.728876630672772      2.1734252852663918      10.080671061122144
    40   1      54.992936585265355      5.3113037685833708      12.639848093726689
    41   1      1.3197839858557638      5.2570565962799272      16.089497502765052
    42   1      3.4004956146066059      3.5528156050831283      16.463988869055871
    43   1      7.7484527624692658      1.7267501108592684      15.768224942319963
    44   1      7.4538671882866456      5.3747966501844697      15.867376874926883
    45   1      13.509339570608647      1.8332434099216193      15.834152936352389
    46   1      13.653595290676432        5.40577378945639      15.855966377646356
    47   1       19.52195805380212      1.7474746565849737      15.748810318661617
    48   1      19.305078343745215      5.2938932888005334      15.927983428797861
    49   1      25.165367619560257      1.5211322096334967      15.613182625419318
    50   1      25.158953088005379      5.4882976944748512      15.726507108399575
    51   1      30.920917188548493      1.8087662179975657      16.032015715711729
    52   1      30.556729798938708      5.3890696387823125      15.605171876099417
    53   1      36.525721702569562      1.7425118433986078       16.08872929190024
    54   1      36.628833013042936      5.3426113354743023      15.898378308815424
    55   1      42.203855050647455      1.6186452857862852      15.899554770968507
    56   1      42.216908739282374        5.26605912228304      15.713672247941185
    57   1       47.88074229210428      1.8265577824800916      15.693107244612161
    58   1      48.128225768382741      5.4019413227716448      15.629339869677761
    59   1      53.859544982402241      1.8008873408357371      15.994377663380629
    60   1      53.771277055706769      5.3930197217891616      15.695619648593146
    61   1      114.14912163949178      2.0503582163553085     0.19686834484373764
    62   1      1.8819286716491159      5.6780209232349712      21.363506108477832
    63   1       7.622213020390471      5.3001175363697905      21.205773341972538
    64   1      13.619050933466008      1.7509240486356235      21.290471427555936
    65   1      13.362491657789906      5.4578139367785257      21.611261236473453
    66   1      19.227349791600318      1.7677509564111589      21.443960771797329
    67   1       19.36761455650111      5.3431647867965744        21.5183135607008
    68   1      25.152831483951299      1.7450769709315421      21.482104827283244
    69   1      24.755183968220464      5.2745309432381076      21.363315157958912
    70   1      30.850765068361689      1.8680377450650576      21.319506270427407
    71   1      30.892311564145253      5.3092716817864529      21.529566965540507
    72   1      36.547285412090119      1.3769739278607218      21.627350435082921
    73   1      36.568316583075116      5.3034122973597153      21.656947199257182
    74   1      42.601953366257739      1.7054329970997446      21.313471355364726
    75   1      42.269917126455624      5.3464617694249652      21.393534150513698
    76   1      48.037204477113342      1.6469543553786754      21.438994407921495
    77   1      48.147718071108606      5.4398469578453588      21.458197931882946
    78   1       53.91543539656908      1.8011532067163594      21.573468834683339
    79   1      53.765914568413564      5.4694245954080865      21.334982684561581
    80   1      112.01236326499696      2.2717824814212912      21.566399362725495
    81   1      112.55500182892018     0.27987370615388873     0.48643209275361488
    82   1       5.368149401818207       1.839286438342288      22.594690065172784
    83   1      5.4513753805599086      5.6451478391458183       22.54848224704784
    84   1       11.22749272226674      1.8400380125644504      22.667091562530192
    85   1      11.298009118115377      5.5475717469536034      22.648329994917244
    86   1      17.110849799995179      1.6868299899402839      22.522134499541362
    87   1      16.828937793620533      5.3573312794505386      22.552236866228089
    88   1       22.84575568161544      1.7187904894170476      22.302987897618902
    89   1      22.658290398824345      5.2503997634206234      22.453731026145668
    90   1      28.456151347505813      1.9433002321150621      22.502755457820317
    91   1      28.368190947664356      5.0979707595095904      22.608140221741245
    92   1      34.314705466043549      1.4874329501297354      22.654117404285461
    93   1      34.368371787718722      5.3759178299916268      22.601254037746219
    94   1      39.954716281821341       1.845205313221892      22.564935753097703
    95   1      40.057275342102621      5.1012447955551936    0.068287995032770887
    96   1      45.755424138367367      1.6664985019370713      22.656810980790461
    97   1      45.663027773093482      5.3908583421493059       22.75430139492601
    98   1      51.572812305923321      1.8201794680794166      22.711074282943688
    99   1      51.342542576028755      5.1974304099085451   0.0025842926617857817
   100   1    0.025300363334634177      1.8576474302637804      5.6518045306424334
   101   1    0.066314527820056493      5.5561786432439408      5.7511834999276221
   102   1      5.7991002291514429      1.7851217055829189      5.5824348448360208
   103   1      5.4947987343525568      5.2942857891992512      5.4096512764905995
   104   1      11.260264631128569      1.7565791260458785      5.3804769642858004
   105   1      11.306486568547994      5.4882736696232186      5.5371451646471082
   106   1      17.201991849102743      1.7037405293024417      5.5043752625240794
   107   1      17.118451406287758      5.4072257997815525      5.5685826751242136
   108   1      22.816448517455516      1.8266109671381565      5.3310076130834343
   109   1      22.661421565368705      5.2962104119948128      5.3696434652001415
   110   1      28.425746580337464      1.6648755668899906      5.5568629865969399
   111   1      28.582518043023519      5.2473738423288685      5.5278343510949899
   112   1      34.963436021502901       3.280751459171908       3.558778989663681
   113   1      34.083529665590483      5.2776211645430191      5.6424770793775023
   114   1      40.006010098149311      1.7352323309840767      5.8305851725285143
   115   1      39.866485230191124      5.0993580196765427      5.5869505385270282
   116   1      45.766949812134676      1.6299105317500884        5.56658529227402
   117   1      45.732539162744111      5.5215314188982827      5.6743022726519943
   118   1      51.557034352630495      1.9561849559333022      5.6869624460416635
   119   1      51.451223206880272      5.3860620698655737      5.6751760889369969
   120   1      2.3047391989808466      3.6785862386315742      14.153668404005417
   121   1      2.3734220803550143      5.4325071440490484      10.196970356737236
   122   1      5.3660976512499197      1.9960716405552119      11.316677168147915
   123   1      5.3921553644944211       5.534722179476633      11.471477720617509
   124   1      11.279906543230268      1.7941811892706379      11.120535667494952
   125   1      17.160731674079816        1.74275233314206      11.313413302070169
   126   1      17.044727412878302      5.6289070141093145      11.324685269053578
   127   1      22.642590886469574      1.8398002914811336      11.290043548422046
   128   1      22.763695647739738      5.4856996937824656      11.291319546621333
   129   1      28.516226405787705      1.8404149067247437      11.225513714153397
   130   1      28.564904178841449      5.4194049098109645      11.118246591150839
   131   1      34.279828925672867      1.7158640995561993      11.308259403251805
   132   1      34.175097887316738      5.4250648792054106      11.121362681144973
   133   1      39.988755365503124      5.3467884217864583      11.219112859666996
   134   1      45.648976706988748      1.8172668118143458      11.251892482376753
   135   1      45.589614471254549      5.4141402735608199      11.226402626052931
   136   1      51.569001753870346      1.8201778869604606      11.281394513984422
   137   1      51.439892976946133      5.3763735825129064      11.130368115412153
   138   1      112.66849637479619      5.4977849326013697      15.739968100445495
   139   1      5.3954244109757257      1.6513753024844349      17.056508113919232
   140   1      5.0886984377721474      5.2858322238219442      17.003556192719618
   141   1      11.150754801399945       1.881208927203436      17.014249962926975
   142   1      11.152330697634591      5.4340425845056011      16.993569977710326
   143   1      16.987082089116672      1.8420479501418208      16.910047014375653
   144   1      17.081538165295335       5.344473595040081      17.038575906836897
   145   1      22.850717679606969      1.8361113110398244       17.12646339955306
   146   1      22.884688327312588      5.2834363223712097      16.774442286911199
   147   1       28.64459483917355      1.6695853215662526      17.173083673207213
   148   1      28.433526920463837      5.2470425619511749      17.011613700086272
   149   1      34.230370257162654      1.9069509847667787      16.919760464572683
   150   1      33.952160944641889      5.3339321581611001      16.894811822899122
   151   1      40.103084979771161      1.6706717066948187      16.906220773185947
   152   1       39.89549939332835      5.2772533209304857      16.977872029099959
   153   1      45.739085982099596      1.6781757614910344      16.893060387675337
   154   1       45.86110248055995      5.4532393764333031      16.860718220821656
   155   1      51.623947853969909       1.956502689164255      16.951920821738511
   156   1      51.610370556899412      5.3145381689291922      16.947284239611459
   157   1       1.063585765902368      2.4117146143290991       2.371182070554307
   158   1      1.2843413936760049      5.7025669885338797      2.2767922250819566
   159   1      6.8013646374363512       1.835114684522418      2.0078493119255172
   160   1      6.7607323407332931      5.3534343975411165      2.2039817807702153
   161   1      12.252536314742057      1.9507217174159599       2.213790293553509
   162   1      12.519124990276355      5.3454969436415807      2.0385272061620805
   163   1      18.276589168010105      1.5349369945142326      2.0896518441112524
   164   1      18.178321136046822      5.3204293778707186      2.0889807222157804
   165   1      24.032930197857866      1.6270383644170863      1.8914292904923513
   166   1      23.891119427652175      5.4545282957234722      1.9701552584320958
   167   1      29.768667739895193      1.8235028611958868      1.8869421753225002
   168   1      29.733404339124725       5.370241068230186      2.0335843417468467
   169   1      35.532670768302843       1.518744264980223      2.1626175291425196
   170   1      35.369574220470994       5.316332492683344       2.008220416188474
   171   1      41.163180784769139      1.5669527716085594      2.3395080299815461
   172   1      40.996074050751552      5.2753425062208406      2.1896993293815874
   173   1      46.868011005008974      1.8576637235514943      2.1424772467509889
   174   1      46.860839494113371      5.3310445268687809      2.1932883087364243
   175   1      52.419407471893713      1.6831071507304849      2.2343339774835127
   176   1      52.538258060596853      5.5170817691485929      2.0674774959477782
   177   1      1.0508732592607171      2.0317537864374993      7.8975194179480459
   178   1      1.0875449669264428      5.5640537506066883       7.848427433045301
   179   1       6.711886775787991      1.7794037307382999      7.8604938272807043
   180   1      6.6395269640957961      5.4484914140639269      7.9002987247940721
   181   1      12.506793921018097      1.8571776873830603      7.9092156816788073
   182   1      12.230762162226009       5.283662831397395      7.8340257989725348
   183   1      18.259208310575634      1.6695715352418901       7.866099011675348
   184   1      18.200174535309809       5.201375176281327      7.7819853083379336
   185   1      23.792481200980696      1.7652650493812563      7.8298953548551049
   186   1      23.896475147897601      5.3381678105813615      7.7038623748935375
   187   1      29.821631020212802      1.6549023628415429      7.7192081824007399
   188   1      29.867698195876351       5.341257138270513       7.752824001885239
   189   1      35.266299210302776      1.8307481921049333      7.8885657915792695
   190   1      35.463953056436821      5.3298612338738227      7.7935685266739441
   191   1      40.975982654989267      1.5818752973580066      7.8578441118584648
   192   1      41.140513041914303      5.3851396389567174      7.7768643217790219
   193   1      46.816304417649484      1.7590442780147979      7.8463688296432164
   194   1      46.838453141308243      5.3827566864817324      7.8037664161910811
   195   1      52.535382024367706      1.8685337607258816      7.8147143622694495
   196   1      52.496324265007658      5.4747604953219406       8.004380821977966
   197   1      1.4025484554504355      6.9576855072941779      12.117768676745484
   198   1     0.95671912453549612      1.6141421988847646      13.482682423310278
   199   1      6.7792837583332552      1.8455584889324321      13.504535809156533
   200   1      6.6763343526834653      5.1356433263484336      13.541092524777239
   201   1      12.326758012924605      1.6557686857775884      13.711256857239615
   202   1      12.343180353100514      5.3205103990240188      13.437349287843682
   203   1      18.236850546731432      1.7524396157229147      13.615761210746259
   204   1      18.089932541595552      5.4598249769390348      13.698730048316284
   205   1      23.935646799425946      1.8799190117090798      13.542602941341304
   206   1      24.012387006470025      5.2525254433805406      13.552598592671318
   207   1      29.573129973910579       1.887835835039601      13.568129391875084
   208   1      29.520563109321788      5.4506841426795614      13.455263236079743
   209   1      35.596541808161113      1.6321263563983006      13.757945950645688
   210   1      35.515577443360002      5.3124994406364792      13.571188693957952
   211   1      41.160380847403232      1.8247715395951083      13.507165914562956
   212   1      41.075959258065126      5.3444186889079415       13.53490012564094
   213   1      46.901034035387532      1.8996787279560754        13.3265205831157
   214   1      46.832819357023652      5.3236727071509478      13.565411735076628
   215   1      52.646111169664387      1.8382699362500776      13.648840076227657
   216   1      52.610992962692897      5.5794307642153695      13.513710017719673
   217   1      2.3694492516116137      3.8022603314510697      19.733826881833107
   218   1      114.12808269570002      5.4121010318195761      19.247010989050839
   219   1      6.4933167622847838      1.7558079352837834         19.229392638175
   220   1      6.4260075571795845       5.520964169597665      19.076865512563188
   221   1      12.281054261170832      1.8346656380888298      19.185798444339653
   222   1      12.302418534516516      5.5500419830177492      19.170538709343447
   223   1      18.261781067536504      1.7843781483776051      19.220220271949831
   224   1      18.116913481461516      5.3563625323842849      19.178066047867311
   225   1      23.772905118685276      1.7638768768379065      19.429877229148019
   226   1      23.951422261173093      5.3478725878366875      19.107605666896919
   227   1      29.820369213523925      5.2634359948486678      19.309008512182249
   228   1      35.493697661574686      1.3957910685620558       19.18671009084261
   229   1      35.369094802585103      5.2030106157527021       19.30623291610376
   230   1      41.224822262488388          1.623770927449      19.195327437898563
   231   1      41.004942668376721      5.3169774970099484      19.156869589376683
   232   1      47.046902518215653       1.924198164882964      19.244985146812404
   233   1      47.084289185109526      5.3319577210238114      19.075612594524564
   234   1      52.808704587085437      1.9336538101954845      19.214677288624518
   235   1      52.660043006721466      5.2834361501067608      19.152209673241448
   236   1      3.3138067077469784      1.9140164542299303      1.1990802795973288
   237   1      3.3471424563076688      5.7091366631997209     0.82307741052727645
   238   1      8.9409352816227443      1.7250876367425034     0.69338192809127319
   239   1      9.0495157251308296      5.4326868500392091     0.83842376596739387
   240   1      14.697027892591327      1.6552557660174394     0.87592868444597127
   241   1      14.676615529128403      5.3799826010595799     0.65391601611801975
   242   1      20.398292727454251      1.7721647705459089     0.87848572599544961
   243   1      20.346381375294612      5.2346428437582277     0.98982990720004704
   244   1       26.34601318962547      1.6348713649733628      1.0668811786996506
   245   1      26.062906900229432      5.4041699453747496     0.88668141796178301
   246   1      32.023308397603763      1.5980208933778681     0.91339011922183511
   247   1      32.032487643205947      5.1901762077218772      1.0223043296473797
   248   1      37.643420626626387      1.7268380114900539      1.0298069179801101
   249   1      37.773837083631747      5.1374248674157377     0.86349383995807505
   250   1      43.552865577919341      1.7832918555230417     0.98597210384839007
   251   1      43.198469286707081      5.4081205328241051     0.88938664840822801
   252   1      49.128282503799007      1.9616448183811861     0.75584126026667064
   253   1      49.209837533134255      5.3618992915384256     0.87383143384793471
   254   1      54.987262247375654      1.9290020175521716     0.80859610396535009
   255   1      55.079388086360879      5.2829982661963353      1.1908278884055428
   256   1      3.2344122013567684      1.9332928874740392      6.7593549814051945
   257   1      3.4546603161204779      5.2554850000159874      6.7454087466416626
   258   1      8.9542023526148284        1.44222552917212        6.49114045366822
   259   1      8.9110333397329224      5.2717409648588935      6.6482604696234642
   260   1      14.734326254166197      1.8932832889381346      6.8359319590467988
   261   1      14.625971883690832      5.4835965897423682      6.7087211833638225
   262   1      20.461681837855508      1.7307000023066665      6.6423188666667583
   263   1      20.533648110871656      5.3929481331525482       6.781090127982389
   264   1      26.199060720270882      1.6510713260677696      6.7625354949173033
   265   1      26.100594624249261      5.5064990858808764      6.6442733551842137
   266   1      32.032054269272933      1.7316788235270761       6.568788103769224
   267   1      33.612054043226813      3.6288887298879047      7.2610474847605593
   268   1      37.838334141514892      1.7360080635189259      6.9853520949591621
   269   1      43.462917435982028      1.7540034516236931      6.6861638548440041
   270   1      43.592839960794841      5.3936170984562848      6.7553476000826764
   271   1      49.038514223729308      1.8434137975058484       6.707102867604835
   272   1      49.118501433944921      5.3922743475278621      6.7617107945717345
   273   1      56.721124640350006      5.2439986887942522       5.915082398644615
   274   1      3.0647044850040119      1.8387999403113344      12.459879721998071
   275   1      3.2564162486478487      5.3105835901179148      12.488148812775034
   276   1      9.0759408264381385      1.7499334943407752      12.295151491571385
   277   1      8.8747932937617637      5.5184508209578587      12.470810438301912
   278   1      14.713750344126339      1.8760152754630413      12.503395882055498
   279   1      14.562765813007738        5.33466736179082       12.29533397235349
   280   1      20.551983298639225      1.6983103570290752      12.590624416635913
   281   1      20.483396478966668      5.2886807553674142      12.340366066512168
   282   1      26.216599062202079      1.7669517004301565      12.306585995195102
   283   1      26.210866462872332      5.3360088527793677      12.330690153343198
   284   1        32.0910271508424      1.6821211038382311      12.424267830107063
   285   1      32.085554189225796      5.3850610082515153       12.52476329634424
   286   1      37.932214106569695      1.7704912826580672      12.478588721022756
   287   1      37.590597873608822       5.355758777881551      12.378883178351211
   288   1      43.337259733093504      1.7354444284861452      12.430862660133128
   289   1      43.333957848170627      5.3240299486930329      12.384193887516947
   290   1      49.281214908311654       1.704337007966527      12.491641258810333
   291   1        49.1585902667955      5.4708372327800845       12.24743127413231
   292   1      54.664379720030439      1.7880812971589846      12.383367297073308
   293   1      2.9942620733364493      1.6954630784112312      18.170187182852747
   294   1       2.700923072305268      5.5283402694538433      18.119270265804573
   295   1      8.7621335742197139      1.7797980651905259      18.105952906581127
   296   1      8.6819217606196961      5.4748710060769001      18.187998160175294
   297   1      14.769029900906533      1.7456516303543397      18.087256956035649
   298   1      14.779599118146663      5.4789018287765865      18.179615986174117
   299   1      20.608290186036943      1.7070694849777359      17.917407114135099
   300   1      20.439702341577778      5.4083224573848101      18.043033506689728
   301   1      26.429994564045479      1.7098203683002631       18.02148332122707
   302   1      26.192975516692087      5.4925573201188609      18.165671731079591
   303   1      31.959079150769877      1.8210013476246725      18.021129640000893
   304   1      37.745142788389046      1.4838177465767051         18.103996899277
   305   1      37.736034150536739      5.0867778441231319      18.259307664876125
   306   1      43.551293548552501      5.4324843350790202      18.093123903932447
   307   1      49.241780097372775      1.9810687388769133      17.948129533171837
   308   1      49.467268979848548      5.5912037847948577      17.739001631769955
   309   1      55.047693346842685      2.0360454376099364      18.152952561977287
   310   1      55.022557863552052      5.4046277191660295       18.29715187648543
   311   1      4.4995130572611517      1.8453456192112636      3.3381601024745056
   312   1       4.478039368360875      5.5509626077694616      3.3065919739365661
   313   1      10.054165986970482      1.8198473732022353      3.0029963260964134
   314   1      10.056150525337232      5.3905428374106652      3.1929794745927391
   315   1      15.916331056600946      1.7387578097683161      3.1206999318986579
   316   1      15.973817870230814      5.5820132514514116      3.2022292118414066
   317   1      21.778084819436366      1.7178744214180328      3.0155102647246599
   318   1      21.683050946578781      5.3272836580244922      3.2740098625425738
   319   1      27.679915040870373      1.7061544173198304      3.1518439587918574
   320   1      27.571585226275239       5.262193429600786       3.356011122418483
   321   1      33.346624284322701      1.5276392926553293      3.2408228890767554
   322   1      33.044500627087537      5.1091033284176497      3.5110869862038512
   323   1      39.065277775844066      1.7378711242524452      3.4638615718885353
   324   1      38.806674506332598      5.2830394168283359      3.3742706744827058
   325   1      44.514879840885101      1.6687810702238373       3.313465424077227
   326   1      44.492768773130429      5.4258997776232434      3.4170462494681844
   327   1      50.199331103371513        1.86808641453916      3.3035575978097786
   328   1       50.07710694343502      5.4497872572510309      3.2889428995868237
   329   1      55.741950941862768      3.8477527224666455      4.2866625527557964
   330   1      56.554216713293876      1.6090469702351986      5.7624050967161491
   331   1      4.5847516120128491      1.8381266333907291      9.0843762846740894
   332   1      4.4001230532059692      5.4474141995098453      8.9272724187699435
   333   1      9.7746895440543646       1.768880621129052      9.1400876630001573
   334   1      10.004762468991995      5.4819129348747646      8.8706935008246717
   335   1      15.735318598606428      1.7182622632644506       9.125444321603398
   336   1       15.87813951768238      5.4479296253386522      8.9766483924739173
   337   1      21.569810427117162      1.7291148839761044      9.0079565139184208
   338   1      21.547320591054692      5.3109563770897017      9.1655390917024739
   339   1      27.358250211751962       1.745307997911131      9.0659838680022951
   340   1      27.243551424322654      5.3449363133627346       9.139175020050244
   341   1      33.020727437017733      1.7488636119088965      8.9552685838220327
   342   1      33.031632091697723      5.3845466792921224      8.8003191998277881
   343   1      38.826067898259566      1.8058159434292664      9.1654234632754878
   344   1      38.531117543923074      5.3848748678089287      9.0628346801565911
   345   1      44.573426706366988      1.7811466598296095      8.8714197091338214
   346   1      44.692125173461356      5.3401987549484815      8.8825047169174631
   347   1      50.166261024079311      1.8627491797701046      9.0312249439637284
   348   1      50.087248194197414      5.1874379700783892       9.085401517434148
   349   1      54.239569406051125      7.1016107891960374      8.7578814734299346
   350   1      58.576358473301156      3.5441777896577564       10.71509869108548
   351   1      4.2856643432120389      5.3464509103323001      14.560309479994583
   352   1      10.008211340962747      1.7585926926239719      14.810798951310225
   353   1      10.027597784158806      5.4764771055975086      14.796833735850646
   354   1      15.852092648199299       1.870395670544803      14.661437437595412
   355   1      15.858615055006812      5.4644835612658618      14.835615324115953
   356   1      21.767597552930361      1.7312511881710493      14.812502006058567
   357   1      21.742175063313983      5.3546105147880949      14.792600204388902
   358   1      27.408244762264019      1.9716549343188148       14.56115415264485