dump/S5_s00_n130_r1024_560_20/steps_1 (written by ASE) 

1534 	 atoms 
1  atom types
0.0           114.158223526  xlo xhi
0.0      7.2199999999999998  ylo yhi
0.0      22.831644699999995  zlo zhi


Atoms 

     1   1      2.2764580195768236      1.5625373371205358      4.4767800313990831
     2   1       2.001886121538718      5.7251528986763125      4.5104778941476331
     3   1      7.9317572177953055      1.7900823294160935      4.3662749622196211
     4   1      7.8252717037865267      5.4220550933305187      4.3973844793793075
     5   1      13.584438289633511      1.6242734075804175      4.4686663828577444
     6   1      13.470842729872428      5.2463383784935713      4.5321155856976985
     7   1      19.257310179273848      1.8124364601062835      4.5104815653625172
     8   1       19.26816152570305      5.2693785141639564      4.6751120339138499
     9   1      25.283389088177437      1.8079201301238363      4.5467869207438989
    10   1      25.204687404469581      5.3298497880966842      4.3436104838088978
    11   1      30.750678148077615      1.8128317055050431      4.5391191499756616
    12   1      30.828134717562154      5.4386655224064064      4.3168275923478516
    13   1       36.58781625454823      1.8379246156005922      4.4646215210120603
    14   1      36.568583361195529      5.3798520993571426      4.5938386945647753
    15   1      42.246800774066706      1.7208510183069636      4.5665841884003306
    16   1      42.329807578643987      5.2013401655213194      4.6967994116095859
    17   1      47.828059006761492      1.8985648607504142      4.6202242600753216
    18   1      48.050543924925577      5.4110708026562868      4.2890666059104285
    19   1       53.67142414049902      1.8677250424119411      4.5561187080131429
    20   1      53.857823186622255      5.3660477854180106      4.6738290368460067
    21   1      1.6760259363643284       1.670756058263632      10.069097336574721
    22   1      3.4671368782363654     0.20866654676698335       10.78744160913728
    23   1      7.6474083894836014       2.042954306922649       10.30984904407882
    24   1      7.5948913302798049      5.3610210650807746      10.237657126259826
    25   1      13.529104663672664      1.7375409451544261      10.365986087759357
    26   1      13.562793757633425      5.2937387482909077      10.265915797885933
    27   1      19.284330693948537      1.6961649368309837      9.9394600690723909
    28   1      19.325800882671185      5.1812480467221897      10.163032887257597
    29   1      25.133366896591813      1.8142078113348463      10.229973508179809
    30   1      25.203608100937526      5.3631765548799457      10.193522611944498
    31   1       30.93023677165618      2.0143664495321949      10.288283092060485
    32   1      30.880696118188123      5.3884616923792663      10.365041241081455
    33   1      36.576811422985337      2.0221731281651123      10.007774205695894
    34   1      36.621520025316812       5.370411062178694      10.266171154822654
    35   1      42.110032039989399      1.7397282901850668      10.243815343481216
    36   1      42.037063490939694      5.4004729419738773      10.249719520978992
    37   1      47.985235419749955      1.8205117001778215      10.336644401857207
    38   1      48.011245643584928      5.2844499515617329      10.345581490079965
    39   1      53.985484125644426      1.7988218168889176      10.034475641427724
    40   1      53.890089061492866      5.5516942974534782      9.9951612339664315
    41   1      1.7551829093230018      1.8003588701463986       15.95127353696982
    42   1      3.4795295150236316      3.4367564218274218      16.504569214615103
    43   1      7.8348758606086886      1.7074389239849048      16.155083132414735
    44   1      7.9507860485380366      5.3329400323484162      15.944029677325078
    45   1      13.523284270381438      1.6906738010449747      16.233441220056477
    46   1      13.554583345587755      5.3936275788452432      15.774742264635204
    47   1      19.496565763245901      1.8756997662985428      15.917939409329556
    48   1      19.550245331054427      5.4425562355616774      15.849553549820284
    49   1       25.16848715504117      1.7528813167419557      15.922605624756914
    50   1       25.01668557173608      5.4972574356380814      15.867620269051869
    51   1      30.847867122758732      1.7921751168198008      16.135195367167867
    52   1      30.797844258360612      5.4228632824132186      15.974084820882922
    53   1      36.511923445392512      1.8407026913340152      15.861846093751064
    54   1      36.509651941490787      5.4395488519489321      15.887384643586614
    55   1      42.259156597046207      1.8923298986634309      15.781031075227517
    56   1       42.29113604588904      5.4383597747206815       15.91859020954225
    57   1      47.960854373171976      1.8055648973177432      15.726814073903764
    58   1      48.106447974872907      5.4517905633416639      15.878864177740979
    59   1      53.567982752774235      2.0182055678736663      16.080865020406907
    60   1      53.831563859900491      5.1575358503929571      16.048485761015961
    61   1      2.0353556273017115      1.5834378045154007      21.678828136676071
    62   1      2.0437754390703411      5.4971027423740511      21.621501391483783
    63   1       7.780306293371825      5.3295617297319797      21.426560725844304
    64   1      13.625451689061858      1.6029195443209003      21.643380031291546
    65   1      13.748561637790091      5.3111286360265799      21.336844300646273
    66   1      19.419203853522294      1.7341074302756709      21.582330525677644
    67   1       19.37217488150602      5.3800376313898397      21.679871881891117
    68   1       25.21214904518849      1.6823258934503083      21.819045520670095
    69   1      25.004177418924222      5.4432287279532465      21.618052332494088
    70   1       30.81422841518194      1.9338196092690241      21.453834948293355
    71   1      30.463030803279654      5.5919942191241354       21.77634628715094
    72   1      36.553396836261086      1.7857677987964731      21.625596195915719
    73   1      36.589132775866993      5.3460958318681726      21.548348437634925
    74   1      42.042191419917962      1.5992792909883178      21.631351649548936
    75   1      42.223958685129411      5.4578033160492225      21.475670112751239
    76   1      48.118737104717503      1.8553753793061061      21.526056275583926
    77   1      48.137496544226472      5.0523445723566738      21.441657731911306
    78   1      53.971033916877978      1.9856712854240788      21.716864809425026
    79   1      53.735125620926745      5.4098799383303007      21.737706909492847
    80   1      114.04054805133576      1.7288616784203839    0.022090487915791317
    81   1      113.89398195540316      5.2995287453377475    0.013133202931445343
    82   1      5.6104676167241188      1.6544332282484226      22.761193024140624
    83   1      5.6746439289391724      5.2755492901283301      22.671262778378861
    84   1      11.291758044067501      1.5681706766572803      22.542138205466326
    85   1      11.180364374374532      5.2985244770384288      22.769843835840515
    86   1      17.079303399083734      1.6483826457552708      22.697383334971811
    87   1      17.075989848043179      5.2389150445072552      22.720798008923026
    88   1       22.84122463856005      1.7131161948428901      22.706689223985418
    89   1      22.855025430721025      5.3741239785695418     0.34895415402871821
    90   1      28.480001599648435      1.8893507240664045       22.71584013944144
    91   1       28.45194609466191      5.4884216760346423      22.749960935511162
    92   1      34.307382767443741      1.5486885215846946      22.628178464381559
    93   1      34.324645457947433      5.4898195059884074      22.743772956422653
    94   1      39.900878673681859      1.6496828218684054      22.778225114101065
    95   1        40.0254169233434      5.1694514459114727      22.712658201423423
    96   1      45.698661773014628      1.8101514032925803      22.816617039658546
    97   1      45.856335198968601      5.3566691267973106      22.600373999506708
    98   1       51.59746050190455      1.9535610424777619      22.618433506899958
    99   1      51.551525615066865      5.3788608950426227      22.805838628515399
   100   1       114.1101182246079      1.8032478763728672      5.3565080199139281
   101   1      114.02984835959545      5.2654933514021414      5.5610753896741274
   102   1      5.6427843756180804      1.8134667554850366      5.5816647981638914
   103   1      5.6269158152292125      5.3912809207450199        5.42228760690515
   104   1      11.288024070075071      1.7404496617847638      5.7658311490567895
   105   1      11.312852731167645      5.3793429495331511      5.5818524556370637
   106   1      16.907697071450933      1.7926506762354997      5.5477169199809424
   107   1      16.797902957722066      5.3828740295105222      5.4961402282213516
   108   1      22.878519899167888      1.7932603813425052      5.6297707844481923
   109   1      22.812325640890855      5.1999194972951139      5.6535534517201622
   110   1      28.623351864497238      1.8945060367260158      5.8453853984201718
   111   1      28.651261556659431      5.4712849609702099      5.6140080464515538
   112   1      34.334357091510817      2.4121873228911355      5.1886726241162782
   113   1      34.201242413805481       5.305215490131765      5.6581103505419108
   114   1      39.876995569171989      1.6853681096987785      5.6534624461335561
   115   1      40.107722372364691      5.2411542829779547      5.6126717961401607
   116   1      45.690810909899639      1.6486563936181615       5.643948331420674
   117   1      45.710151547489097      5.4132343987371794      5.7467907487202226
   118   1      51.619471632861682      1.8682544040173679      5.6515444382583064
   119   1      51.620192077168355      5.5290219369672311      5.6326849160748571
   120   1      112.85217873379705       3.537593769327843      11.973729161292212
   121   1      1.9909835451886762      5.4815638988070985      10.090040862073007
   122   1      5.4889718710346438      1.6008729126602901      11.320780030219698
   123   1      5.3557105896729347      5.2629742534770587      11.439573761257423
   124   1       11.20132093378216      1.7131746433727812      11.552291512944652
   125   1      16.897370321662724       1.701663275976518      11.157471180881474
   126   1      17.046533739670533      5.1376557944524057      11.123916461891945
   127   1      22.917829269235138      1.7731807156599126       11.30918832950605
   128   1      22.861113918857814       5.155768890467896      11.271881193760763
   129   1      28.662751439372791      1.7767163440159812      11.579707739895326
   130   1      28.718801048159424       5.507704437499136      11.412397343112335
   131   1       34.29617462636196      1.7758597381154635       11.35640051228083
   132   1      34.297759463611257      5.4191068613029154       11.22305301201486
   133   1      40.024866075533303       5.633608690932923      11.398203188645679
   134   1       45.51069387216932       1.737065974077141      11.467327814950655
   135   1      45.861668289869684      5.4996809359183807      11.523108196435178
   136   1      51.602909717005822      1.6881460118298068      11.177370369697401
   137   1      51.503092466417549       5.341739829427631      11.156409070943244
   138   1      112.47687168507842      1.6124480412953635      15.677186653203204
   139   1      5.3635792244760623      1.5828719612875171      17.008378195558702
   140   1      5.2541845172963555      5.1468462702613689      16.909729038336405
   141   1      11.091291323901432      1.5255640344989931      17.054253016369469
   142   1      11.336092753294066      5.2981086407465829      16.998225224039714
   143   1      17.185291866837709      1.5276536735899828      17.134211606704675
   144   1      17.310332431808959      5.3151222478201205      16.963233991568469
   145   1      22.823672652088092      1.6714864592758185       16.90743034728504
   146   1      22.938475079448679      5.3984152395872051      16.976092300726783
   147   1      28.515669267401599       1.935677950950949       17.18450773413748
   148   1      28.410254878553246      5.3331131295228626      17.127360380321239
   149   1       34.35937149342756       1.810908898381558      16.957629890853045
   150   1      34.182327877882486       5.593183180744961      17.105777670823855
   151   1      40.176890859399712      1.9461875332698835      16.907895305263875
   152   1      40.050696838542599      5.5065295324450005      16.914722717024574
   153   1      45.780364281209962      1.7062776939299207      17.103557332567068
   154   1      45.653097480382883      5.4997080416795292      16.684173782276606
   155   1      51.448840494032169      1.8805036354998617      17.122946042943536
   156   1      51.566489585019006      5.5476478864863665      17.049161137591465
   157   1      1.2684186720384689      1.7974890418552378      2.2652419025074209
   158   1     0.99757184527696496      5.3323983680710709      2.2415730724641008
   159   1      6.7551596651304378      1.8288671024365508      2.1401418296873334
   160   1      6.8449671531126706      5.2705002179679914      2.2610228050219421
   161   1      12.450011965991719      1.8379336513695039       2.019538253952827
   162   1      12.313495977508021      5.2258647372446081      2.2634713205927079
   163   1        18.4349670707721       1.617454530716232      2.1650730994533633
   164   1      18.190846140451221      5.5115051792951792      2.3895619552749863
   165   1      23.844270366989736      1.6877529772503019      2.2138632028105087
   166   1      23.983347606909955      5.2769593881129868      2.3970950408440728
   167   1      29.627796668612998      1.6781373116538634      2.1079587202676517
   168   1      29.772780306897701      5.2794126642662267      2.1671346800797751
   169   1      35.031138278416663      1.9208891620707913      2.5080363217628117
   170   1      35.338721520729145      5.3361981877960272      2.2658133898437094
   171   1      41.178371804928268      1.6812084420015421      2.4138329217862342
   172   1      41.155840167800591       5.265196059226243      2.2396093228769476
   173   1      46.799207294039697      1.6119504205599853      2.0979069127185426
   174   1      46.892378645548149      5.2582852967963536      2.2776396883962584
   175   1      52.565712446052338      1.7849031062613556      2.2295975298979838
   176   1      52.700717345963689      5.2670441675364703      2.2586783208127459
   177   1      1.0309359890457019      1.8983030222763393      7.5761232261059055
   178   1     0.98269873687317166      5.3661407630940214      7.7089404722383641
   179   1      6.7904564581909055      1.6611795464978061      8.0491526339969806
   180   1      6.5241850822520648      5.3574659506941718      7.8350747799454314
   181   1      12.254059533211279      1.8863215881288116      8.1631545430888206
   182   1      12.252692728828597      5.4018390088577242      7.9348246176625121
   183   1      18.265725650724509       1.617580496022279      7.8449558454254431
   184   1       18.01693647268435      5.3271248876106432      7.9323540590260153
   185   1      23.802626627078869      1.9284952846517844      7.9812154873053531
   186   1       24.09153297974602      5.2952507185658906      7.8255383387495652
   187   1      29.699048568863887      1.7963300553742867      7.8405779655963483
   188   1      29.792578416037014      5.4190036856743697      7.8700640772164228
   189   1      35.378132189509657      1.8064758475843563      7.8576630584361915
   190   1      35.230934866229596      5.4992164507730434      7.9314435935394405
   191   1      41.236391589010907      1.6042513333162398      7.7406809865559092
   192   1      41.120763720779074      5.3678265322057763       7.869090182906767
   193   1      46.867115511819691      1.8862710223519379      8.0314232856404164
   194   1      46.957791903517133      5.2355891860150434        8.07400073993022
   195   1      52.526513501419153      1.6804589504129794      7.9166734991975583
   196   1      52.752670051736004      5.4135787113791149      7.8587413563506594
   197   1       2.231173817491944         3.6848784283303      14.365995268453069
   198   1      1.8156468501256937      5.4334852951783006      15.922109047773823
   199   1      6.7966027224576777      1.7901657276611322      13.629237645513614
   200   1      6.5760119037887721      5.5007326546016193      13.804360041499837
   201   1      12.522139728253718      1.8025527267757793      13.792639529959672
   202   1      12.352149832849156      5.2170018983727759      13.639599756865346
   203   1      18.085387866224718      1.5699111004506749      13.622097404590971
   204   1      18.279608552993047      5.2038118847905741      13.797472494493908
   205   1      23.956095255467332       1.986789549692934      13.678894785399626
   206   1      23.956206594261396      5.3924846674914528      13.600184013430347
   207   1      29.702832253123468      1.8175871485246422       13.86142897011298
   208   1      29.736918918685273      5.6257704308568055      13.681853132431854
   209   1      35.253603077483859      1.9412709174257226      13.739965180672883
   210   1      35.300648326777363      5.2618380710469612      13.482253046017636
   211   1      40.903501476816231      1.8575476211355815      13.588440298321553
   212   1      41.084341082892664      5.3921732246222698      13.594001206133562
   213   1       46.97002455221827      1.8115013247264218      13.632347583246625
   214   1      47.017193014984521      5.2867676978791041      13.650527114798525
   215   1      52.604037240718149      1.6381675789491115      13.470319217284407
   216   1      52.779326291268049      5.2685481098982407      13.648515901664901
   217   1      1.4369250049617539     0.10549934347920151      17.587694746434202
   218   1       1.353854666476199      5.2225552600934693      19.420851291912129
   219   1      6.5459309885119579       1.758306772827571      19.180634000346082
   220   1      6.5895296393321425      5.2920095262180809      19.291447503798079
   221   1      12.592487230146476      1.7696678169187303      19.176777458535859
   222   1      12.634783285363302      5.2338036769840794      19.409618457541189
   223   1      18.536068038500314      1.7691738033092439      19.036721907670721
   224   1      18.399140827061267      5.1582665212912415       19.53074816216451
   225   1      23.908447322525561      1.8700723552441632      19.399785677592671
   226   1      24.096596542258851      5.3267567168377292      19.329812787402524
   227   1      29.611920254556267      5.3295581020962874      19.207900218254661
   228   1      35.543429919353343      1.7136056153940349       19.09154501922195
   229   1      35.431432597779853      5.6079241905967772      19.321216977526447
   230   1      41.115598536990738      1.7864222891973813      19.316699193035905
   231   1      41.358187638099224      5.2966094961373464      19.149981741422444
   232   1      46.865337026439029      1.7573379062402317      19.344447522273931
   233   1      46.727332743227038      5.3656981067664633      19.242663337078174
   234   1       52.54736152895066      1.9231288428972542      19.404020817951963
   235   1      52.688870263869859      5.5656968856597349      19.404840733491049
   236   1      3.2690739948722261      1.8782027259410088      1.1321821965773515
   237   1      3.2561832210440995      5.3718610337947377      0.8977895394601586
   238   1      8.9656021154370169      1.6536453259265034     0.79661929946324306
   239   1      8.9554654097746571      5.3509704408413929      0.9056000727788085
   240   1      14.887223993530265      1.7951222474610189     0.94590336706738887
   241   1      14.886978063367403      5.0050868864694724      1.0964046462176202
   242   1       20.56767809158265       1.574519121938337     0.93570947192707621
   243   1      20.621151796861536      5.2895870777015492     0.99739028401291563
   244   1      26.204730714249983       1.711243537880341      1.0925080987663287
   245   1       26.15322361814523      5.3637484250540046      1.1003049338633935
   246   1      31.890160670455796      1.8572108739254409      1.1151510742494692
   247   1      32.025993067064043      5.3528074827159706     0.97771730385271449
   248   1       37.77376432793637       1.731608777102597      1.0705164783046839
   249   1      37.669262028820469       5.348833741821851      1.0530563594982569
   250   1      43.386441775441938      1.5912730512329318      1.1915237608062206
   251   1      43.565128532985121      5.4408992939001983     0.97379703735599688
   252   1      49.412664869290367      1.7779377807532304     0.82967570339403962
   253   1      49.147614662037434      5.1881581682016309     0.73485462074181018
   254   1      54.803862186651713      1.6783059665141953      1.1803579331282168
   255   1      54.871858128466037       5.365981779977246      1.2246233767496673
   256   1      3.3340836830002827      1.9691037413493255      6.6300114067331304
   257   1      3.3148270463639302      5.3852015349402365      6.9114827260974732
   258   1      9.1170255544563581      1.5306253866643342      6.8414174450858418
   259   1      9.1451955065108255      5.2574285252143502      6.5503040776882289
   260   1      14.664551959025196      1.7017222141347679      6.7119878104553914
   261   1      14.412677177236597      5.4210431802106207       6.950045152013832
   262   1      20.568863677191732       1.625048176967115      6.7844454306841948
   263   1      20.480274944128578      5.4581620883883151      6.7049405628349241
   264   1      26.409800877354076      1.8253459049874126      6.8861698881425468
   265   1      26.356683958162122       5.560035568051247      6.8804610131753972
   266   1      32.086127039853444      1.7453931793164201      6.6133572505816787
   267   1       31.90613362007732      5.4887858729274335      6.6055261007680697
   268   1      37.552497056540325      1.7435365652581449       6.841672078571257
   269   1      43.463860870770489      1.6317401102116436      6.9351799618430841
   270   1      43.372373491692088      5.1401116750190852      6.8227364992368127
   271   1      49.087137800791446      1.6572090371334907       6.670068932877248
   272   1      49.117545721995121      5.4031623972781944      6.6994812226746383
   273   1      55.025051485561136       5.385346806940186      7.1125111547312647
   274   1      2.8344390994094621      1.8146368731461937      12.483165742069206
   275   1      2.7676147229160164      5.2795406827195883      12.416106064658541
   276   1      8.8773651208283724      1.6049817489135625      12.428987793572595
   277   1       8.980979179683855       5.448854593018079      12.522022763761989
   278   1       14.71259160157406      1.6436262395497594      12.502976080901247
   279   1      14.605047467542756      5.0999900491190688      12.596571959731421
   280   1      20.629214778326258      1.7807398762524864      12.348457662025627
   281   1      20.567825051389132      5.2804207770337062       12.28940904144501
   282   1      26.268176649057391      1.7780352616169337      12.581011070848424
   283   1      26.245263811010734      5.5358426752304979      12.455412026068387
   284   1       31.93757301021995      1.8409526884692626      12.722037900921656
   285   1      32.046498875091991      5.6655734313005706       12.58669895236104
   286   1      37.476978376304977       1.891092837432742      12.385873097185094
   287   1      37.779491963720176      5.5298504631121403      12.265796326139572
   288   1      43.254386698865574      1.6875946765862231      12.508924380337586
   289   1      43.362706194826735      5.3001632037994808       12.51082719832921
   290   1      49.249547105164098      1.8343359252381508      12.511431926459919
   291   1      49.191115677798173      5.3152390644847918      12.501281209461528
   292   1      55.131046291858816      1.9481910535359954       12.37713609619818
   293   1      3.2382593514664917      1.7085548271458311       18.38831933754955
   294   1      3.1121624296395942      5.3881529682594902      17.994392254433674
   295   1      8.9672997125251399      1.8362806098983018      18.382032621333551
   296   1      8.8957729639562402      5.1017205407279764      18.428290665083047
   297   1      14.775059211790403      1.6100006582915258      18.288465550021254
   298   1      14.929786384930882       5.080547208247066      18.140140155056699
   299   1      20.851406211987584      1.7309538487635858       18.02546965479652
   300   1      20.695089740116689      5.5190513189770716      18.136237297027368
   301   1      26.402568907586666      1.6872964018333847      18.189090171662077
   302   1      26.201163484710463      5.3911742810379808      18.266801474170904
   303   1      31.946569870832665      1.9521359167334082      18.462385521031763
   304   1      37.734334808089564      1.7439823587073708      17.982168924760984
   305   1      37.743204474230545      5.2224616946125746      18.022608567468161
   306   1      43.532567726480814      5.3341567003433337      18.151812683895539
   307   1      49.019812112365756      1.9783327251324236        18.1802641077098
   308   1      49.081772809610328      5.2197154183335162      18.225875052625625
   309   1      54.798427803695326      1.9938713477849859      18.179853792827085
   310   1       55.13528789030579      5.4920728123407985      18.394281250589046
   311   1      4.3192276127150722      1.6507659042061293      3.4309545777144148
   312   1      4.4323271681183796      5.3651589450537074      3.2989619518306927
   313   1      10.259154459762859      1.7538294033498896       3.310589343914577
   314   1      10.226486453227285      5.3357908220579704       3.303467048760425
   315   1       15.85677114230249      1.7364343185652589      3.3439053729255006
   316   1      15.769713316019933      5.2980291900227119      3.3661999942321721
   317   1      21.638326286835142      1.8188782316947172      3.1937176188719132
   318   1      21.613492583158827       5.370277430413628      3.2884820340072274
   319   1      27.496543263987757      1.7655942212752975      3.3124259048754814
   320   1      27.463199149739737       5.320584006118497      3.4367561541461638
   321   1      32.900108708666536      1.9011236200119184      3.2146481456679132
   322   1      33.160474657419158      5.4310914631591114      3.3431785013505895
   323   1      38.834816192131306      1.5531987163032257      3.4594810797274524
   324   1       38.88471624106166      5.4643761747350412      3.4266404750871811
   325   1      44.492848160470999      1.8846724888097945       3.434604838982505
   326   1      44.492233940825457      5.2711079378159713      3.4125292488220977
   327   1      50.203401900261994      1.7555466136720272      3.8017243386616228
   328   1      50.296910327874912      5.6462449499790415      3.1382761571950621
   329   1      55.690506600826353      1.7672119980127923      3.4034756419526913
   330   1      55.926211140299486      5.3019406624899901      3.5733643333858667
   331   1      4.1981215277244832      1.7992480593274696      9.0530357889694582
   332   1      4.2682365171866827      5.7325532509504358      9.1744725889057701
   333   1      9.9545917491818141      1.8824565328034586      9.2184179508075648
   334   1      10.095654455662906      5.2631649997515737      8.8319874512589429
   335   1      15.672228515085688      1.8273672004814581      8.9726573455227303
   336   1      15.710705880435139      5.3790554712223324       9.101825242760718
   337   1      21.667591943628718      1.7032741457735661       9.100491003279215
   338   1      21.836593762258488      5.3028349349094608      8.9945625178298396
   339   1      27.510557882168609      1.8747439507196604      9.2792280316407751
   340   1      27.621325785913744       5.457304074762745      9.2314263051031791
   341   1       33.22451061346591      1.7770458050861917      9.0985212178202293
   342   1      33.044122298808645      5.4912773739945644      9.0939522929565442
   343   1      38.891725796609315      2.0354143300907479      8.8047168142512593
   344   1      39.001996164065531      5.4283959211776152      9.2118718317931734
   345   1      44.389013591959348       1.883700543119553      9.1414391349011392
   346   1      44.618437740614347       5.408477007651511      9.2065442611896842
   347   1      50.359778816014817      1.7236302825772274      8.9770356163175276
   348   1      50.342938557008637       5.429572269582807      9.0398624672885575
   349   1      54.883051398312311       1.763008513668485      6.9270991704605871
   350   1      55.820952214722396    0.076102392238655364      10.702416031364463
   351   1      4.2550477569862819      5.3353423278385526      14.742148692444937
   352   1      9.9897253624706916      1.7407081343979054      14.688413908859607
   353   1      9.9513951626206598        5.37487710873532      14.804321691558854
   354   1      16.002694158544575      1.4976599137817794       14.77829934802625
   355   1      15.907886605008635      5.1692732197815721      14.810651088308445
   356   1      21.641642180975758       1.746860497891543      14.622590188729573
   357   1      21.585810292928095      5.3533160484722808      14.723739446181501
   358   1      27.399131285989359      1.8933168256903132       14.73396354214708