dump/Fe_1350_0/steps_71 (written by ASE) 

2000 	 atoms 
1  atom types
0.0      28.699999999999999  xlo xhi
0.0      28.699999999999999  ylo yhi
0.0      28.699999999999999  zlo zhi


Atoms 

     1   1     0.25081330645584948     0.13893519078127561      28.553285196489728
     2   1      1.5431245103908957      1.5841364623051615      1.4328499935953356
     3   1   0.0055850490940999378      2.9084327230113161   0.0073255423473710928
     4   1      1.5259825007110626      4.3774501564716974      1.5018844907329916
     5   1      28.671627339973245      5.7582332623615562  0.00050742085300044021
     6   1      1.4596564910320815      7.0822480320332533      1.3083580730783282
     7   1    0.038386500896549415      8.6972372571779264      28.535415249992187
     8   1       1.640764293250244      9.9328932932404044       1.316647558702879
     9   1     0.26652216409827612       11.14620142935175       28.63906090489208
    10   1      1.5302044542032498      12.912376744869283       1.299829837452102
    11   1    0.024474040700343157      14.497558093821365      28.591565902528117
    12   1      1.4307973669261873      15.834792474717199      1.1324355634611161
    13   1      28.577548802370615      17.249945057094607      28.600163463042861
    14   1      1.4616713337318403      18.681321623317181      1.1642186747493712
    15   1     0.11789683371524992      20.236865056217621      28.616916497973989
    16   1      1.3059728109265965      21.555612235048919      1.3494374013116945
    17   1         28.528385810825      22.961277798112317    0.057915271145270758
    18   1      1.2432097982821131      24.330373912220939        1.19457074791428
    19   1      28.550317708313404      25.896952895357384      28.562142874321722
    20   1       1.516231418892813      27.305437401500178      1.1618528672069945
    21   1      3.1364005181024543      28.572512025204407      28.684388321164537
    22   1      4.3717304598019258      1.4470800090682026      1.3544126829439163
    23   1      2.7910013556726438      2.9586697382917455    0.088369073366584408
    24   1      4.3489508497204872      4.3107722567078834       1.839560182828369
    25   1      3.0058964671626898      5.5592225177685961    0.088961974803828545
    26   1      4.3483189969220506      6.9366105534488627      1.3701019470105498
    27   1      2.8728019900394406      8.4491630937276376      28.685098138845206
    28   1      4.2613505033918004       9.832990116703904      1.2143467793376661
    29   1      3.0440979999347326      11.414804367878324      28.516209212285819
    30   1      4.2372004855928385      13.035936773004142      1.4025043552606353
    31   1      2.8123497272810165      14.364935945003744      28.681843326086682
    32   1      4.2461906385336325      15.696916782624161      1.4580909036383545
    33   1      3.0359353285718615       17.14303759601907      28.512595682834988
    34   1      4.3653381290308335      18.576347983580671      1.6338750774948501
    35   1      2.9961549054148717      20.217659425297487    0.052284221615786976
    36   1      4.2947469563718847      21.515880444108397      1.4486427958139867
    37   1      2.9694437742863666      23.142580605615933      28.644903842817346
    38   1      4.4027489764203356      24.480604175692594      1.5655001105804098
    39   1      3.0318928771453648      25.771378584470291      0.1405388708031638
    40   1      4.5245011465593086      27.188269471674062      1.2323789240329577
    41   1      5.8226635196155661    0.027643359524826713      28.568976840308043
    42   1      7.1879760047352681       1.305231733661161      1.2482260600889166
    43   1      5.6363076854980196      3.1911560478571714    0.045456856825569492
    44   1      7.2464424311653817      4.2260827063379365      1.2664446658247923
    45   1      5.6761762426593121      5.5960646565861367      28.523434112341235
    46   1      7.2208480776387622      7.1001242694872921      1.5689987870108322
    47   1      5.9179765506613116      8.3969562985778303    0.082565739692870441
    48   1      7.2380206350849656      10.027481639118603      1.3314912865081381
    49   1      5.7542732121195259      11.571853061503107    0.011758970003381818
    50   1      7.4181576104905558      12.870752329398762      1.6182302859995612
    51   1      5.7587426157358257      14.336886601285386    0.010235255075292583
    52   1      7.2683883669458895      15.789581940152917      1.4412518507182315
    53   1       5.580278646821494      17.180595175941544     0.16109605547603675
    54   1      7.2155832657061598      18.680163520697395      1.5573718182009189
    55   1       5.830888036129263      19.995190978737401     0.15584749906000758
    56   1      7.0474732063215439      21.620029827968011      1.3590247222604708
    57   1      5.6115022229213727      22.936269904846579    0.045898499958013927
    58   1      7.2927450915027734      24.088238934324004      1.7069496088110765
    59   1      5.9807452768358855      25.719842576203526      28.697637790716328
    60   1      7.2044900187893113      27.314669556386452      1.5856027384287708
    61   1      8.4686338824911562   0.0027548164755689108      28.477504412607434
    62   1      10.053751370327946      1.4111856901290578      1.3944146882547661
    63   1      8.6493184501351514      2.7740258632077621      28.482262900422644
    64   1      9.8479306824011932      4.3181462367950649      1.3077415573050297
    65   1      8.5059397853945597      5.7415170543908882      28.427730817788163
    66   1      10.155213151591992      7.2023034376995954      1.3363663056658532
    67   1       8.521467368601872      8.5630793887694416        28.5584189567839
    68   1      9.9582547415159954      9.9277597074691588      1.2398316641464466
    69   1      8.5951427407857466      11.606921097849964      28.697741296579554
    70   1      9.8369615593713906      12.946404321595246      1.6336203389855757
    71   1      8.7106358616256774      14.344076505004017      28.530851124247931
    72   1      9.8201801458175524      15.691570245379056      1.2920090270494589
    73   1      8.5900110114926864      17.227224479433893    0.071187368322796485
    74   1      10.075729198786458      18.677152940220441      1.4923108053049758
    75   1      8.5365595494251103      19.991358561481473     0.11173041112698461
    76   1      10.052169385867066      21.595084834916058      1.3908851033246947
    77   1      8.5709087541776672      22.639800118937078      28.578735775966599
    78   1      9.9724465494346415      24.279200436601673      1.4228051082889703
    79   1      8.7028428377627822      25.728692820668922     0.22075268262412898
    80   1      9.9954866800940945      27.310763876169556      1.3124427964463521
    81   1      11.481190037854036    0.063573614480914725      28.528578224647905
    82   1      12.932406916163986      1.4697670084396912      1.4225531188980425
    83   1       11.43809078019663      2.8305000519330088       28.61845732809137
    84   1      12.883900046516061      4.1822881870349926      1.2986257289675913
    85   1      11.398198164242238      5.4713778113784404     0.15997709863861467
    86   1      12.812617206284129      7.1770551157381028      1.5076157272713999
    87   1       11.52083130473134      8.7732124022012634    0.099896651215453824
    88   1      12.924297123316498       10.07999205484724      1.6987677218104971
    89   1      11.262660113112515      11.486667886266533      0.2308371364036817
    90   1       12.88349111643053      12.968752945864615      1.5237294778206334
    91   1      11.574686751890196      14.385754621662336        28.6745930356062
    92   1      13.074622455439821      15.625684131824981      1.3392435375775338
    93   1      11.495037025856174      17.204345255469558    0.043148718145300788
    94   1      12.796867876617483      18.821777538525357      1.7816882440353421
    95   1      11.505122882928836      20.161374585762875    0.033078545319710904
    96   1      13.030222181206446      21.573803637971945      1.3778627151520919
    97   1      11.540609763455365      22.896792323523247    0.019845347882426277
    98   1       12.96277026008406      24.478081812855706      1.4905429883483974
    99   1      11.445392207849149      25.806548736405837      0.1519793000104982
   100   1      12.807606838597534      27.153687491840344      1.5715712710420238
   101   1      14.441236932106186      28.688687881081506      28.677259286771204
   102   1      15.913480342923332      1.5749486841255478      1.1952035304478039
   103   1      14.360518466375291      3.0502165874213127       28.64183170896165
   104   1      15.873922972127072      4.2262515728723145      1.4069221784322621
   105   1      14.480137565062433      5.6231584637381005    0.018854720044441817
   106   1      15.656020022149177      6.9713763521663363      1.3980444188441425
   107   1      14.309834475652787      8.4423746962472297     0.17808398074993198
   108   1      15.572171963520537      9.7997691383861607      1.5562330241274152
   109   1      14.183511133224039       11.46012644966976      0.1128714252864598
   110   1      15.830181220531138      12.981952045086789      1.4365858984018929
   111   1      14.300833187813822      14.288989285740815      28.654247150549754
   112   1      15.882854497036831      15.722264268986807       1.423107281810599
   113   1      14.297415110816837       16.97285758878164    0.052465320335386499
   114   1      15.645238588700108      18.658001897222576      1.2222571973121956
   115   1      14.235371563512437      19.832345789878964      28.610720390783257
   116   1      15.691220716659991      21.791243902399621      1.3796979024959781
   117   1      14.414234172346431      23.176785454552768    0.078487035146497311
   118   1      15.849131364642144      24.372405507307601      1.5058486751669533
   119   1      14.310692030055641       25.91009449790258      28.496547678525069
   120   1      15.751425546084738      27.419767869647035      1.4024121739726625
   121   1      17.263408692685811    0.039787213320505631    0.089791975794855719
   122   1      18.744760817144531      1.3924352872950518      1.3263027069664532
   123   1      17.224013218815532      2.9147008039834739      28.392394265754678
   124   1      18.638308654103291      4.3569106255511487      1.3882925726599173
   125   1      17.357595360776898      5.7788416969692777     0.02788989597994488
   126   1      18.988895774894065       7.155032593368821      1.4000171941252353
   127   1      17.098210346361402       8.422955732319549     0.20358358388613162
   128   1      18.748665268191505      9.6742298079981577      1.4281528397233378
   129   1       17.24933115927789       11.41345436396468      28.651499516470142
   130   1      18.692722275260728      12.656901074413998      1.4405808440423689
   131   1      17.460527170173513      14.235331116934924      28.633123308015044
   132   1      18.756220791259555      15.938343778156016      1.3944082250968224
   133   1      17.074974986851924       17.18081301371166     0.06853725913665594
   134   1      18.760116060168837      18.887914913174807      1.5300205938915732
   135   1      16.947734811426955      20.178835988586467    0.010758373846567791
   136   1      18.569954254808703      21.579277836286149      1.3693405420561477
   137   1      17.159554378119022      22.955679054744017     0.15438715845518811
   138   1      18.675673468213912      24.677734326935205      1.6703866205964577
   139   1      17.073704527830781      25.754492857069945      0.2033142526089817
   140   1      18.650849407454135      27.314443727003781      1.2233896988499959
   141   1      20.152246548820564     0.11120017544765225    0.057996987383876243
   142   1      21.601640919574219      1.4625663217693943      1.3439578492805127
   143   1       20.07997253037945      2.8222886185165872      28.599882605475244
   144   1      21.745957653996633       4.400159382563908       1.284061382188316
   145   1        20.2756573970392      5.5415527984721527      28.647026886288177
   146   1      21.701014963673018      7.0035986704017557       1.512946782025393
   147   1      20.226901350750072      8.5147339503071748      28.674642094944378
   148   1       21.70174367426339      9.9691782007739196      1.2956897870760951
   149   1      20.121270227653579      11.195779528988993      28.685369141667586
   150   1      21.600585152287003      12.553980235548156      1.4269887430890436
   151   1      20.147633507918531      14.393076344078789      28.662494458260497
   152   1      21.711097711520569       15.59007474983501      1.3831910662485014
   153   1        20.3805618701222      17.159816560173248      28.694043376158991
   154   1      21.682450083351224      18.525580420076107      1.5710666785839189
   155   1       20.17592048241891       20.34958116023131      0.1000697430166497
   156   1      21.499194502675792      21.761829065339793      1.3712516564308774
   157   1      19.920516547634818      23.049595912560829    0.047362657870439792
   158   1      21.503258168865077      24.623926247799886       1.534218426473263
   159   1      20.171600511541104      25.951534921302557      28.662194188193382
   160   1      21.481181260228386      27.284277990057301      1.3999991608360465
   161   1      22.897022427222574      28.688717950774123      28.594129022917887
   162   1      24.243118490101317      1.1931794221117218      1.4952090144695485
   163   1      23.030929090117745      2.7681418807766711      28.498436827939805
   164   1      24.449708116098115      4.0062044383628415      1.4209362797455574
   165   1      23.320692349488411      5.4478693136631575      28.535377203894996
   166   1      24.423459757437875      7.4823458912098593       1.531813262994024
   167   1      22.971660793919821      8.6638785537608705      28.698144412040026
   168   1      24.459690878072795      10.127202839614224      1.3274485322926697
   169   1      23.090804834071356      11.410952591215397       28.46832269011761
   170   1      24.458553483057255      12.524723221652948       1.648399469497019
   171   1      22.993059546135648      14.137807286073121      28.678304502696243
   172   1      24.497157872587898      15.548974856644238      1.5022193122345242
   173   1      23.122899416626904       16.84246108071418   0.0068708432250900765
   174   1      24.231678283424287      18.705143388115701      1.4378335472200894
   175   1      22.984905068474138      20.177621113333821     0.15441585057868687
   176   1      24.400497063718067      21.588353383787144      1.5472379518609283
   177   1      22.993577794324366      22.952204771430715     0.11731435762546882
   178   1      24.295947526838969      24.524089908197212      1.5322740963044694
   179   1      22.966100998848912      25.881198167788799    0.042718196892428735
   180   1        24.2901021926832      27.196310035564604      1.1475865458610992
   181   1      25.827454076104871      28.630888239027957    0.057288631191863587
   182   1      27.376177994740388      1.3038866744415829      1.6544619619585763
   183   1      26.020851837953554      2.5793938446591005     0.22160512109398944
   184   1      27.660992241376949      4.0975919538578491      1.5680298447300733
   185   1      25.761667089272965      5.6577468080296969     0.13265494313138795
   186   1       27.22977619174814      7.2437985381880008      1.2484412372803486
   187   1      25.873456698767296      8.7215568407906634       28.64430196256292
   188   1      27.414251194812952      9.9829853958148504      1.4698391526769572
   189   1      25.962330092434282      11.359791496908175      28.661382419496981
   190   1      27.631663695511204      12.799590352290622      1.3056955756597179
   191   1      25.740565445823002      14.163277902404957    0.099911271283281269
   192   1      27.331182026350476      15.702185155475833       1.367516202548233
   193   1      26.163798663072626      17.091089532169992      28.686635390222023
   194   1      27.636307254474964       18.62986011564178      1.5402192108906083
   195   1      25.851997773347176      20.115492130344727      0.3256889746749505
   196   1      27.282744265669599      21.628814219100448      1.5594556019144412
   197   1      25.711665929054284      22.854706291745625     0.11098106063893741
   198   1      27.109162985091164      24.241786735191159      1.4176038652346064
   199   1      25.986951660067756      25.885691963716337      28.686944346311336
   200   1      27.524824351083563      27.267241712757684      1.5795437218345687
   201   1     0.37559058188503436    0.018490835395243897      2.7813685506676742
   202   1      1.7211164289683447      1.4725710731082688      4.3262125790982084
   203   1     0.12441405085995734      2.8157979981826076      3.0511868794622461
   204   1      1.4511953258428325      4.0610801798437501      4.2769095646030699
   205   1  0.00093653122344274531      5.7977684429870946      2.8482762248575679
   206   1      1.5343536905996995      7.1601579642173805      4.2262006642831134
   207   1    0.030503880555330071      8.4011078948325988      2.6705537879729135
   208   1      1.4120811423408115      9.8982883707498885      4.2778489671567659
   209   1     0.32897049151079111      11.460967864353229      2.7626315569152542
   210   1      1.5280715587540497      12.980196280860754       4.502097654963257
   211   1     0.07497377150150536      14.399742648299698       2.730241679332448
   212   1      1.5001711626821379      15.532145503849584      4.2549145237821779
   213   1     0.13710476700948787      16.989592584592927      2.5869735677053658
   214   1      1.4659817036247342      18.572301858299355      4.3712595625788015
   215   1     0.11216382266377566      19.939928799941381      2.8340266438462542
   216   1      1.4495122928829236      21.644987634501291      4.2419208457503261
   217   1      28.675016421349728      23.030030672065109      2.7623074231793905
   218   1      1.5451221556784973      24.140181700008775       4.433262501891063
   219   1     0.16627549553151252      25.816251464560395      2.7437097647241222
   220   1      1.7143450889548271      27.316807256816073      4.4110672127880752
   221   1       3.022472470968891     0.14939640144480126      2.8713792369631346
   222   1      4.2983952705596149      1.6235483186056059      4.3203719751718426
   223   1      2.8609974054608411      2.7909427966239928      2.7646208706313704
   224   1      4.2985029596222351      4.3288687872634988      4.5195531036667429
   225   1      3.0001963581924072       5.704119019813831      3.1383510530797185
   226   1      4.4056523330758086      7.4473147528581745      4.3513222442219561
   227   1      2.7921537462534602      8.6408660120974723      2.7453134667993595
   228   1      4.2895808341077881       10.15708545292595         4.2787945587628
   229   1      2.9596482476176087      11.544260657170277      2.6964825670164041
   230   1      4.2797945696363451      12.728926746981365      4.4098833290964814
   231   1      2.9460859986000774      14.433077431031982      2.8786528009430348
   232   1      4.4060613752128583      15.703341441368311      4.2728817403345127
   233   1      2.8310150382524388      17.041591902050779      2.8800636566671818
   234   1       4.276251937160592      18.607698744029982       4.409135237975649
   235   1      2.8749957454757369      19.914057087523201      2.9254439742800211
   236   1      4.3187803054215159       21.35173863868399      4.2494949052886648
   237   1      2.8130834605336079      22.820987282188288      2.7961862235043786
   238   1       4.517422712886014      24.437001594435799      4.3187247737732068
   239   1      2.6978838496657458      25.731085552304968      2.7513257487536396
   240   1       4.406556423814628      27.257828487476274      4.2724898629292998
   241   1       5.597764364732063   0.0065644400351176791      2.6776854234769076
   242   1      6.9519854216917167      1.2453796836627129       4.058162117233425
   243   1       6.041028939276039      2.8381197335249224      2.6746861090207967
   244   1      7.0880275758479341      4.2916487070763099      4.2410924731212365
   245   1      5.7920694332354223      5.6597567130634756      2.9419786579722653
   246   1      7.1636852686733592      7.2369493627051673      4.2296078691622627
   247   1      5.5833413324196508      8.6838008551516115      2.7270947529143079
   248   1      7.2204513779341051      10.134041490547032      4.2503627622691615
   249   1      5.5671632201810128      11.478566102533316      2.4936288132110906
   250   1      7.3125000670133655      12.659376786086758      4.3716866704830366
   251   1      5.7509250378012879      14.289526837669719      2.9079715463224938
   252   1      7.0016223293628128      15.828121456381925      4.4143550605172317
   253   1      5.8311338072232743      17.201287735174017      2.9576148160109006
   254   1      7.2177859596720744      18.737851848891545      4.1467087279600623
   255   1      5.9366325116298695      20.150047202823014      2.8195240491265277
   256   1      7.2028168939003949      21.482820145841025      4.3106691004745628
   257   1      5.5771568463546517      22.784290981671294      2.9658046029520722
   258   1      7.1928563302730399      24.328701701337103      4.3497001038577059
   259   1      5.6625639096565905      25.966515492738811      2.9174424018016927
   260   1       7.160115244533201      27.287910750236385      4.2255037080112015
   261   1      8.4260166444813365     0.18643942131794816      2.8369216772243124
   262   1      9.9113658499475825      1.6414418686784411       4.259258493048625
   263   1      8.6186879884460446      2.8644989712811699      2.9424793953133079
   264   1      9.9007641823332282      4.2301255540590832       4.364600299036872
   265   1       8.535963842961241      5.7036924960606399      2.9181104848248496
   266   1      10.168042616466598      7.0860356465962502      4.4180143668681913
   267   1        8.55763447155873      8.4791788109915487       2.919001349620463
   268   1      9.9928642932094611       9.799631621783826      4.5159751344645729
   269   1      8.7138514152435587      11.260072557802449      2.7764205858379096
   270   1      9.9765246088610482      13.047502595896947      4.1740425479068612
   271   1      8.4369074058677196      14.468152931100979      3.1912294556413241
   272   1      9.9310842577836542      15.838075507622021      4.2093184456490871
   273   1      8.5483749792065939      17.243277339018881      2.8410592697956423
   274   1      10.000937225538475      18.604606390874288      3.9871583285389005
   275   1      8.7669775485441566      20.214945475499576      2.8474689750190905
   276   1      10.080550911853582      21.658105694838163      4.5593419539107991
   277   1      8.7515686400729003      22.793190744366591      2.8967099751049901
   278   1      9.8905302541000921      24.355645099634565      4.4868835653631693
   279   1      8.5408187248770666       25.76903733253635      3.0642274176511366
   280   1      9.9096891408170134      27.244411695039631      4.1982527629439472
   281   1      11.336971092896739     0.20237060846137647      2.7682184126350178
   282   1      12.632156550781255      1.6136413407603865      4.1967710491668093
   283   1      11.380804461408752      3.0340433539549054      2.8707494710528811
   284   1      12.810482021397878      4.4561106624407119      4.1699958231360066
   285   1      11.538331571338958      5.6635801313200878      2.7782383239001085
   286   1      13.054182820181923      7.1628016807712713      4.3097021073880457
   287   1      11.373673321643389      8.6029593377949531      2.8293882546388081
   288   1      12.870294763396698      10.081590766721989      4.5400895793323244
   289   1      11.398136439120496      11.270393759557976      2.9885271785175669
   290   1      12.891569574266814      12.853151557710188      4.2496405327332489
   291   1      11.509169384754998       14.51790345801226      2.5336152694009582
   292   1      13.140870534979006      15.731900865203427      4.2206372494221824
   293   1      11.632749150985406      17.129989628148934       2.718080383939002
   294   1      12.833047964695883      18.710668202123042      4.3797810115522795
   295   1      11.503037774474402      20.318628972676947      2.8279908009877315
   296   1      13.110791481034884      21.446284836512927      4.4339630261264569
   297   1      11.565572717949399      22.900651298318689      2.8018689521198779
   298   1      12.948451771496281      24.154449224480771       4.142621468365653
   299   1      11.337891254718423      25.722057808615265      2.9523536050973451
   300   1      12.984484372979683      27.414476048184063      4.1689249512892479
   301   1      14.350079476464815      0.1066407844354899      2.7353240289118053
   302   1      15.834635473285331      1.3505621735115811      4.3718251196069158
   303   1      14.458500509807799      2.6623588031891354      2.8395587458504563
   304   1      15.745579512913819      4.4091880601324673      4.4312206662980076
   305   1      14.252177116871726      5.6332422365002133      2.6985314863803991
   306   1      15.619026849700827      7.2731682563949205      4.3751671553452658
   307   1      14.298657631123897      8.6316993981625032      3.0702828522876646
   308   1      15.677233222076369      10.207582843191144      4.4210589062120489
   309   1       14.37196281343379       11.46484189435167      2.8490988937450186
   310   1      15.870267961170576      12.698559292162575      4.2937073275707069
   311   1      14.585039855173955      14.409079908972441      2.7985690532752647
   312   1      15.920258746719798      15.801890925522242      4.2745735153537829
   313   1      14.367932173126601      17.256503973981477      2.8463093053619231
   314   1      15.954930280527178      18.660213036968184      4.2104161715271147
   315   1      14.408986854630957      19.984031224358969      3.0092679664969113
   316   1      15.814196700147257        21.4641320324289      4.3117412179292751
   317   1      14.624946946151093      22.967627587319416      2.7978880379750537
   318   1      15.811969156358611      24.397599006205738      4.4135550793369402
   319   1      14.482808624044905      25.945085986612099      2.9142966568902677
   320   1       15.73186774381881      27.440800996894883      4.3925680355761187
   321   1      17.140136303970046     0.10171581560623519      2.8896545652966288
   322   1      18.717194577012659      1.6956230251068858      4.4521305106356532
   323   1      17.497942886990508      2.9643784458391989      2.9821032680374082
   324   1       19.02423684170207      4.2811945171527146      4.1523572552099113
   325   1      17.106909799326029      5.7261544413001886       2.835403736021942
   326   1      18.741601655888505      7.0199544348873086      4.2082952820588915
   327   1      17.125271291117759      8.4285283575675738      2.9190969219067973
   328   1      18.616811747489816      9.6473253691732186      4.1406084782352197
   329   1      17.174028337625238      11.209587254201031      2.7309075020620068
   330   1      18.702705851192853      12.662950227004737      4.1313355772583185
   331   1      17.593044670389904      14.372538306824767      2.8981642394430991
   332   1      18.844440485923045      15.903333176972371      4.0481177750091257
   333   1      17.287633676043136      17.475056597748846      2.5996426675671716
   334   1      18.652962146012822      18.611828722535275      4.1186247335248165
   335   1      16.936726685760839      20.136637145369225      2.7660842562785533
   336   1      18.796097068932852      21.672660360527232      4.1889573676793912
   337   1      17.414595077318655      22.961439577126821      3.0255437472254019
   338   1       18.62222941083445      24.630190894087921       4.468529353058905
   339   1      17.086097880907598      25.979866839426467      2.7429400862436646
   340   1      18.657766572035047      27.424750345095045      4.1974306303290705
   341   1      20.000407125130426    0.088253771689915245      2.8234089710610961
   342   1      21.552837881750911      1.4534465376342836      4.6072752981459653
   343   1      20.141524212660173      2.8974572335104494      2.6302038107318606
   344   1       21.48712226648971      4.1639940691315891      4.5128695153374982
   345   1      20.417003657942605      5.9414811860323669      3.0196710837020633
   346   1      21.537341195734317      7.1526125039494461      4.4158559302389522
   347   1      20.280977679860026      8.5070167300559838      2.8749116876146785
   348   1      21.354472315790595      9.7843718742816392      4.3230559877179315
   349   1      20.181577940909243      11.187690411231904      2.7413650920382571
   350   1      21.583177696611806      12.697929585168918      4.3425817147351626
   351   1      20.005264103243253      14.040610135911498      2.6989400687969787
   352   1      21.847926076425537      15.637719417546649      4.2067864217491531
   353   1      20.386365755713644      17.155610651958316      2.9038913106460345
   354   1      21.780595836440096      18.696164788766989      4.0682030520801007
   355   1      20.043743696137405      20.185271809202479      2.7820883146725461
   356   1      21.555319117877044      21.767164851879564      4.2869883822399268
   357   1      19.946385149578223      23.098167301903075       2.875783151513335
   358   1      21.663050571804401      24.545442711086348      4.4542499707930796
   359   1      20.093515985663736      25.912135215222204      3.0981775717938627