dump/Fe_1350_0/steps_51 (written by ASE) 

2000 	 atoms 
1  atom types
0.0      28.699999999999999  xlo xhi
0.0      28.699999999999999  ylo yhi
0.0      28.699999999999999  zlo zhi


Atoms 

     1   1     0.10478629376580281     0.20459077659118222      28.651107384205037
     2   1      1.6504391067311763       1.678539698208066      1.4280560692051159
     3   1    0.015578247849136594      3.2375661708669035      28.619611199143879
     4   1      1.5459511325771713      4.2408807764988596      1.2407764097835758
     5   1      28.608876070912743      5.6102698272577278      28.608825597727865
     6   1      1.6094455739858515      6.9251814898401243      1.3941164517826896
     7   1     0.19529478646046589      8.6639178499491045    0.083441428603862264
     8   1        1.50607066892784      10.101300659071599      1.5086977978010745
     9   1      28.579274303081561      11.545714862617851     0.26764448528991791
    10   1       1.490747816571538       13.11430861731824      1.6945233094321688
    11   1      28.600342349166269      14.423143950661531     0.10314165135818029
    12   1      1.2455555449878841      15.768097437727082      1.6481584220546204
    13   1      28.491933104168172      17.206841540005488      28.645781280383616
    14   1      1.4294968284794778      18.652250448156146      1.4018151021393244
    15   1    0.083244601465222209      19.975543624034621      28.522268302152998
    16   1      1.4030801880754442      21.344358264333152      1.3287958320234217
    17   1    0.063048443032042448       22.92025069144341      28.325927778993293
    18   1      1.4130193239893061      24.219684508224489       1.457642686177429
    19   1     0.07887153486990775      25.954182478424606      28.520128427608775
    20   1      1.3743704263455145      27.417974226944256      1.6306822062233328
    21   1      3.2050574140414807      28.584630400696074     0.23806663154936136
    22   1      4.3961980671207508       1.510263194604148      1.7697642628332584
    23   1      3.1052395219224169      2.8610376546773861     0.30506510455410274
    24   1      4.4601419813051608      4.3382172078439112      1.5074686146338421
    25   1      3.0889991934761603      5.6727890822994445    0.035846525790725621
    26   1      4.3850995368103689      7.2314598082261519      1.5753424038385342
    27   1      2.7724580342457115      8.7813299416795658    0.041336405196909634
    28   1      4.3329676271234261      9.8999491243860174      1.5307241734210828
    29   1      2.8551891768378934      11.496876257987646    0.013037506393550289
    30   1      4.2217712980387203      12.828852542379707      1.4378299022411727
    31   1      2.9593061161963643      14.341354920926966     0.21757241584101614
    32   1      4.2974299573613592       15.73821047137684      1.1196592626958357
    33   1      2.8531156256820531      17.049036955249459      28.581788703021903
    34   1      4.3040979144381133      18.600600192420849      1.2525135949619295
    35   1      2.7538358969070282      19.974486450968019      28.533490665296146
    36   1      4.3693435706586703      21.336404956619905      1.2778786343832835
    37   1      2.8484536405375489      22.830984565651455    0.060111741358821177
    38   1      4.3174264925954695      24.499622505920051      1.3816236263702879
    39   1      2.8800931362312494      25.838207754581902    0.070079630133432214
    40   1      4.3719098699933525      27.144233116718123       1.733050939099132
    41   1      5.6146921994062833    0.082278737011563449   0.0053482547111457267
    42   1       7.120954053300399       1.406363774026931      1.2124738955656409
    43   1      5.4258579252165324      2.8794718037868381      28.566459272002461
    44   1      7.1580629609683237       4.267736517573721      1.2876742858415475
    45   1      5.6022854098402535      5.6683179522541316      28.463327472606341
    46   1      7.2031585100224369      6.9089495516111059      1.4914476999351345
    47   1      5.5798927298564456      8.4013845445780237     0.20345409269255013
    48   1      7.0854979580207642      10.182436646946135       1.313611759587944
    49   1      5.7248376226504751      11.565126339706374      28.596672015384375
    50   1      6.9385008322093613      12.976412026475563      1.3169716104279596
    51   1      5.6012258112120881      14.346958213660502      28.566728490538029
    52   1      7.2321796840378099      15.930244141868789      1.1963147948301398
    53   1      5.9532855535556335      17.135548921448269      28.592525882627143
    54   1      7.1346912311248349       18.69672133184558      1.3856602501237261
    55   1      5.8937702701385701      20.001465022688173       28.46022310058159
    56   1      6.8016182897362318      21.558918697552613      1.3169914999538703
    57   1      5.6609783674545886       22.83594402392983    0.067663253618172672
    58   1      6.7996525291784469      24.557924314287725      1.5008930224141535
    59   1      5.5643332555274458      26.006042062652735      28.624881772452447
    60   1       7.084218055660803      27.140284957181901        1.64351095135745
    61   1      8.3212985926163281      28.549675411089837      28.673415047542253
    62   1      9.9884547648830928      1.2581953578372125      1.2515368357498009
    63   1      8.9461842190106058       2.713430081238267      28.404114222018425
    64   1      10.255663366579594      4.1568055071498993      1.1943810677080919
    65   1      8.6759535440345861       5.570384164754314      28.615284610829324
    66   1      9.9951615403092404      7.1259983072497972       1.162885763818313
    67   1       8.315670165187159       8.440428691890304     0.23419530845501407
    68   1      9.8136980165771863      10.178797827264681      1.2804650225756167
    69   1      8.5211368018792921      11.714339524086608    0.039501597383343821
    70   1      9.9170691826481505      13.180641157907473      1.3424989542091907
    71   1      8.5480792745952634       14.54931714692807     0.15392705902626169
    72   1      10.202801682964838      15.671129935929521      1.6229574856379716
    73   1      8.8703565302152541      17.290353114011957     0.13078415623501774
    74   1      10.216263915915464      18.857390313027604      1.3033268583772728
    75   1      8.6732910108457659      20.194729271499757    0.058169384392044887
    76   1      10.374590245022274      21.615571544834786      1.3477237199406871
    77   1      8.3767560039884987       23.15210190208094     0.33336584789700535
    78   1      10.033321931942332      24.485264381729976      1.7666054931505988
    79   1      8.5622142253546656       26.02666497373194      28.595402536051992
    80   1      10.002893840688033      27.455565417865643      1.4348831295292719
    81   1      11.685324714812978      28.581547227509958      28.521411363801732
    82   1      12.997536885333869      1.2411891382817757      1.2767524253616098
    83   1      11.390997678907054      2.5785021054689552      28.573955053650483
    84   1      12.895478133833906      4.3064012239376481      1.2852498952035945
    85   1      11.609810923681788      5.8100527867467626    0.027508003135847042
    86   1      13.188064597800619      7.0847847015220013        1.32495575429125
    87   1      11.392641996364667      8.8087953005184811      28.618281749782529
    88   1      12.857532375729408      10.066125235260243      1.2907827098125149
    89   1      11.368281169682803      11.607828487014606       28.55524367770035
    90   1      12.905426179388437      12.922924465253699       1.364819914437829
    91   1      11.613248505988951      14.262222410995417      28.586535970141632
    92   1      12.890757792280995      15.658458202276755      1.4602170332744104
    93   1       11.46186833581759      17.360295939968292   0.0078450776600561788
    94   1      12.993125783147599      18.689913718303309      1.5085930542161232
    95   1      11.433014285348833      20.075765053499037      28.550699907752549
    96   1      12.968322446221357      21.536242867515032      1.2835801531984186
    97   1      11.468316199124457       23.19104407079038      28.623161725130828
    98   1      12.918421423263476      24.453517954438812      1.3598138981029144
    99   1      11.323176972564399      26.051021591797127    0.029206872539987123
   100   1      12.930122737795323      27.263798839222925      1.4922156092535377
   101   1      14.301281456742336    0.082440830411055002      28.454817437191512
   102   1      15.695581135593384      1.2925772980391341      1.4074203632948517
   103   1      14.340558867053469      2.8492517730508329      28.477425682758881
   104   1      15.607444744193819      4.4728138524071932      1.3477176335951397
   105   1      14.304449654095842      5.7523092883423104      28.457083245768988
   106   1      15.752644122433392      7.3441674229015508      1.3229121299331608
   107   1      14.449152988585684      8.8298126221361084      28.542001253064303
   108   1      16.015163769153634      10.126141746513635      1.4177219434502928
   109   1      14.259021347477761      11.415670137761811      28.620106112720698
   110   1      15.649133030698572      12.925387876209117      1.5909444204885177
   111   1        14.4327904824057      14.306868874647918      28.598026499188183
   112   1      15.791725798370651      15.653947231528784      1.5458434259965312
   113   1      14.247476342038372      17.267881700815618    0.019105579265726653
   114   1      15.778419160994213      18.748504932002401      1.6660574588301067
   115   1      14.445544805530064      20.191828377295217    0.098495798092505985
   116   1      15.782083464926139      21.731774129438147      1.7247014950905972
   117   1      14.529388646725906      23.119565728963348       28.59476565835304
   118   1      15.889274993352709      24.436664707329424      1.6290409603282119
   119   1      14.486881747626002      25.761349785614602      28.675147346102278
   120   1      15.771562286002093      27.262299611097127      1.4124059646051017
   121   1      17.261124514088756    0.083114151337646866      28.604906384693781
   122   1      18.466532778985524      1.6651879245422714      1.4777204131367614
   123   1      17.073833206502538      2.9555799660238207      28.685371553037559
   124   1      18.458128861922017      4.4393216369351425      1.5077431413032387
   125   1      17.245958766415995      5.7597867059988124      28.611777885900853
   126   1      18.526579488855045      7.1215271561234443      1.6745660725723848
   127   1       17.53720574936807       8.699472278819993    0.031495722593422239
   128   1      18.670419941249314      10.096421132616136      1.3834619221986608
   129   1      17.430260893475477      11.508573043752433      28.594037552179067
   130   1      18.569166326339378       12.95583365879032      1.5374590683341114
   131   1      17.105872980719802      14.504134414140861    0.064083585988441924
   132   1      18.749964693533091       15.76164363268901      1.4397956674778367
   133   1      17.092820777347402      17.343889682712835     0.29729367559772224
   134   1      18.772469881544357      18.618536994933134      1.2992801293451968
   135   1      17.280645338322728      20.449137078264542    0.018290915772945476
   136   1      18.680994511638712      21.606380163391325      1.4431232694679816
   137   1      17.152581332445909      23.151650477184191      28.580290005984015
   138   1      18.504561388434933       24.54981625124951      1.5462454708826276
   139   1       17.08488386639133      25.796798494644275      28.487534154409317
   140   1      18.303685309718269      27.217767203333864      1.3075205328930326
   141   1      20.206385849061533    0.089010203306020122    0.053796392368303671
   142   1      21.756496778658811      1.3608819444945757      1.6113707773861379
   143   1      20.060156424978626      2.8015565559660423     0.10311054317115803
   144   1      21.458746906598396      4.2313651539273343      1.6149242225769511
   145   1      20.191237817663158      5.9332188292004986     0.11547930180880719
   146   1      21.538889011457666       7.280752974500027      1.3897820398055825
   147   1      20.204820612694213      8.6560555624455873     0.03715105965543429
   148   1      21.466771564357561      10.419892509513383      1.2459171042601616
   149   1      19.958107676595411      11.578607523181413      28.644015773977735
   150   1      21.412155544897658      12.965723240880292      1.2063371117666968
   151   1      19.979604963554888        14.3497173000675      28.672779114394814
   152   1      21.556051495398513      15.821185337005556      1.3131077384286871
   153   1      20.160219508076707      17.222269409928341      28.561555105327287
   154   1      21.709315321686208       18.64944969299394      1.2802626939962003
   155   1      20.195303318065157      20.118854623742909      28.537853056446174
   156   1      21.412149958610716      21.801474332741382      1.4512736876983687
   157   1      20.032470777126456      23.327794639024166      28.680125063844741
   158   1      21.536206928577869      24.763609475014015      1.6415388015183094
   159   1      20.065975689391852      25.972701283654619     0.19548577321739913
   160   1      21.567391568805125      27.382572595175894      1.5133863958974423
   161   1      23.027993675300927       28.47239046813225      28.623706162231443
   162   1      24.384435801673735      1.1740581829264329      1.6906543883190452
   163   1      23.101029634489368      3.0727084848954993     0.18834430204420863
   164   1      24.529604356706823      4.4438626389659062       1.657503855576089
   165   1      22.971642808835391      5.6389906094133568     0.25156609237521915
   166   1      24.331809306358505      7.2239117964455319      1.2811924941717621
   167   1       22.90396257023372      8.6750779929415138     0.19144996826669283
   168   1       24.44230129698358      9.8789226065908089      1.3360067881179121
   169   1      23.089225620328648      11.517432345239728    0.067716539730576952
   170   1      24.209828592731789       13.03940319769711      1.5136338317859106
   171   1      22.992498521665986      14.384462804360362      28.358566167949476
   172   1      24.219541124792094      15.838332380865353      1.3378428734529837
   173   1      22.847351688505203      17.155698913995383      28.270036943899331
   174   1      24.354682378433935      18.643617629233905      1.6170424425883998
   175   1      22.803982306482126      20.515730358911362      28.505958181523127
   176   1      24.173857598416237       21.65636205299392      1.4155752277921116
   177   1      23.126571683246585      23.200700600929995    0.080812665071482562
   178   1      24.440190394729118      24.448726359298465      1.4731181097843902
   179   1      23.108524943117686      26.034180741752653      0.3721224295786657
   180   1      24.513340822167567      27.533549972340751      1.5585907630679225
   181   1      25.793073911199109     0.22783262926998493      28.631931482065841
   182   1      27.232328217134143      1.5956092807057085      1.3305934099290089
   183   1      25.714930190357482      3.0199417657965308     0.14179526905468257
   184   1      26.986265783164779      4.3648567548882076      1.5650516234447873
   185   1      25.947889661126659      5.8207042133539417    0.066779303393832395
   186   1      27.238995792977367        7.30293203357229      1.2094835816097307
   187   1      26.036505436591529      8.6613811839156973      28.458913854925612
   188   1      27.368665613972315      10.096956835316826      1.3601128400015234
   189   1      25.842891632605991      11.449011024573023    0.041455541252219029
   190   1      27.180599570752221       12.92107117696947      1.5004640233088711
   191   1      25.835519357716681      14.496225717929509       28.50765698512939
   192   1      27.271709256587318      15.797724745299387       1.461317241154144
   193   1      25.696462616999398      17.229843838549485      28.673348053192427
   194   1      27.176462593067658       18.64067873745995      1.3398024598303195
   195   1      25.769772343320238      20.194704404485265      28.494985334298192
   196   1      27.403777416243653       21.40507203325096       1.531988956917347
   197   1      26.035373255797968      23.251491962228748       0.155043934868138
   198   1      27.734306777924829      24.342165272128824      1.2722610178909584
   199   1       26.07430276959554      26.084185288157055      28.602240133757167
   200   1      27.452567620923929      27.539956861055735      1.4244808194884169
   201   1      28.647414890586791     0.17714364255873541      2.7551829213869388
   202   1      1.3065221574421231      1.6730357993557956      4.3040180496822993
   203   1     0.14438781519824065      2.9341155426410732      2.7576371150968049
   204   1      1.3672925799882152      4.3450737409748639      4.2538590374622709
   205   1      28.666031531865087      6.0348854729276358      2.8510512502296352
   206   1       1.522127428800276      7.1560244869952472      4.1630229066245601
   207   1     0.12333404151403395      8.7355819242144435      3.0780833107129562
   208   1      1.5291851063545101      10.138987023168895      4.6000595039991703
   209   1      28.489665095817358      11.525054719271703      3.0170159919503838
   210   1      1.4311592808172124      13.023416021769068      4.3267148022097244
   211   1      28.600751771980516      14.322883328965336       2.898268307792299
   212   1      1.4245883979808374      15.887274718864896      4.3311186776779875
   213   1     0.13943310236376316      17.285683879009593      2.8961253407268988
   214   1      1.2753489558743603       18.86770155817451       4.252377963627028
   215   1      28.596036358662392      19.842491843423058      2.8421359940802047
   216   1      1.3902759694846407      21.400808815190942      4.2282100895464536
   217   1      28.584115489367477      22.816261937282462      2.8688218227164382
   218   1      1.4013899413052189      23.973307305707255      4.3171215148009239
   219   1     0.28745499847199407       25.83596799039984       3.147450769066277
   220   1       1.448451683357215      27.252732185984527       4.332008423015778
   221   1      2.9074754968073933    0.096381700340884946      2.9821478525786809
   222   1      4.3960664730381636      1.4976128728238909      4.4616797738911727
   223   1      2.8990983201542453      2.9457326509517801      3.0591173903435687
   224   1      4.5450613847480605      4.3949911417753871      4.3202017411797895
   225   1      3.0881054383444173      5.5198793688058307      2.8795973079674324
   226   1       4.403366907676622      7.2034275075530685      4.2260332890170407
   227   1      2.8092768752134605       8.623671957221239        3.05797256035454
   228   1      4.2128132354077747      10.006915761074048      4.4345592071109037
   229   1      2.9578270388335142      11.534978598846491      2.9786304310569869
   230   1      4.4051811783580348      12.917487369884917      4.0007753059721605
   231   1      2.8663651090355304      14.428727752513021      2.8900903779826153
   232   1      4.4522194959239734      16.100288022037716      4.6501224312831058
   233   1      2.9451548533497567      17.129143982593135      2.6818370858362526
   234   1      4.3507724558563954      18.584558678404047       4.217693388075225
   235   1      3.0719813629194941      20.061888099078821      2.8693824015316292
   236   1      4.4817014603796945      21.621365045387567      4.3332087210380736
   237   1      2.9014618379789758       22.87476737378806      2.9155019925119481
   238   1      4.3152974448110886      24.469828305374264      4.2785548204846453
   239   1      2.9516015866175134      25.719865845206783      3.0393447425152047
   240   1      4.3694192437709338      27.308750836519419      4.5005831940069134
   241   1      5.8210410885379922      28.653974904881398      2.8232803564252884
   242   1      7.1826676844771526      1.7792780881009884      4.3007335800079174
   243   1      5.9797436301905718      2.7430979451066944      2.7445914959783742
   244   1      7.3792727971130345      4.3640274264247889      4.0532592821804414
   245   1      5.6390547194322602      5.8229432845048787       2.915641330083274
   246   1      7.3333085661938213      7.3662143559744973      4.1661882766501144
   247   1      5.9312712162706269      8.6258834052504181      2.7410477066529655
   248   1      7.2636080851828373      10.003958718996691      4.3685137302860957
   249   1      5.8985672579701456      11.410620122185179      2.8348235339002135
   250   1      7.1882628653015148      12.817452601693336      4.2090060146647303
   251   1      5.8269251823615136      14.517047700205193      2.8535023239013975
   252   1      6.9934862766062862      15.918500190877275      4.0909807444730015
   253   1      5.5934069120147614      17.300380554105342      2.6252776181750828
   254   1      7.2099370693539031      18.613041148567699      4.1163729069804047
   255   1      5.6085953512676339      19.967559411857824       2.892319100984265
   256   1      7.1433554474138878      21.540964990919097      4.2838575461258523
   257   1       5.641126683761799      22.947328512639292      2.7564153054121343
   258   1      7.3107875837600771      24.147268261226632       4.221164332686536
   259   1      5.8713692363667525      25.853823977584938      3.1381895267667943
   260   1       7.213272851054473      27.290242169303877      4.4053767289572852
   261   1      8.5461628453375535     0.17232887746105249      2.7959161411800539
   262   1      9.7548921200255716      1.5625003576773779      4.1631817518618384
   263   1      8.6825906110106601      2.8578432979616526      2.7052452792999584
   264   1      10.076522881447042      4.1294704029014593      4.0381622151914689
   265   1       8.725617088247688      5.7808360069351483      2.6937142884874894
   266   1      10.070102641186914      7.3655395940529953       4.005549269292767
   267   1      8.7493963946610585      8.6036611059481523      2.6659490571469622
   268   1      10.243266854819923      10.007545478120427      4.2664800664418081
   269   1      8.6870290289781309      11.477419417371268      2.9790184826614783
   270   1      10.105132189651757      13.029883240042301      4.2183552523870915
   271   1      8.5414079430136596      14.219211832744223      2.8391185174277216
   272   1      9.7783641247977489      15.812911034874508       4.143826134285348
   273   1      8.4208725887567422      17.315738509179177      2.6583958021804381
   274   1      10.283338322460358      18.815446826818313      4.2469464055409869
   275   1      8.6832807565046046      20.076495929255696      2.7451667280963981
   276   1      10.031384041478418      21.267423568417428      4.1119409324145462
   277   1      8.8106422507638182      22.694003925635151       2.757942039355135
   278   1      10.095172470055212      24.339388177477954      4.2486417737485711
   279   1      8.5951153151521922      25.857582247315154      3.0136623750753313
   280   1      9.9404147960615123      27.242905089767103      4.0680210806397739
   281   1      11.457503894753549       28.64276137552179      2.6997691857486061
   282   1      13.062990196110361      1.2540392912001277      4.1299259080101658
   283   1      11.606778392110183      2.5516050171759614       2.617464706757016
   284   1      12.817112466392102      4.2597844877278632      3.9444049359746818
   285   1      11.476275283046418      5.6534678011853519      2.5286898436278986
   286   1      13.021935728835718      7.1423539317313258      4.0563086716000969
   287   1      11.458580636415856      8.4633321989954471      2.5686679031433877
   288   1      12.844097265972515      10.214274459369738      4.1854783220730276
   289   1      11.127649362990917      11.474354211798822      2.5819251773061631
   290   1      12.872906865936296      12.986836592374068      4.1753197942659046
   291   1      11.484893114165613      14.453005409614892      3.0468881296477379
   292   1      13.117152472592259      15.783250059755465      4.2325575460870217
   293   1      11.509958254114956      17.143386501048308      2.7729673734659048
   294   1       12.93861765237569        18.6903801074554      4.3703685600370212
   295   1      11.657455877600766      20.049964074174607      2.8375077666567781
   296   1      12.622336854886306      21.691229539362702      4.5548937001403544
   297   1      11.497682797887132      23.123950807830344      2.7761359026245707
   298   1      12.804332029617523      24.445498697485476      4.2436964374925372
   299   1      11.372191148096846      25.895127721362403      2.8331525596874694
   300   1      12.794337981483942      27.330202045851902      4.1681300891090025
   301   1      14.354016769886805      28.528166220634322      2.8814313521328465
   302   1      15.628445706491755      1.3088510461432514      4.2503706663535139
   303   1      14.396828153669183      2.8976962828066486      2.5307610513275787
   304   1      15.724692799882256      4.3583274049696445      4.3019487610676501
   305   1      14.365241416592287       5.804523866114998      2.9366787722534848
   306   1      15.868281772262774      7.3760712058061406       4.026386485642079
   307   1      14.374881308722387      8.5477677282147582      2.7229133917984205
   308   1      15.832187615689293      10.026578999016317      4.1962799350271736
   309   1      14.455706002213178      11.268207101159218      2.9019079900242724
   310   1      15.890538075615396      13.161591695227441      4.2511823635779882
   311   1      14.310073793850366      14.542117484092355      2.8524761755688712
   312   1      15.862950034902376       15.81763120390951      4.4069711766529069
   313   1       14.21564639395155      17.276675399792111      2.7221163903781527
   314   1      15.775311389112575      18.806595766695526      4.3910622500264163
   315   1      14.130134578822801      20.361018074192405      3.0318044363649244
   316   1      15.775222534313887      21.551688977615466      4.1601437948827504
   317   1      14.242444498035441      22.867043989624509      3.1415931173766185
   318   1      15.760246700396165      24.490423798011136      4.4607213877575198
   319   1       14.35707518795491      25.823852273968004      2.7375400743935061
   320   1      15.465767162887577      27.207839769975749      4.4652191897136859
   321   1      17.087219579003257      28.644951707865093      2.9072428670616723
   322   1      18.339609480629097      1.6236084779135691      4.0757890502777885
   323   1       16.99107161435461      3.1718743346322054      2.9718500971406918
   324   1      18.587501436959627      4.0968094957934094       4.336046049529318
   325   1      17.219795415499789      5.6820806993057476      2.9940047295606154
   326   1      18.763974343179537      7.1594174621987996      4.3503899285682452
   327   1      17.327800819218314       8.714899939495421      2.9132573320591999
   328   1      18.840471812564225      10.157316856425249      4.2203173035449844
   329   1      17.466870977017606       11.54505242739218      2.9930715038204894
   330   1      18.828621989544146      13.013606773229229      4.2810099419393008
   331   1      17.337808687100836      14.565834400060641       2.861351817183992
   332   1      18.762857854861885      15.818258213891928      4.2145870520822228
   333   1      17.439402733252308      17.175930133205892      3.0502933568874333
   334   1      18.801017073158366      18.817542951708027      4.3892127694212375
   335   1      17.208688674191883       20.16654505471282       2.815450444688496
   336   1      18.603375902683332      21.538218775797379      4.2965351512419003
   337   1      17.224178932305207      23.186536171937728      2.9590739571178437
   338   1      18.728105668936411      24.429872066316992      4.3676542153213891
   339   1      17.151651273389017       25.88066952689379      3.0630235514076061
   340   1      18.523425248014529      27.356180758004921      4.3911012893269232
   341   1      19.856663551749417      28.674440973274319      2.9364152861184838
   342   1      21.389173346357072      1.3728988762154579      4.3780216298724213
   343   1       20.12260673400796      3.0073134775556873      2.8230885473678859
   344   1      21.434920564022104      4.1113052843325004       4.410767224978672
   345   1      20.135988531563019      5.8504968296934186      2.8184746208668341
   346   1      21.518153172939343      7.0968976158767827      4.1073904920859681
   347   1      19.952782381272758      8.8116683188540268      2.7851635052628909
   348   1      21.473707291158856      9.9732834307667915       4.273233798277964
   349   1      19.986602567831731      11.734380072889435      2.6731733820175223
   350   1      21.670933489384574      12.814413816606001      4.3326186694389239
   351   1      20.140234787851149       14.37884897922976      2.9857847075903567
   352   1      21.521002435375159      15.812323801571839      4.4660010034151112
   353   1      20.117770793513309      17.289743739712414      2.7320427603727127
   354   1      21.485060452305746       18.45736591713883      4.3661874300489734
   355   1      20.341610843229859      20.170758382259343      2.8324483658650377
   356   1      21.410636963756659       21.49655599403685      4.5529704492558452
   357   1      19.939150156659167      23.212303289326851      2.9526808994607032
   358   1      21.519254977414246      24.516008741384965      4.3052905384532503
   359   1      19.967110022724288      25.947238876754174      2.9951027859745905