dump/Fe_1350_0/steps_21 (written by ASE) 

2000 	 atoms 
1  atom types
0.0      28.699999999999999  xlo xhi
0.0      28.699999999999999  ylo yhi
0.0      28.699999999999999  zlo zhi


Atoms 

     1   1      28.463600383859021       28.57265441585767      28.473148200815945
     2   1      1.3843961874283657       1.273931123588762      1.2476041812670233
     3   1      28.491202452832624      2.7560716187192296      28.457592795672234
     4   1      1.0297734046241551       4.196959169425746      1.2808158706030328
     5   1      28.527559035081456      5.6933483164164622      28.561029275827909
     6   1      1.1378838847018402      7.1643336706741003      1.5310043852047437
     7   1     0.10315234261831902      8.7115308884515237   0.0023382109766089325
     8   1      1.4598552124616275        9.80841065534592      1.5167457930662518
     9   1     0.23288285703380404      11.279687497950182     0.18783759877497902
    10   1      1.7207285044014382      12.834445851403697      1.4754219003268652
    11   1     0.23856298711300591      14.186226032454639     0.11563865268735746
    12   1      1.3802412889302664      15.906727885773313      1.4257065780013922
    13   1      28.515554724931434      17.049441119319027    0.014835600825153967
    14   1      1.6027707444835759      18.335433729318495      1.6133678015876394
    15   1      28.517695024992054      19.855756357782518    0.045713578736410854
    16   1      1.2058749945951059       21.22283556088162      1.1068412354137773
    17   1      28.654813754062918       23.05870238283627      28.627493303407707
    18   1      1.3698673266687598      24.635980556287954      1.3501458525265897
    19   1      28.649282616397556      25.831172988691012      28.448319855833589
    20   1      1.4039962253109044      27.304104411507904      1.2604498680773428
    21   1      2.8754390733776081      28.654322646161773    0.038079380589385869
    22   1      4.4355648270947698      1.3696491976665579      1.2585121491198594
    23   1      2.7322059905784064      2.8895236209737218      28.577545019245861
    24   1      4.1722717495425323      4.2210621665111727      1.5001400768225377
    25   1      2.6715562423861341      5.6003667606467014     0.05484085698025179
    26   1      4.1786159401227234       7.072422863358061      1.2004300913329198
    27   1      2.9557268044546294      8.5546767613976975   0.0028377141752230269
    28   1      4.4944526863023713      9.6838446811547847      1.3797031543250906
    29   1      3.0456953737953918       11.17646475440865    0.018706455549329353
    30   1      4.3218728635633701      12.605684524876814       1.479290152514535
    31   1      3.0087911953372877      14.597178734427347    0.078371404144399984
    32   1      4.2159650257327472      16.173764896819989      1.3665278858613059
    33   1      2.7077899365935534      17.307682822294218    0.025104445139686508
    34   1      4.4255139304679636      18.669996635705704      1.3902143374476388
    35   1      2.8046058648986341      19.997661775045497      28.658199884215922
    36   1      4.5369109026807495       21.64323240752341      1.5569060573751128
    37   1      2.8649831821910663        23.0691281060347     0.29964048558222239
    38   1      4.1698975371491862      24.620578205883305      1.6194897157919275
    39   1      2.7994344776203928      25.745093718092935      28.656675200253808
    40   1      4.2913859795875817       27.10572180792186      1.1754256110340064
    41   1      5.5705567944988719    0.012717306849016872      28.444651030521584
    42   1      7.1381820309372532      1.2220819236031946      1.3652363493602246
    43   1      5.6494223737282283       2.937855179566466      28.659984713048104
    44   1      6.9176217594996805      4.1786474324667235      1.4718924935659166
    45   1      6.0478029561659739      5.7027280110815912   0.0025626984885775525
    46   1       7.258253009663858      7.2546994586861242       1.292854936083871
    47   1      5.9529765120393803      8.4354970787876731      28.476293895984146
    48   1      7.2695913385622033      9.8200247831200684      1.2272915909907953
    49   1      5.7311125689515494      11.340777828772831   0.0053893405747430703
    50   1      7.2171994604336493      12.765004515907458      1.5301915244777209
    51   1      5.6769656361965932      14.466272710389909     0.12024094665914629
    52   1      7.2106367152206587      16.015449759912883       1.670580877614634
    53   1      5.7864916080434998      17.319226647326424     0.08951151766560779
    54   1      7.3570465660698288      18.586301882480047      1.5997982268518511
    55   1      5.8629142718356988      20.030217197198905    0.035490279730845377
    56   1      7.1309154413392433      21.518667214247181      1.6115928259002779
    57   1       5.656297064229852      23.129358481974155     0.10089297857301746
    58   1      7.1682264182811313      24.232619694976311      1.4167481022266188
    59   1      5.7999882220134751      25.555853339050845     0.11366053525272264
    60   1      7.1847721173319155      27.276911087372042      1.4625742359717255
    61   1      8.7601415058610357      28.695428401629361      28.542395811414654
    62   1      10.000344693043706      1.5423781193453334       1.551236937460055
    63   1      8.5518247510018277      2.9206038079638836     0.26671668565874135
    64   1        9.91584571696227      4.3819628385124743      1.4566678685376115
    65   1      8.8655784526450017      5.8474276643296292      28.638022960822784
    66   1      10.230315564768244      6.7888199230317898      1.4332670852794187
    67   1      8.7407333893418979       8.448559092454369      28.453477303348524
    68   1      10.069691362480192      9.8101689093848421       1.301384331251576
    69   1      8.3193584931534463      11.297909085097061      28.585561639791411
    70   1      9.8172691229628395       12.82284667122175      1.6156853697985516
    71   1      8.6458414546320039      14.333194960354206     0.30351743538322928
    72   1      10.208328607404807      15.815477063757948      1.5984235382104885
    73   1      8.6205174149099228       17.33537814469468     0.13310227342061579
    74   1      10.090693539487233      18.571288539843785      1.6151364984202685
    75   1      8.6173611328572974       20.09630940842548     0.35639837361651372
    76   1      10.473077648505775      21.444969212339608      1.5259634764372769
    77   1      8.7668343824901029      22.696299895634318      28.676101781613099
    78   1      9.9200592048466554      24.493141011100914      1.4125976394826134
    79   1      8.5073864320220789      25.711905965338108      28.433667846337134
    80   1      9.9188747026563746      27.488045840109802      1.4541034338772765
    81   1      11.152843117510798     0.11523348435678304      28.548640544930848
    82   1      12.843410646315908      1.3630951945651524      1.1898711249450111
    83   1      11.492655092259065      2.9824948711934582      28.447555469226746
    84   1          12.81490111381      4.3486856982983184       1.163833681388575
    85   1      11.365907551897799      5.6355387563909281      28.529626954006691
    86   1      12.856149713593874      7.0326523275107862      1.4049444126635322
    87   1      11.506558202853734      8.5418793478977761      28.619160872999178
    88   1       12.73585393403725      9.7973923362171416      1.5116835488086857
    89   1      11.401012725929224      11.440145285997655    0.080232273292267481
    90   1      12.803586258685741      13.111717365842249      1.6419709783971597
    91   1      11.668206419627749      14.298753618482374    0.024967124681302254
    92   1      12.800262107302247      15.780263829244976      1.4605055192040584
    93   1      11.711380522318521      17.155060619952049      28.532903905559696
    94   1      12.888707845966431      18.709888293156784      1.5215038983950293
    95   1      11.346726923265109      20.041647528889843    0.063770773473663805
    96   1      13.131643309908373      21.252251310259659      1.5961835442546541
    97   1      11.501219092575232      22.988010458006865    0.062219907197061337
    98   1       12.80050837632097      24.565839991279329      1.3298493913101204
    99   1      11.415541037981702      25.951506592075557     0.22416841569510082
   100   1      12.914873209466776      27.613243166848299      1.2155124318537665
   101   1      14.523638765101456    0.046805248084480763      28.642145229319073
   102   1      15.760831557161019      1.4645587377151841      1.6008428543368614
   103   1      14.381560565482378      2.6107712522153981      28.495660640619935
   104   1      15.921666126928962      4.1995097685549219      1.1956256338930644
   105   1      14.334770777542003      5.7041017502086957    0.080886329655265821
   106   1      15.808533878530033      7.1295301811796907        1.30866291714326
   107   1      14.302502306850243      8.5933649500353582      28.446856051624696
   108   1      15.807440145254199      10.201892204722657      1.1987337396256406
   109   1      14.130289661433936       11.33687021100017    0.053365189327973815
   110   1      15.682625412906864      12.893808916273604      1.6237230717329119
   111   1      14.563676329985537      14.328077155314665     0.27832287178378001
   112   1      15.827437275752512      15.946531350721134      1.5365530355400787
   113   1      14.355706536798504      17.149953613907464     0.19260046932683964
   114   1      15.525261338578414      18.787891237340883      1.5369927634180509
   115   1      14.333937228953957      20.197221275379398     0.11954881797246329
   116   1      15.585511592871907      21.373360517078442       1.466353646072627
   117   1      14.399321959260702      23.073262540836758  3.8551408931652982e-05
   118   1       15.63911921147592      24.422171596860952       1.227163259537724
   119   1      14.483739598007402      26.102468700029544      28.617199217251695
   120   1      15.696048983806575      27.284533441918501      1.3181704318710896
   121   1      17.297743215899153    0.017298652505792236    0.029996057622713516
   122   1      18.746745861203269      1.4169508615364053      1.5658712465622673
   123   1      17.155544723221755      2.7582028359540027      28.555414619474679
   124   1      18.392352307090452      4.3042162082245472      1.3441396145730768
   125   1      17.477626072648203      5.8603288295554723    0.063398684290575713
   126   1      18.808117645668553      7.5204462732883064      1.4251270511937029
   127   1      17.318733083392328      8.4314041503082429    0.067379421401733308
   128   1       18.52636752606227      9.9382757784312865      1.4299975950455168
   129   1       17.29832281472035      11.511480461157186   0.0078763142485286097
   130   1      18.878473764902857      12.723768211176628      1.6296915285719931
   131   1       17.10797570667345      14.453567109372482      0.1173422673690083
   132   1      18.513451710659364      15.899250364868383      1.3746789125768155
   133   1      17.098952080701764      17.147393052877383      28.594326752282846
   134   1      18.473892972960115      18.685389232977244      1.3842430209200314
   135   1       16.98619138356889      19.998680359330912      28.672443759503423
   136   1       18.21200375225947       21.43019141092493      1.4100592590469088
   137   1      16.974267786311724      22.900880235092771    0.031660792464015361
   138   1      18.757949329392577      24.240485812515672      1.3897704000916069
   139   1      17.310101856653922      25.821107276168927       28.48555830576791
   140   1      18.812984111641306      27.014220512630228      1.3525911634128434
   141   1      20.048204924627527     0.20631748798330307      28.666653177030469
   142   1      21.718709194790975      1.6936563341614477      1.5430293687794798
   143   1      20.159184675084209      2.9061570976579469      28.595715171425439
   144   1      21.542655934361729       4.481608279503094      1.2672012720731332
   145   1      19.949755712527743      6.0377090915679883      28.612641876231837
   146   1       21.40534007333866      7.2732910637796424      1.4152761518408621
   147   1       20.12450436827946      8.6438580845036093      28.431540157525468
   148   1      21.506872478176977      9.9736848633013491      1.4729680366537201
   149   1      20.047351559685403      11.647471045792622      28.617517296906328
   150   1      21.450204424176583      12.845431416905988      1.4256877558164103
   151   1      20.089168681307246      14.437713310219976     0.14869874975015587
   152   1      21.444614242946379      15.887343600231189      1.5121077437035415
   153   1      19.981423099817224      17.383941857109576    0.031349408770609079
   154   1      21.645063580152989      18.488135300521193      1.6696564641071641
   155   1      20.253542886302252       19.85673776895246      28.654729469012224
   156   1      21.587615878899779      21.246026803087844      1.6133236503543582
   157   1      20.189741750063671      23.086512029570599     0.11263621045048929
   158   1      21.382342815314278      24.289805290857931      1.7619915564858839
   159   1       20.25723408139627      25.768961673643414     0.16401061778705059
   160   1      21.395863336483799      27.230172449635411       1.544745650040853
   161   1      22.845334954545699    0.021523164398424263      28.580048564442848
   162   1       24.30565118476127      1.5209676618232042      1.7337947579425528
   163   1      22.871524541598092      2.9623773032736813    0.086988812370486876
   164   1      24.563341338600779      4.3056378558665678      1.3286371312961014
   165   1      23.319527009859687      5.7360887250990151    0.061545833634306796
   166   1      24.580651941959079      7.3164119812278274      1.2406226339352666
   167   1      23.085383472205077      8.6784087211984637    0.026321564221791483
   168   1      24.389457898374186      10.098109774983252      1.3604523766713332
   169   1      22.823643334097504      11.239991080782072      28.656905078197518
   170   1      24.054431226843985      12.738318991329418      1.2300401485572021
   171   1      22.744126301478875      14.501108089270147      28.633069264282533
   172   1      24.176098443581033      15.973552740727657      1.1522281176939144
   173   1      22.881599927656996       17.25219520254031      28.609565211848775
   174   1      24.428433444158522      18.249319800205399      1.2826636196859573
   175   1       22.75594049528749      19.871371672056412   0.0065333005609886719
   176   1      24.476903063450408      21.663234821503355      1.4011130981011191
   177   1      22.745125613373226      22.977842754189627     0.36359765643574171
   178   1      24.347029911507526      24.352907714377775      1.5847523034332995
   179   1      23.008218456585329       25.72980358112622     0.31234974483535316
   180   1      24.391099159904712      27.375875171295935      1.4122201013476101
   181   1       25.98856906051207      28.659957195259683     0.14978098043496865
   182   1      27.300662657111243       1.480529019303912      1.2940323718450586
   183   1      25.892518798740035      2.9050260549398117       28.69577071317579
   184   1      27.209219118291497      4.1928362301507089      1.4912645453305908
   185   1      25.917757252557564      5.7268608514008932    0.016987662235760575
   186   1      27.201859467810074      7.2737182791707173      1.2069939507897509
   187   1      25.753811819696821      8.7168758227846368      28.512600029724755
   188   1      27.023299430795721      9.9038074281449511      1.2533890754477393
   189   1      25.817675299621129      11.399679090712596       28.43761063656995
   190   1      27.128810746627458      12.703414058235527      1.3232533317987769
   191   1      25.845675483170613       14.22949038433627      28.482393856333417
   192   1      27.205524468678696      15.467175673931983      1.4403558384251804
   193   1        26.0377478295641      17.007455477330875      28.545656866711184
   194   1      27.076261816242212      18.472229989498548      1.5641385003835582
   195   1       25.69130881486635      19.785095186945565     0.21012722288958235
   196   1      27.268893738325367      21.502134260360943      1.4543217911295085
   197   1      25.668672606740312      22.929980743033759      28.608203353386173
   198   1      27.379396686916103      24.376884219821857      1.6441977414568438
   199   1      25.939595810169266      25.777285317208861    0.034020063082789521
   200   1      27.425831963402199       27.29242365593316      1.4574034979376507
   201   1     0.14177668583480477    0.038136221212710222       2.815254436933365
   202   1      1.4841525459527236      1.5423102134391791      4.2708558628037485
   203   1    0.074305158995696521       2.706915707053644      2.7824730618476328
   204   1      1.1260057905393652      4.3347161001941936      4.2486633033302956
   205   1    0.033497815870658053       5.760591584053377      2.7115474691631429
   206   1      1.1678871192944611      7.2395505043556145       4.424357767606355
   207   1      28.238157796812917       8.663091990435861      2.8334712222777747
   208   1      1.4867551377600774      10.026474605684475      4.0096025742390449
   209   1    0.093283850132923798      11.499801749903995      2.6318219985449436
   210   1      1.4981936265860216      12.964843018291701      4.1172541962443034
   211   1     0.05801680589468209       14.26653528220584      2.8288520874506857
   212   1      1.0891991021539991      15.649909471670627      4.3709092325848022
   213   1      28.544885924395089      17.089241526277636      2.9020188322098939
   214   1      1.4779266611498092      18.608967478083823      4.3697142545224228
   215   1     0.22452653806126488      19.910389106385516      2.8174008166948163
   216   1      1.5174379070278645      21.563873805396206      4.3158699800385936
   217   1      0.1538327420939043      22.947174769131983      2.8633545772169104
   218   1      1.6730447612862922      24.292432912007975      4.3660783797508946
   219   1     0.17001660506848734      25.840034688599825      2.8197085053321307
   220   1      1.4457004837677476      27.459165275180453      4.2712336196613583
   221   1        2.75772893865983    0.022354320056285959      2.4478187448552262
   222   1      4.1924696221561186      1.4770734234997687      4.1195804463907413
   223   1      2.5752614357241104      2.9130950266813311      2.6017440994046854
   224   1      4.2941249361364493        4.22725536437295      4.0430317880499462
   225   1      2.8421081737507716      5.7297115911500072      2.7475597869826975
   226   1      4.3595088539833853      7.1259945268967879      4.1396480722086837
   227   1      3.0777838581222476      8.4888885442800266      2.9065926277778806
   228   1      4.4627980345913043      9.8896201742344818      4.4150291050931694
   229   1      3.0906053811454526      11.170416495492406      2.9653376038726971
   230   1       4.533752473169109      12.782434926504354      4.1650417518258953
   231   1      2.8884754043463063      14.583748737970341      2.8267894526270303
   232   1      4.4834231120277339      15.662497479456762      4.2489211907535607
   233   1      2.8448937178291565      16.970039628180736      3.1457960371035121
   234   1      4.3208454285897719      18.722812609334092      4.3836530313582038
   235   1      2.8184631649470719      19.983427988251105      2.8350767948612767
   236   1      4.3725107428724561      21.819152346214221      4.1165965623349372
   237   1      2.7091871478274716      22.982567993243304      2.8469723589688307
   238   1      4.0787481395382033      24.414413400791055      4.4288379646153375
   239   1      2.7733013368739203      25.838051950882754      2.9912027065837372
   240   1      4.2905716994099734       27.08550642504138      4.3484195450003096
   241   1      5.5208631179928371       28.62308503464924      2.7143093172340165
   242   1      6.9967925786677121      1.3293306367949296      4.4937750066436424
   243   1      5.6432352502570673      2.7347525870428839      2.9621705821202418
   244   1      7.1678430484467679      4.0361577902009245      4.2867823133454728
   245   1      5.9271277167790632      5.8958818848704784      2.8428464581141828
   246   1      7.3523269543198859       6.997039859716164      4.3134529457762945
   247   1      6.0560880617326367      8.5419853129915442      2.7781677037648596
   248   1      7.4410717131477417      9.7878588981785022      4.2551838986178776
   249   1      5.9228207825458936      11.237475616662483       2.678959069397683
   250   1       7.224881416500506       12.84144390000054      4.2909081968158658
   251   1      5.7490490758954467      14.227240569452634      2.6789981659866511
   252   1      7.2185774755414664      15.752847911362734      4.2064463510287498
   253   1      5.6590746920340145      17.467290483871196      2.8693876572565395
   254   1      7.2499975166241155      18.657990843033303      4.0848042313181381
   255   1      5.6754175873812196      20.191277703731963      2.8479655227754268
   256   1      7.2249154016396027      21.703201205231235      4.2340607812595268
   257   1      5.6534511844363076      23.221485846246615      3.0719005723700716
   258   1      7.2920609196307336      24.311831696068381      4.3469953411177968
   259   1      5.7307344584703364      25.774367467957088       2.860583719823194
   260   1      7.0133892625661787       27.39810227663903      4.1826812151231394
   261   1      8.6283783519256634    0.030825861350638421       3.004103341723336
   262   1      10.185032244827353       1.499439824137961      4.2858478502327451
   263   1      8.6519106405995352      2.8183089540582169      2.8751276485466533
   264   1      9.9696354804903002      4.2894833860926882        4.31297993241383
   265   1      8.4981061506519637      5.6002282607436795      2.8167655765784851
   266   1      10.040140115120179      7.1866126979249962      4.1169754113178101
   267   1      8.6578218489148018      8.4148975395164403      2.7984216717460861
   268   1      10.167619030924783      9.8693600751875881      3.9743275735972574
   269   1      8.5596815613431581       11.20327026128172       2.889374927271962
   270   1      9.9587498380615145      12.808612217263816      4.2899336317731906
   271   1      8.6220513284722067      14.461808336783685      2.9486838318372155
   272   1      9.9886810817755833      15.831672494674454      4.5139714064466112
   273   1      8.8888422448355158      17.118496213053611       3.122237484693311
   274   1      10.101211114044577      18.744449022809878       4.688155691231815
   275   1      8.7328415585809296      20.141855284035405      2.8815081059440093
   276   1      9.9547486052070049      21.403225685372959      4.4263104371838953
   277   1      8.8409337261999656      22.737663829129204      2.9995502326916794
   278   1       9.842029713763047      24.459961268119439      4.3310873539495871
   279   1      8.5415018334834123      25.906541800525495      2.9991783663586533
   280   1      10.025444670649515      27.272705292406084      4.3095747937725264
   281   1      11.552112871328294     0.13943372312684235      2.8030465890693339
   282   1      12.600453991915858      1.5420730462831889      4.4429679653851428
   283   1      11.385652077106963      3.0946441689590873       2.833344018096966
   284   1       12.95647309277871      4.5243609623208192      4.3649717085990067
   285   1       11.58394536369738      5.8147095120845655      2.9291512872064476
   286   1       13.16563815200395      7.0756042450180132      4.4123364502775475
   287   1      11.622207021961595      8.3665814132588388      2.9251300899150916
   288   1      12.798813880197846      10.054069888587762      4.2824984081487738
   289   1      11.516706268198924      11.439867459215554      2.7449335638857191
   290   1      12.854417129704196      12.860675029008755      4.2741674900521041
   291   1      11.329021210878583      14.286294679995137      3.1987124831520499
   292   1      12.855959256290237       15.69137584692125      4.3105641598418707
   293   1      11.610797700872743        17.4295723423058      3.0998386386795302
   294   1      12.836248848944836      18.824220461457198       4.597984310849375
   295   1      11.600406022180277      20.082271021429644      3.2164843577064928
   296   1      12.830552879432664      21.658738859404576      4.3508370461580004
   297   1      11.422672929055235      23.040034572018818      2.8886369048960736
   298   1      12.719273647607265      24.203478956250432      4.2854443334006671
   299   1      11.300275101253865      25.839757174786662      2.8026858673740107
   300   1      12.872609663860535      27.437238624538839      4.1810504602722158
   301   1      14.179716099851499    0.092422731202327843      2.9763049335597542
   302   1      15.689695583005689      1.4712865994732849      4.4072346991486828
   303   1       14.04365098208798      2.8101353859367797      2.7472099060691426
   304   1      15.593958882753064      4.3233592591236931      4.1010558423668586
   305   1      14.290868205464262      5.6518096197154861      2.7235917241957961
   306   1       15.63770637748258      6.9856208466360785       4.391467214131044
   307   1      14.423935533956923      8.5522186008585948      2.9810816649328244
   308   1      15.678289632395362       10.12296958715007      4.3267124045125662
   309   1      14.175649964467048      11.189953459778556      2.7996557447529877
   310   1      15.902078896971185      12.804624937205888      4.3198213408079997
   311   1      14.352162990921284      14.468468522383285      2.9609610871177119
   312   1       16.07477919749914      15.552248239573016      4.4019198726994118
   313   1      14.332663820983541      17.147105012768609      2.9522155464831723
   314   1      15.855189928968159      18.580107403530526      4.5592901776321177
   315   1      14.110555193053912      19.990613244948523      3.1123284256763477
   316   1      15.506050391701844      21.663041920134717      4.4418995970974722
   317   1      14.198423908590213      23.175965230611265      2.7379105761336051
   318   1      15.629355823628474       24.63960517038964       4.219314096172579
   319   1      14.350097053032096      25.918978841434704      2.7912404414894798
   320   1      15.694787096434659      27.330764301400205      4.2141825013661078
   321   1      17.213854226344793      28.670261215778442      2.8569708683488555
   322   1      18.651236248901149      1.5452347118846426      4.1440435272036238
   323   1      17.195545812540495      3.0040916045426358      2.8889170096823276
   324   1      18.604115772704951      4.4409114823427318      4.0931504676331008
   325   1       17.05819571901802      5.9421766123389625      2.6997420188560546
   326   1      18.710013270429076      7.1152151527749243      4.2899522875384202
   327   1      17.060547254337724      8.7029529608800367      2.8949814482286809
   328   1      18.723485958725455      10.076660923975584      4.3382402826282691
   329   1      17.240717069299208      11.270159519007533      2.8458071950784416
   330   1      18.864431234902245      12.711960980359432      4.3561756982560995
   331   1      17.245951193722433      14.410493620525219      2.7843983748066305
   332   1      18.821747959347608      16.048715538486206      4.5284785318682745
   333   1      17.244254582712944      17.181515035134122       2.984317700081272
   334   1      18.651792556483048      18.710994218403677      4.2795596389227963
   335   1      16.870878342746412      19.933782849509633      2.9641028169592052
   336   1      18.581733393964267      21.511315908440714      4.2338931282367742
   337   1      16.920461320124819      23.000959548002999      3.0943671710226548
   338   1      18.711394950993217      24.297665210590843      4.3549285551085601
   339   1      17.363621857117248      25.729528433497993      2.8686909325399021
   340   1      18.730081342795497      27.600667303921451      4.2796253117700642
   341   1      20.013086361274105      28.651271901908292      2.7813345386169095
   342   1      21.499289507937547      1.5360006429707151      4.0675560337466523
   343   1      19.899321519891455      3.1389156062743058      2.8986191878246399
   344   1       21.48692552435384      4.4511520182600677      4.2227492621291285
   345   1      19.826376817026144      5.7626039684590333        2.69424183327336
   346   1      21.586193018858729      7.3601745344753651      4.3137008624629587
   347   1      20.138261515164135      8.6413720867304473      2.9044771442185251
   348   1      21.599931106684757      10.015066796452333      4.5662633023795109
   349   1      20.208027095207903      11.231214788830586      2.9554889813298253
   350   1       21.47691212749568      12.857209975874813      4.3266287138647082
   351   1      19.902696931500703       14.36514080509478      3.0227107326776799
   352   1      21.574715802089372      15.572961779513696      4.6122930194739622
   353   1      19.904420561362414      17.268293878025808      2.9434104044358538
   354   1      21.556157574113168      18.714533641851379      4.2859731752522991
   355   1      20.117696055803652      20.099540420608236       3.176604183951484
   356   1      21.857311295077448      21.343958152549121      4.4491941788478675
   357   1      19.997170158752535      22.858690013315258      2.9181729060806774
   358   1       21.58689670795998      24.080008770515303      4.4208021015236643
   359   1      20.057760169182373      25.818261691121513      2.9635178741148631