dump/Fe_1350_0/steps_61 (written by ASE) 

2000 	 atoms 
1  atom types
0.0      28.699999999999999  xlo xhi
0.0      28.699999999999999  ylo yhi
0.0      28.699999999999999  zlo zhi


Atoms 

     1   1      28.499444294174566      28.682316202626357    0.088991596688515417
     2   1      1.4144333682020933      1.3106093346505063      1.5591605368795525
     3   1      28.616320222317402      2.7677225294384944      28.663021609800811
     4   1      1.2449805082046397      4.0173484797781525       1.329839622088093
     5   1      28.642821529103518      5.6692462551088569     0.14213698084564602
     6   1      1.2925123212378373       7.271045486378771      1.4062652430844658
     7   1      28.647308257660629      8.9080824777783381    0.078418867673735834
     8   1      1.5215143222481291      10.261540679515733      1.3485274598447869
     9   1      28.654795298895369      11.631207689902109    0.022358214366261113
    10   1      1.4161954799389604      13.025537351863772      1.3053534957256498
    11   1     0.17292395772926999      14.446115910353734      28.638906558002677
    12   1      1.3960827982567252       15.78365232439851      1.5653284214263066
    13   1     0.15555688861868575      17.224125867003625     0.15083993234438819
    14   1      1.6429837431274017      18.466084519006905      1.3659460845178384
    15   1      28.607220953778256      20.086790587335383    0.016396909445211345
    16   1      1.3465698555280048      21.751983809317622      1.6654616658821282
    17   1       28.58688492561885      22.697378157701898     0.12750440110896757
    18   1      1.4093387809853657      24.608389758527938       1.397599605674259
    19   1    0.094972898119830576      25.954172358205582    0.080445164110437825
    20   1      1.4085461622201836      27.252782025027148      1.5770807866852699
    21   1      2.7575233002314721      28.659552551953116       28.64448956668409
    22   1      4.2350192476126933      1.2319318338410319      1.5575258818423214
    23   1      2.7792428355653898      2.8566039649261925    0.034995404726987665
    24   1      4.0678565129029556      4.2975355302879406      1.5538438841233297
    25   1      2.7564367772062153      5.6135038842316387     0.17360198353649131
    26   1      4.0968853204894273      7.2418608813120322      1.3723383090289314
    27   1      2.7526604419795739      8.6902595802462432      28.511026059603552
    28   1      3.8994434957112776      10.177811835742602      1.5100380773237343
    29   1      2.9369355174347178      11.646734293955836      28.575828334430074
    30   1      4.3143727415756823       13.05451641283984      1.2275453179206008
    31   1      2.7573098959902183      14.514166650108207      28.684837928983175
    32   1      4.3044332115238779      15.857874660706598      1.3368223813066271
    33   1      3.0496603540064426      17.268103029024797      28.635380843033847
    34   1      4.4134332337477371      18.718073980876817      1.2990812635362081
    35   1      2.8247999168276019      20.049804120811267      28.643413893325249
    36   1      4.1087683316349093      21.360354524328539      1.4670712159798316
    37   1      2.6711351640805918      23.031805138770075     0.17600021248582612
    38   1      4.3387691265876587      24.404151324723699      1.1527002576765646
    39   1      2.6721985728740743      25.816920791853772      28.505987527323327
    40   1      4.3176672092343837      27.269778900726887      1.3148267385523478
    41   1       5.742890522267377      28.501540628275794      28.592170721904225
    42   1      6.9643719605417678      1.2527989983953944      1.2604665820483998
    43   1      5.6527525604301232      2.7786945959850189      28.618792453029545
    44   1       7.149072307698134      4.2914090928241988      1.2739431565858119
    45   1      5.5785727891293755      5.7833468938055566    0.071679453808167121
    46   1      7.1283136548200572      7.1648857315557741      1.4238361904797685
    47   1      5.6069592875797412      8.4137593335681178   0.0039928363335093265
    48   1      7.1079281720556278      9.8421594333959117      1.6065713975607978
    49   1      5.6364977021197342      11.184237125609737      28.545643216413144
    50   1      7.0951091776205493      12.743946903965108      1.3879520787788795
    51   1      5.8913766963250254      14.330565994054362      28.677477948479709
    52   1      7.0287402365432685      15.974298836730162      1.3025817809986493
    53   1      5.7094392896519386      17.263785296406841      28.514432040650778
    54   1      7.0489659691816424      18.657198802895252      1.3573954801700199
    55   1      5.8525835806965025      20.317112489713445      28.577087313402945
    56   1      7.1502233413797427      21.466948957589384      1.4809468341381269
    57   1      5.7243089867801764       22.98824698030068    0.057218829112161973
    58   1      7.2783495031250176      24.373296767200411       1.283887786064019
    59   1      5.5952054901484898      25.747586954829451      28.604219671932825
    60   1      7.0408781548788753      27.229790146877658       1.239511856677747
    61   1      8.5885082654809981      28.626471707502549      28.484616272754572
    62   1      9.7049491253962596      1.4654191370619043      1.4574170770639616
    63   1       8.463084782860026      2.8567648034219943      28.568096709536608
    64   1      9.9140485974132879      4.2309138398128718      1.5971226642324829
    65   1      8.5437780365699112      5.8540170337152739      28.627110625630507
    66   1      9.9846845946520997      6.8760384030887476      1.2435078142370231
    67   1       8.711723355967278      8.4525004201446308    0.022650380832953943
    68   1      10.074644448939781      10.040231267379177      1.4934234701515827
    69   1      8.5438245090591725      11.308558257430514      28.643650058933293
    70   1      9.9404573867601975      12.944398058199255      1.5591591393844395
    71   1      8.4985728018698605      14.480747338142878     0.20190821762793124
    72   1      10.072487945621445       15.81576751357429      1.4146828911223113
    73   1      8.7205419304187775      17.467672683540378      28.627224230773692
    74   1      10.076753952606087      18.963280234889947      1.3662737778937641
    75   1      8.5074850310757331      20.032231641460356      28.553194385814557
    76   1      10.181109311531475      21.705695498277084      1.4035899361260118
    77   1      8.5541601039180541      22.890539312185503     0.26268824103819949
    78   1      10.122785125094243      24.330923833947427      1.5291336877779473
    79   1      8.8118534463799723      25.658637803595539    0.080213529444142617
    80   1      10.182093323665267      27.265132370107917      1.1543456000161414
    81   1      11.308038648841594     0.10176570267419908      28.666244773244699
    82   1      12.963230304511765      1.1196957927762683       1.356676224893044
    83   1      11.506838770274147      2.7698162074082693     0.14736351256448185
    84   1      12.964831113350234      4.3559413681382102      1.6743206871036476
    85   1      11.685721930172489      5.3831884652572723     0.12286248285358867
    86   1      12.881621160996611      7.1397182189505202        1.39854594155713
    87   1      11.424748602442047      8.5083895129213349      28.642526618450223
    88   1      12.724389892086107       9.879758989224964      1.5407038720685935
    89   1      11.186397953537755      11.584421885904426      28.647672886395785
    90   1      12.635733130609452      12.768046226964097      1.3133505155563749
    91   1      11.384921914741355      14.340890863266305    0.073770256091847702
    92   1      13.103750829996487         15.769124110002      1.0674392147107485
    93   1      11.543013199911773      17.201460852669847      28.553934336620166
    94   1      12.764230730039049      18.888703155347212      1.4898269169040299
    95   1      11.399177598493852       20.28496551497776      28.568763317967669
    96   1       12.96140816033159      21.806256481612838      1.3069174015279375
    97   1      11.331854542278005      22.981813540271599      28.631185201877585
    98   1      12.808926005852138      24.454353377137256      1.5151134639932469
    99   1      11.470472897868957      25.748036396690029    0.036568740151278555
   100   1      12.740541845155036      27.117419918835406      1.2969856428456059
   101   1      14.312229622291913      28.374222957232806     0.12573771143444207
   102   1      16.025866343207454        1.32382404781922      1.3496923028049654
   103   1      14.426051589705855      2.8131730642977937      28.595614242118575
   104   1      15.698227496757736      4.3764572811923106      1.4373543548906464
   105   1      14.192367577176293      5.5600608522953143      28.468079180712085
   106   1       15.57796224608559      7.1532841825362112      1.2380045585535635
   107   1      14.246550589668526      8.6830476600951609      28.493445905222604
   108   1      15.598165395077677      10.007481229321066      1.3774945424269502
   109   1       14.17459592210143      11.391462059351189      28.580630511930938
   110   1       15.72926418754702      12.811749570026377      1.4626937000212361
   111   1      14.472866477821329      14.290883677560023      28.585909392010365
   112   1      15.665794937929922        15.8196079264397      1.4238276985932665
   113   1      14.472751890207846      17.566284417884102      28.693469660693982
   114   1      15.868635099521763      18.776775417300325      1.5511975028861567
   115   1      14.456006732416766      20.260867149245495      0.2068570541571374
   116   1      15.809896537734078      21.722250683934902       1.279288481467757
   117   1      14.347556870271106      23.160931183626968    0.030099804800272648
   118   1      15.754264930428272      24.369216107632411      1.2962345487824798
   119   1      14.380247625445261      25.844441714205598      28.468444897469503
   120   1      16.035984874496322      27.111972923725556      1.4746839676293577
   121   1      17.365286756864354      28.497900027069495      28.538942048617642
   122   1       18.64990405016372      1.3903061142317239       1.243644467949514
   123   1      17.086731098987421      2.7862180208472327      28.655151374520617
   124   1      18.725841095090285      4.4968829347160817       1.759467708733371
   125   1      17.189130943685004      5.5467532816338538      28.686930104458913
   126   1      18.780377772986338      7.0147669435424502      1.3693542449376654
   127   1      16.878576639257574      8.7476991945312417     0.11695477007715466
   128   1      18.569830946654125      9.9564972890717485      1.4959853943519748
   129   1      17.168916505783443      11.380982173525013    0.020459209886541874
   130   1      18.614283513192959      12.959999225379331      1.4028408382383653
   131   1       16.98862269568551      14.456571576686837       28.68653211748672
   132   1      18.551935377008174      15.684883282287245      1.3383416950240199
   133   1      17.119138397139142      17.403471363184437      28.563162793258854
   134   1      18.641075467893788      18.693808054736749      1.5301810840952166
   135   1      17.303271140701014      20.175251907579007      0.1872861293465575
   136   1      18.753085525737546       21.64851250499396      1.6104096898886371
   137   1      17.344083362242614       23.12643700834488      28.661174823490583
   138   1      18.823226776050912      24.397375772050875      1.3709341860264876
   139   1      17.217674380686336      25.681547198768371    0.018985318421152895
   140   1      18.621711836514336      26.951145784585076      1.4490260476911652
   141   1      19.921438866371158      28.479071626356447  0.00099189571135411755
   142   1      21.469988069016697       1.304491402085364      1.5787077716633571
   143   1      20.229193621251998      2.8934203889037855     0.13669999121153759
   144   1      21.523375122080793      3.9993498659438536      1.5190590622610105
   145   1      20.299285596796754      5.4171173607686889     0.13021613082416922
   146   1      21.610631594548643       7.059784562645997      1.2997074998666915
   147   1      20.335309294992172      8.6435479102564159      28.655145823369271
   148   1       21.48937153931584      10.334813581574467      1.3194409012190129
   149   1      19.937258673222711      11.445383996554712     0.11454022003850911
   150   1      21.859387863228516      12.928604320238669      1.6145215713102519
   151   1      20.302154172399028      14.256057382796062     0.18777104358825902
   152   1      21.782836199795209      15.875563526211373      1.3247191086860095
   153   1      19.911115674172908      17.054280634753066    0.078565647605591829
   154   1      21.525490786484767      18.683770837150085      1.3995565163824142
   155   1      20.248702380545993       20.34465963574409      28.665033131680421
   156   1      21.521654434172898      21.325699462032652      1.4129923098616244
   157   1      20.282768236532981      22.774186277541222       28.54498674350862
   158   1      21.650795614886214      24.380970127939829       1.365365278159173
   159   1      20.093510103087333      25.844899646703045    0.068253897228498742
   160   1      21.588391154571504      27.264346865196767      1.3602444739165329
   161   1      22.905196940975507    0.027706401491514043    0.024586102267414832
   162   1      24.515880696547121      1.2050360728665841      1.4894972066957628
   163   1      23.158986190914792      2.9758042430237643      28.607478834568219
   164   1      24.388239409224166      4.2068668452289035      1.3847614272213709
   165   1      22.837384284688888      5.4876368085302651    0.081010451959821331
   166   1      24.376179396247299       6.868599812940352      1.2082682076949589
   167   1       22.71136949085361      8.4896874588633011      28.685551616178074
   168   1      24.452259740787927      9.7701041841272964      1.1573351152747695
   169   1      23.181175986362078      11.346441162015337      28.619236980481478
   170   1      24.398687695921044      12.819422980174565      1.2354108907465156
   171   1      22.937974606230675      14.257555926579665      28.424805810412508
   172   1      24.350332410568772      15.864328648344687      1.1466993408216681
   173   1      23.093097636476966      17.251302418290962      28.587405374133951
   174   1      24.294252387315407      18.676193509428895       1.348227885247729
   175   1      22.878278283858922       20.05496452735267      28.540538404812082
   176   1      24.334884539541608      21.784685697044008      1.2776984863982304
   177   1      22.778346053000664      22.939747554762153    0.038991000088003699
   178   1      24.217374247502487      24.459129857662056      1.3595003279924978
   179   1       22.94251253065946      25.795173891816034    0.069650862916216805
   180   1      24.579635625598975      26.996293654526891       1.102855266888924
   181   1      25.731071723057966    0.010045194634018947      28.611921567503721
   182   1      27.302223438871952      1.3400492513492632      1.4459555557527446
   183   1       25.99172433736074      2.6684386848476946      28.450438390469873
   184   1      27.341162615605427      4.0958032481064786      1.5454234328077174
   185   1      26.185442831378694      5.5946305002420651     0.14939132176818928
   186   1      27.507843393727935      7.2555470336831087      1.2432619624536854
   187   1      26.015940895572381      8.6546895505224999      28.486647514945759
   188   1      27.307568351481258      10.288055010671764      1.5335121166126771
   189   1      25.922857997826686      11.431423970647673      28.484599088928761
   190   1      27.171997362343511       13.11219815603287       1.229474860665402
   191   1      25.772935307286033      14.365184113096644      28.283998731021839
   192   1      27.211291004884515      15.672853343394717       1.139850613668828
   193   1      25.771425397143602      17.148084522387911       28.47291818213245
   194   1      27.181340689589167      18.707200269606204      1.2938586436682264
   195   1      25.641324522352633       20.03515004873131      28.639462393281068
   196   1      27.085445489409224      21.449450099890171      1.4154766846434648
   197   1      25.874020901858852      23.185620527724325      28.534673777419105
   198   1      27.228321922773596      24.439342145582934      1.1933715615973819
   199   1      25.919557059290199      25.870003911722449      28.595451802794091
   200   1      27.005342393317072      27.220615107134702      1.5128585198349813
   201   1       28.66822377982993     0.13881310095424645      3.0516905696287902
   202   1      1.4527959860830497      1.5957844492999469      4.3640190450040448
   203   1    0.051802475085139882      2.6277435928460697      3.0624473952317963
   204   1      1.4272714575606302      4.2635573164493321      4.4559774808531278
   205   1      28.532140805905502      5.7825140670983934      2.8589867662290436
   206   1      1.3302366350064185      7.2812287764021333      4.3190819462009316
   207   1      28.658065553000927      8.8097653906565814      2.8729850639024122
   208   1      1.5227038901860761      10.280250740942439      4.0759177623607625
   209   1      28.644278824966154      11.654442622364984      2.8198699913199681
   210   1      1.4562319154886967      13.071122375024544      4.2506412685841175
   211   1    0.044265158956421649      14.348566117569016      2.8500423596745565
   212   1      1.2526481171411783      15.877728477221462      4.3493361859963384
   213   1      28.505339954605464      17.272192817125767      2.6724346080365078
   214   1      1.4185368142262758      18.596401638493386       4.032896523297981
   215   1      28.629546209318125      19.994137943324564      2.7786841020858666
   216   1      1.3454509286888785      21.610752857366943      4.2503044217473445
   217   1    0.021520985776273153      23.049109559183993       2.741992793501947
   218   1      1.4643957778432768      24.599494918851839      4.3130723770336017
   219   1      28.584318338039171      25.938204235417405      2.9468020693462185
   220   1      1.3245338302256204      27.254112315016176      4.2116681899948238
   221   1      2.7944085599253432      28.668997145751533      2.8978365699933573
   222   1       4.187341650539504      1.3946859260289999      4.2340187563650939
   223   1      2.7981647207597242      2.6908215727926401      2.7725435078932144
   224   1      4.1378778028180161      4.2428538503827538       4.108339526552756
   225   1      2.3920378130938742       5.597838674285744      2.7820409486654043
   226   1      3.9309808950113929      7.2328335534579766      4.6023662404989247
   227   1      2.7415010205058921      8.6093489494427473      2.8873597591588838
   228   1      4.3292902696096194      10.322092031666525      4.2584266956543066
   229   1      2.8953491586655264      11.784067984091056      2.8344473629129081
   230   1      4.2514653492186429      13.090267949111862      4.3299269352812457
   231   1      2.9069698777151967      14.442793729327098      2.7382469344751699
   232   1      4.4099402194189521      15.748801007169867      4.3564147314405215
   233   1      2.8668301974283619      16.973454824137331       2.965824783044444
   234   1      4.1586261908790032      18.651509870786182      4.2880809617951314
   235   1      2.9563533063780274      20.106062037218042      2.6728916397334719
   236   1      4.3519166754254677      21.492127898334822      4.3676602644153926
   237   1      2.9410241132583916      23.085566530811164      2.7560423009449546
   238   1      4.3657554888365153      24.531171761787149      4.4439492995625196
   239   1      3.0477058738780389      26.092371224444666      2.7920223761009311
   240   1      4.2180465263521434      27.496139331735247      4.3085174534933195
   241   1      5.7445904632377793      28.629312321772957      2.8700403006456434
   242   1      7.1874608402891207      1.4101785714996358      4.1501474984627169
   243   1      5.7857386940359294       2.728490096481869      2.6600588446336575
   244   1      7.0493902965401611      4.1399571951778036      4.3687181468924168
   245   1       5.706646316283833      5.6037110346905594      2.8996515459544816
   246   1      7.0590829655783729      7.0384908391294339      4.3881715889570607
   247   1       5.466488806518635      8.7028334529685392      2.6735804133649479
   248   1      7.0926448144818783      9.9764659210455271      4.1384828655917802
   249   1      5.6421698349221261      11.622287927538176      2.9025209357524164
   250   1      7.2482581438793021      13.153292265774736      4.1831113641739703
   251   1       5.654733191280827      14.244271470394658      2.5583894463033845
   252   1      7.0360879407336201      15.670487362136946      4.0556584577956203
   253   1       5.551525936230699      17.193830271689503      3.0305826159749651
   254   1      7.0479429956959398      18.551211377556527      4.1776108345799319
   255   1        5.64075103452425      20.077240160609954      2.8914237893670851
   256   1      7.1807121657662965      21.793106912719075      4.4579721384488114
   257   1      5.6717528666902552      23.049791521580712      2.7288414090913307
   258   1      7.0330684122747131      24.394995545984607      4.3108711878864936
   259   1      5.6283175314301799      25.837645752743359      2.7710416771003676
   260   1      7.2410896045103854      27.416245576126737       4.208811144427103
   261   1      8.3806058840439519     0.15666192667756609      2.7389066252809573
   262   1      10.084299283327358      1.4298520588748487      4.2773139725026459
   263   1       8.394315307757708      2.6845467085545565      2.8974206798986049
   264   1      9.8336348457405833      4.1707550404204818       4.302376135341353
   265   1      8.4780497410708282      5.5460522630171658      2.9389979849217709
   266   1      9.9460064449372751      7.0417175709430211      4.2671609182588153
   267   1      8.5607840555994166      8.2301961466875149      2.8271339874618775
   268   1      9.6996899971520723      9.8697677595607853      4.2017806477041404
   269   1      8.5199729395606045      11.248482059435304      2.9321311652694972
   270   1      9.9624286178319483      12.771380400923698      4.1873032304457167
   271   1      8.6683585557450566      14.322162934539456      2.8480047373183197
   272   1      9.9601812113279014      15.987211089037682      4.2951391626718367
   273   1      8.8469441653766001      17.493551263068994      2.8292909060709786
   274   1      10.206690426807585      18.663584274526979      4.3990617532194483
   275   1      8.6177902764170611       20.10936346309467      3.2356600070951944
   276   1       10.13627966726982      21.660248393713438      4.1855945197668731
   277   1      8.5862307091562133      23.037263127309107      3.0325069023814453
   278   1      10.386039489349876      24.352677504304232      4.1956050058636851
   279   1      8.7099355257948528      25.937905250495348      2.6716224522726968
   280   1      9.9938896901587544      27.466363482279846      4.4375008394089619
   281   1      11.210789135486635     0.12417487413790722      2.7073419741181382
   282   1      12.997849885953039      1.4590164206941825      4.1581637876631623
   283   1      11.434493119893204      2.9106621234804257      2.9330151097839248
   284   1      13.075000909067731      4.1097883041523202      4.1360477401253641
   285   1      11.575328992872675       5.429528334421593      2.9577361216732028
   286   1      12.887339867862906      7.0951565951866344      4.1995337768429417
   287   1      11.289746418174907      8.5255953213477991       2.715611067649069
   288   1      12.709022573905962      9.9327613744133565       4.124514838192388
   289   1      11.398314116758613      11.477689280411758      2.8542573582834163
   290   1      13.027320231818218       12.79572639859378      4.3268143018224245
   291   1      11.543720863748064       14.50360167702326      2.8566159023881039
   292   1      12.744990721913771      15.814584623699441      4.3954557157499963
   293   1      11.355235098788844      17.316960612236358      2.7865444475602881
   294   1      12.869692628667391      18.715932595593429       4.327871067938041
   295   1      11.610831739851522         20.224806969008      3.0616275910771642
   296   1       13.02812504316787      21.497362817399654      4.5939019127343066
   297   1       11.66624424725638       22.94516469291473      3.0282189949833782
   298   1      13.015616214659829      24.403974819841455      4.4316158655560498
   299   1      11.362143948161286      25.950048038238926      2.9018308457752391
   300   1      12.997858905586366      27.359071745929739      4.2863559979848196
   301   1      14.307998777101274      28.666599351651872      2.7348768119563589
   302   1      15.955190002799444      1.5940680170290982      4.0870879961905731
   303   1      14.494078880248676      2.8363328895113793       2.777536959376369
   304   1      15.646662531374911       4.403380489922176      4.2205371632668047
   305   1      14.430560020563322        5.87699003844057      2.7716450338148548
   306   1      15.838530098875713      7.4002219150341375      4.3969107915951549
   307   1      14.320571991838337      8.9500617405672358      2.8467478420230363
   308   1      15.906849105202758      9.9435357218728022      4.2216700063329542
   309   1      14.223625678185547      11.474073839582665      2.8026706832475159
   310   1      15.673104097713326      12.920541084002297      4.2370073835286339
   311   1      14.087011130884248      14.247980609973913      2.5349687198884348
   312   1      15.537467975850999      15.784006615622729      4.3036956975169707
   313   1      14.147256133107188      17.505248466999056      2.8300003983220106
   314   1      15.892992225740628      18.438041144574196      4.2724646592708675
   315   1      14.335358105671759      20.106024957494036      2.9180998045962703
   316   1      15.818283496856269      21.524722178572169      4.2797266688886948
   317   1      14.338161588672284      23.013138880215973      3.0405178841153129
   318   1       15.74283859122208      24.644853271437807      4.2780795991086604
   319   1      14.326760224884275      25.773616943939889      2.9193782905368431
   320   1      15.945374612599606      27.458126488586139      4.3354053422023755
   321   1      17.421619315556605      28.695740814960264      2.8600534305423819
   322   1      18.737264062153937      1.3843804712644439      4.2342379956076659
   323   1      17.322979595106471       3.016098996564001       2.764581491091326
   324   1      18.732353183456325       4.405901031153812      4.4357424632951945
   325   1      16.945174929081425      6.0206459517864106       3.017319430810173
   326   1      18.814118394710462      7.1708783091878781      4.3602431103398205
   327   1      17.164935726239424      8.6077182889392834      2.8777326794660358
   328   1      18.601837050835105      10.044878256459153      4.1905345813540871
   329   1      17.242630004140452      11.594616735836651      2.9403312275698998
   330   1      18.674371669277573      12.987077313727761      4.5038662610929494
   331   1      17.161260991347977      14.544435268193771        2.84490000067757
   332   1      18.694006299701101      15.705262366627929      4.3417665440773714
   333   1      17.315194415096407      17.093651248587967      2.8210870236732615
   334   1      18.544824083520172      18.745723680042573      4.1903046076680317
   335   1      17.296122389306245      20.196923784505586      2.7226749558619976
   336   1      18.844317707600229      21.592960863062579      4.4849168718923087
   337   1       17.11224823319094      22.808401991035943      2.8800576333363335
   338   1      18.782030715988309        24.4171693950831      4.4573012472406042
   339   1      17.387292565256015      25.607175578737671      2.9932912186668892
   340   1      18.855840220944554      27.299078582222037      4.4920536985958499
   341   1      20.002573151113122      28.562979501818493      2.6178200977904234
   342   1      21.630945178471922      1.4187645774255426      4.1922035388356234
   343   1      20.095761328119259      2.9067451749979285      2.8459208597108505
   344   1      22.105711858495543      4.1682850496452639      4.2010532587909246
   345   1      20.261592207597186      5.7034135169511249      2.8998149345827682
   346   1      21.821177207062494       7.215298070573879      4.1881170685089799
   347   1      19.950791456911809      8.5138162177014234      2.9559080351876177
   348   1       21.64816294188158      10.005373582997567      4.0412441268944281
   349   1      20.169190828711287      11.617926258601852      2.8406636952293631
   350   1      21.518307291885417      12.980561897117028      4.2464326661444067
   351   1      20.097644399050196      14.215949367354851      2.9018970684193932
   352   1      21.329629755120312       15.67219847293069      4.3584809490538836
   353   1       19.97854610578089      17.220313482886311      2.9241805469781808
   354   1      21.561598325609921      18.552342823166718      4.2091934756658986
   355   1      20.126660029527986      20.063658656999976      2.7523838051940266
   356   1      21.377812740673384      21.722771079644644      4.2508006313131892
   357   1      20.077561396025594      23.139643130819358      2.8176226537493552
   358   1      21.790686464289163      24.417200353122034      4.5397051706837814
   359   1      20.215613799393338      25.672337015584713      3.0264188871225466