dump/Fe_1350_0/steps_91 (written by ASE) 

2000 	 atoms 
1  atom types
0.0      28.699999999999999  xlo xhi
0.0      28.699999999999999  ylo yhi
0.0      28.699999999999999  zlo zhi


Atoms 

     1   1    0.039169988071525552      28.525152906782115    0.056811349147631023
     2   1      1.5163686317240712       1.369945668643983      1.3967063751015756
     3   1   0.0031328489788298606      2.6492211565721284      28.645163645046441
     4   1      1.5156835414911252      4.3045671077848002      1.4237829741001871
     5   1    0.086660732671068594      5.7097107169792443      28.538865591980173
     6   1      1.4520034305837946      7.0756005359835568      1.4073840329800997
     7   1     0.10103266802233507      8.5159850359727383      28.555359569477819
     8   1      1.6160735879500401      9.9389230459391431      1.2525542214705054
     9   1     0.24096482957795695       11.47375900053847    0.057627272278443907
    10   1      1.5341501972256772      12.783098965353316      1.4011976902542196
    11   1    0.073388123499571925      14.368505782484956      28.652220073803338
    12   1      1.2716198386700073      15.771127501424983      1.3657529834389948
    13   1      28.698031523907989       17.16921671880193       28.53929418768114
    14   1      1.4016865412322452      18.730349562164978      1.6234309594191119
    15   1      0.1481803519843323      20.280759524187594     0.24775554166473046
    16   1      1.6800202292516593      21.793349143080995      1.2429882756908903
    17   1    0.043769788396642452      23.024394051626334      28.689412331176474
    18   1       1.559332414797133       24.52388006394839      1.2815692375803238
    19   1      28.526171971125098      25.851565245699692    0.072860254119348072
    20   1       1.718185025439859      27.332199999599251      1.5521825188828542
    21   1      2.7794181991061357     0.12719400330038461      28.673648989874923
    22   1      4.2752525071785508      1.2454234330839316       1.646421090544721
    23   1      2.8266124786894147      2.7054676170787175      28.553316987681232
    24   1       4.057207453668342       4.371409881794027      1.5177705094222691
    25   1      3.0971904413121392      6.0903406733432144      28.579586261424723
    26   1      4.3952117437347686      7.0778915508476574      1.5313614762351091
    27   1      3.2441322938181663      8.5151351734442073      28.602305277744964
    28   1      4.4120432244442354       10.02009187463883      1.3372259517107987
    29   1      3.0520004643932923        11.3973974843601      28.662990546028826
    30   1      4.3363080833408878      13.054298352036946      1.5121804139746577
    31   1      2.7899693279025448      14.342365492048943     0.13722003734684457
    32   1      4.1205036256970731      15.745696446991778      1.4769271217265216
    33   1      2.6919737276091755      17.212633242141852      28.661997000093084
    34   1      4.3155845086048732      18.838561120759568      1.5501959185833933
    35   1        2.72608686196418      20.067975420957495       28.59514404699063
    36   1      4.3492796587889693      21.526970447029626      1.5055225601666629
    37   1      3.0307367144011992      23.087787632601223      28.531942730320281
    38   1      4.4248665192071241       24.49543745991453      1.5673346878273473
    39   1      2.9645844631225029      25.983438342543955      28.581992609647404
    40   1      4.2518041532206929      27.463784009735512      1.4681009642122596
    41   1      5.7780983418530463     0.26727148008534396     0.14023790127556585
    42   1      7.1111079068078356      1.3312257870385324      1.5253799441033937
    43   1      5.6983583125470316      2.7928188704312338      0.1051580668802672
    44   1      7.3333986280079166      4.2622856424417632      1.3794285170789875
    45   1      5.8587404845096618      5.9108499491937136    0.055446547489714122
    46   1      7.4089526593176647      7.2411301015016241      1.5842298986403862
    47   1       5.917049627209404      8.4513015344893709     0.32214635885585441
    48   1      7.3507420724099468      10.180150290917851      1.6681358834854561
    49   1      6.0305174821294649      11.489846743426673     0.18035690092524415
    50   1      7.1394727978322905      13.019074664768844      1.6752627774968007
    51   1      5.7781316621060439      14.407215853388255    0.043363782991582493
    52   1      7.1964062240852504      15.967804075016277       1.670876768343317
    53   1      5.9508491647674537      17.207938967962676     0.13606435043817555
    54   1      7.0778721633543462      18.561012448350166      1.5113169450655386
    55   1      5.6939683181065908      20.035510569437413    0.087545818549836049
    56   1      6.9850472206047449      21.551621311512957      1.5459391075152777
    57   1      5.5612428338880946      22.950996558002139    0.093627796702298829
    58   1      7.0081143858203552      24.277462918093487      1.5427994598341566
    59   1      5.8172519419965507      26.007220541502377     0.19547751228906229
    60   1      7.1214997424220003      27.232906103008297      1.6138960719870612
    61   1      8.4150173245190043      28.543562922533454      28.610210641996922
    62   1      10.013013362716762      1.2414061890224157      1.3832069066537882
    63   1      8.6655722020911643      3.0092327518192503    0.016048372989757819
    64   1      10.095414772009772      4.1284700625132587      1.4420975621338914
    65   1      8.7528518388586125      5.7670882670710002    0.030155510004089996
    66   1      10.070334178918326      7.2172790930860176      1.2917241485633315
    67   1      8.7083998314940221      8.5510434280567438    0.066825256456445339
    68   1       10.05955251495155      10.065662172457127      1.4081569290110687
    69   1      8.6331614805250272      11.576896758682985     0.20807702131868372
    70   1      10.107002867655048      13.054957722865259      1.4579530634563977
    71   1        8.63951993962133      14.493599708572841     0.22192966307944736
    72   1      10.188104188919517      15.872922814838104      1.6052855707266398
    73   1      8.6211045828617028      17.107949541575213    0.049396960488149989
    74   1      9.8876773145792676      18.612779192329469      1.7579193404397184
    75   1      8.4922498263917738      19.945514632009299     0.17802163426146059
    76   1      10.003515583267923      21.221911636962393      1.4764361074615622
    77   1      8.6627253177364576      22.889488154406926   0.0044380200218256645
    78   1      9.9946948131950606      24.273267097834911      1.3245106891800549
    79   1      8.6999677232563588      25.861547528347696      28.629810163550843
    80   1      10.121890895419108      26.948235593920419      1.5611843646496724
    81   1       11.20249396593875      28.578007019608776      28.377996307739963
    82   1      12.747053781979739      1.3385234942563542      1.3097214031459323
    83   1       11.59904924070409      2.7818448977824239      28.456579294220205
    84   1      12.871761295497713      4.4098984040199101      1.2668066959045639
    85   1      11.495137870233664      5.9648068797257237       28.66236563497111
    86   1      12.907652110186312      7.2068486102798195      1.4475809045088004
    87   1      11.482051661244782      8.7387441962160572     0.19016605400171316
    88   1      13.175520256087161      10.141270518050158      1.4470741627220716
    89   1      11.493320030211832       11.43778978286335    0.056107894916635766
    90   1      13.016287939800403      12.975407558111055      1.2714070167559046
    91   1      11.670538182517342      14.284336723709016    0.049748592902153596
    92   1      12.926982013226288      15.736802663869765      1.3113969505946215
    93   1      11.573986478349706      16.936187890664595    0.087835759697008894
    94   1      13.036976106511048      18.517926355627889      1.2822658182698994
    95   1      11.471803821551612      20.280707079499003      28.615469329306293
    96   1      13.024827539628768       21.51010792728194      1.3414915021856124
    97   1      11.550121757153223      22.946279375066791    0.043735529031232637
    98   1      12.973931899167237      24.313041736436919      1.3671204042182932
    99   1      11.409501944311561      25.798327660899584      28.600218123251111
   100   1      12.779135708213847      27.067184245699746       1.330263808731297
   101   1      14.288628745297977    0.039985055461306623    0.050338618251976219
   102   1      15.637812184489833      1.3002205907499731      1.3382299529025774
   103   1      14.218843698719287      2.7274710923442997      28.623398928539931
   104   1      15.564935805079291      4.0976376910299503      1.3240086223246075
   105   1      14.352091063282545      5.8451404066329831    0.041892747331974178
   106   1      15.731649946341177       7.209857630254791      1.4837194304900443
   107   1      14.456335340698292       8.634833690837878      28.563804596928236
   108   1      15.888359263036925      10.117314268447908      1.4009404106798236
   109   1       14.41664733835233      11.290848439623558      28.332912285550567
   110   1      15.808363680582282      12.797654367459117      1.3566499947212614
   111   1      14.321077379593866      14.437329642556106      28.677738336442339
   112   1      16.099740248745846      15.701512959713739       1.588081863322873
   113   1      14.537068084763103      16.806398832147401     0.14385453540318158
   114   1      15.748483949739628      18.527701871984661      1.4710706699230283
   115   1      14.461489972430726      20.147210853681187      28.635383114569468
   116   1       15.99456409103996      21.573541153608399      1.4296800056104748
   117   1      14.389536900864998        22.7884752602797      28.513540163928198
   118   1       15.81732696527572      24.648092744826876      1.2563772347174902
   119   1      14.073091797208617      25.914372154171044       28.62549557298518
   120   1      15.824728821920383      27.244273019440694      1.0626608963743243
   121   1      17.393260015517527    0.084227328726378156      28.698642198239167
   122   1      18.593647350887043      1.3392493712247986      1.6068442222885992
   123   1       17.28424224531134        2.73165121486403      28.539120154183383
   124   1        18.5113555274012      4.1805752677492602      1.5052068368057239
   125   1      17.373377988444147      5.6708043696902291     0.02980974113123679
   126   1      18.643657274725761      7.2796584246173257      1.4732013028762245
   127   1      17.229899810755771      8.7761262054353182    0.027832107075710162
   128   1      18.808438051135692      9.8594610961265943      1.3270496617476615
   129   1      17.310022938107149      11.468459102026205    0.078280301633515181
   130   1      18.705970015818945      13.160665630371536      1.4954451887354583
   131   1      17.250142113018384      14.216936481130997      28.494078588266454
   132   1      18.669337261696143      15.740497345614735      1.4590995904928041
   133   1      17.126538982960867      17.282613715355762      28.646582440858438
   134   1      18.804834682049542      18.827573450064722        1.43955090118319
   135   1      17.133960941612308      20.193644771362631   0.0028763767057512343
   136   1      18.769136238816245       21.66163273236673      1.3663139047776893
   137   1      17.130618028559216      23.161524005304774      28.603825293017564
   138   1      18.555892706694522      24.430625720953604      1.4919221476853066
   139   1      17.191831264181083      25.890012425585365      28.627121738547132
   140   1      18.663183017508906      27.094633232428784      1.6247660813361551
   141   1      20.074140660870942     0.12396110456609381      28.611225879165563
   142   1      21.425732588641374       1.396832988899348      1.3324056733120184
   143   1      20.201614712732809      2.7341663199111417      28.547638628428121
   144   1      21.192929385641147      4.1064171169745958      1.2693965433239096
   145   1      19.944357093656965       5.777182953652944     0.27172276581100041
   146   1      21.481756061126621      7.1658893481924757      1.2849870280338676
   147   1       20.14842210831182      8.6746463120688535      28.558598465784701
   148   1       21.64074288146254      9.6755847960337036      1.4018352010170581
   149   1      20.240319647026677      11.418741126140363      28.697648169824848
   150   1       21.54300617835451      12.714228977815697      1.5749294032120031
   151   1      20.230793563402699      14.334418457314127     0.10314482363064591
   152   1      21.709291911745744      15.527532363180525      1.3837181825194549
   153   1      20.263330281298988      17.141512303292867     0.19871525931437176
   154   1       21.65333961196281      18.835649284893609      1.3603122786167781
   155   1      20.133109278502296      20.286317934560127      28.605839711101467
   156   1      21.223069526830535      21.579474632486818      1.5311685729446827
   157   1      20.132370087961306      23.016504932562501      28.415105616528251
   158   1      21.500357750603683      24.442457874970934       1.544198498507217
   159   1      20.130746802405408      25.699006003293842     0.12546468950226888
   160   1      21.461795799832391      27.347458195794097      1.3486640381928399
   161   1      23.022028902512929     0.15234778129000862      28.605741194339181
   162   1      24.376431988387314      1.5025747142407684       1.411924554251788
   163   1      22.959209899481781      2.8500557942060842      28.694774665211202
   164   1      24.562329041392378      4.3083071750359831      1.5210960618703775
   165   1      22.988665174828348      5.5769176092999251      28.628522045157187
   166   1        24.2750830663207      6.9664630633598303      1.1622255596514368
   167   1       23.24576190888067      8.7119235234197525      28.636149556085684
   168   1        24.5050100657465      9.7790981665622692      1.6419127202059025
   169   1      23.098073432801478      11.454447986332916     0.13904261135357956
   170   1       24.27689529381275      12.980650094968038      1.6681751935308609
   171   1      22.963586090343817      14.231840270434898   0.0021737593208399639
   172   1      24.177405712148996      15.773324374351141      1.3279025622088949
   173   1      23.078802165075118       17.20928939798981      28.688814255297494
   174   1      24.433683553545954      18.721233928607635      1.4377202923773218
   175   1      22.987454260055504      19.840948226886852      28.578676831441157
   176   1       24.18113693763253      21.359498614337401      1.3558245027638243
   177   1      22.851281666963146      23.008427808077709     0.17981624310579045
   178   1      24.314528487901526      24.624046441378347      1.6345658114239188
   179   1      23.054877403343571      25.815172897769028      28.686704247104164
   180   1      24.434329601643007      27.376771600135893      1.1984279064685452
   181   1      26.059008611059404    0.024545869426924608     0.16627519620111564
   182   1      27.345019043850957      1.3803720046997003      1.4684950053089887
   183   1      25.974939480277268       2.959490901381562      28.697401128694246
   184   1      27.652156328285759       4.424069776805184      1.5018328753011814
   185   1      26.045899433307948      5.3753917820297206    0.092799408457369614
   186   1      27.400748811890757      7.2171150211824511      1.2545013228990907
   187   1      25.995758492039766      8.5721209752794039      28.327131135459943
   188   1      27.263885338515891      10.044796520098792      1.3329990436219072
   189   1      25.688665654191251      11.525661460984214     0.24604047235212631
   190   1      27.427422830324527      12.888764047150321      1.4074863962130035
   191   1      25.790639362986155      14.531337208413051     0.02684826227525719
   192   1      27.360791622213114      15.881022492879529      1.4829387462437138
   193   1      25.697118899363844      17.185889721226289       28.58784901854165
   194   1      27.345997566710999      18.523212341649039      1.3390104890270194
   195   1      25.982203802713464      19.948475648113661    0.092658919746304372
   196   1      27.249032704394782      21.752643725580487      1.2709091200224738
   197   1      25.664183601221492      23.051780987422195      28.584962121941928
   198   1      27.090000345317936      24.425704616112998      1.4759216549773679
   199   1      25.865868923788884      25.999602312012005    0.026558392626088771
   200   1      27.501222146777618      27.311409902712487      1.5050388649181399
   201   1     0.36257710153245248     0.10957252220646321      3.0302018144828495
   202   1      1.5498969787468821      1.5109334702599768      4.4482631160096551
   203   1     0.27585791564531559      2.8708846723342858      2.9042705650757266
   204   1      1.4528826037345208      4.4777389652896211      4.1520119708581555
   205   1      28.629715915909202      5.8716401969585847      2.7419780199285912
   206   1      1.4723937308970336      7.3481055687430121      4.2109626682697892
   207   1      28.594056881488271      8.5920619614613436      2.5263650882279527
   208   1      1.5128506476087311      9.8280121363703241      4.4650752223553685
   209   1    0.094411606478048138      11.265313687163822      2.7449117466022348
   210   1      1.4669055772868655      12.659904106834887      4.2389293677078443
   211   1    0.060194832122341543      14.354387052352871      2.7611412771009438
   212   1      1.2010069777522201       15.61715404685633       4.422687332041499
   213   1      28.642446894687058      17.267483815333204      2.8070050046391666
   214   1      1.2943840566108873      18.981119298243161      4.3903044028163993
   215   1      28.546888042162994      20.212102158840803      2.8640781496121219
   216   1       1.359370915847069      21.576632867768378      4.4264881215466794
   217   1      28.597258648763532      22.889270886059531      2.8672531938792294
   218   1      1.2738549024056069         24.635797238595      4.2379159904139829
   219   1      28.498992406023763      25.699582157290113      2.8917295656925193
   220   1      1.3583769456331656      27.015935093516159      3.9801256035337857
   221   1      2.8663564686388665    0.017424186302923951      3.1544372642341698
   222   1      4.3102296492928653      1.3474128036027202      4.5666110105080877
   223   1      2.8514281472742358      2.7186398516197978      2.8121936347870702
   224   1      4.3986427515177082      4.5021595233779284      4.2429818509148616
   225   1       2.868136176617746      5.9387314781386706      2.8305449385878547
   226   1       4.326129374593048      7.1490895572826378       4.259274086184937
   227   1      2.9143403151028493        8.64637439535562      2.6974607866698195
   228   1      4.3011159208067697      9.9784023818006062      3.9255676716983854
   229   1      2.6519590631839165      11.407700100089736      2.8009241312651398
   230   1      4.1252221643896316      13.020159887906013      4.0962061137399459
   231   1      2.6304446000270785      14.361851710938684      3.0089756983381428
   232   1      4.0037921943232631      15.812722917356359        4.52747875128399
   233   1      2.7981111674817272      17.327700440979228      2.8168479801741673
   234   1       4.192573958248448      18.830334893935149      4.4474346797850659
   235   1      2.7187775263543377      20.278818932164061      2.7228573459733165
   236   1      4.1289066326970039       21.65564533966953      4.3498835423399438
   237   1      2.7757380210412181      22.930725279294556      2.9013989632999118
   238   1      4.0463101686706535      24.227087302451316      4.5377687678403626
   239   1      3.0847326292064254      25.903389373309356      2.7043579276232212
   240   1      4.2133448584674911      27.252190001361459      4.3952834669452736
   241   1      5.7360851604113838    0.078534076885569307      3.1489329396958419
   242   1      7.2468158679519332       1.321644875036077      4.4479909024261595
   243   1      5.6908635726236181      2.7917006971092282      2.7398644247218393
   244   1      7.3669478492994749      4.2766043152544384      4.1796407066020649
   245   1       5.827676303437463      5.6059062041937953      2.7925237446982463
   246   1      7.2275882775125408       7.110155710212676      4.0074191752885548
   247   1      5.7304505920204543      8.7416791938170704      3.0368628088683405
   248   1      7.1681002312461439      10.122825631456292      4.2891289754364861
   249   1      5.6836995974297944      11.587741058725863      2.9125086733787033
   250   1       7.302408820055474      12.989520016899407      4.4570357239557232
   251   1      5.7094454755295674      14.556048273443048      3.1452396245308423
   252   1      7.0873856341762638      15.913977244903627      4.2535497719735114
   253   1      5.3455012541991893      17.302805251806578      3.0191758745992758
   254   1      7.1332988498123102      18.756618325604645      4.3785301950458786
   255   1      5.9316635086109359      20.322110635316484      3.2646005519235399
   256   1       7.345066591091018      21.720121113829748      4.2930925768156731
   257   1      5.6875328537798717      22.916531681664626      3.0109561216217764
   258   1       7.186877453121018      24.212747710587788      4.3190468705060079
   259   1      5.8015851887110808      25.884462068724194      3.0374522021331143
   260   1      7.1127157611738081      27.268498641823069      4.2566844315847305
   261   1      8.4712144394115469      28.544794436523237      2.8720560053379702
   262   1      9.9075892228297633      1.1095757859458326      4.3233992977779172
   263   1      8.5156449138500019      2.4694290944908843       2.923370952668801
   264   1       10.03702870093514      4.1503362197022966      4.3678638118705431
   265   1        8.70669755747255      5.6328950744554636      2.9105076745106997
   266   1      10.040206874914595      7.0529692453429886      4.3525539783080109
   267   1      8.6233592776954229      8.7823747429289156       3.090323267523992
   268   1      10.278440228459528       10.24180126032061      4.4834952160834458
   269   1      8.4662179104993367      11.444846433767191      3.0578639956967093
   270   1      10.100676872597617      12.787787957613709      4.3680372740596329
   271   1      8.8595960948651822      14.364892412321346      2.8223276126924017
   272   1      9.8519553851242669      15.746171646265488      4.3363748868341503
   273   1      8.6258714052436414      17.455135856204244      2.9962819926564981
   274   1      9.9072711033182568      18.646972584641798      4.5596249052821287
   275   1      8.6832201410489613      19.982827944276412      3.0400610753891515
   276   1      10.285250628985098      21.277537898029617      4.4272467417430388
   277   1      8.6894634691887092      22.803927385263584      2.9973676314433106
   278   1      10.351156513331384      24.146013454842478      4.2579556978484421
   279   1      8.4450886037101576      25.826265256326504      2.9640064377728881
   280   1      10.173226591237258      27.200075322005187      4.2678597523378912
   281   1      11.476952304041264      28.495357061250392      2.7483478757833488
   282   1      12.759499730764436      1.2298387986974708      4.2669264911309961
   283   1       11.24429171550039      2.6800859564121642      2.8218097235500634
   284   1      12.779628444287679      4.0834353392062903      4.2656626390632137
   285   1      11.520836813301337      5.6597000624761256      2.8817537113719478
   286   1      13.106118745573331      7.2145855236812961      4.2346689148746863
   287   1      11.457166429962978      8.5227674291542641      2.8210610074962799
   288   1      12.986242818718582      10.181516788448528      4.3260949988855559
   289   1      11.670599391582948      11.423272661721768      2.7984266410743879
   290   1      12.989066175815182      12.830940615960435      4.5026964936746694
   291   1      11.684742266271144      14.138117460330125      2.8919752663945846
   292   1      12.920500586622774      15.727190418288487       4.192191301628946
   293   1       11.48919340016108      17.174321420746399      2.9972667750945599
   294   1      12.967909167609747      18.688311404541626      4.4494861200467373
   295   1      11.672542842857785      19.891188279072182      2.8426988468960759
   296   1      12.934377939269234       21.58356114462968      4.4873004145061026
   297   1      11.658485949465016      22.788712216152284      2.9307193898336164
   298   1      13.109933942133649      24.368261006925557      4.2766277252438325
   299   1        11.6304923604702      25.527030037879364      2.7842808898028357
   300   1      13.017437585158696      26.860737969136867      4.1284276442411283
   301   1      14.443917962370119      28.294706171563394      2.8367890401642035
   302   1      15.697775156240843      1.2426126179928938      4.2335176689308316
   303   1      14.264122172023415      2.7257412872090754      2.9478020497581543
   304   1      15.527214070994457      4.1971052192446159       4.205673085569118
   305   1      14.268877208928499      5.7883672312563661      2.8000093224328104
   306   1      15.724921636961145      7.2618974650410175      4.3143297145867656
   307   1      14.468848958903759      8.7686698215468866      2.7320221914901373
   308   1      15.799779783346649      9.9746751775015117       4.248280383000524
   309   1      14.302077796839502      11.585050885481227      2.8828615264788562
   310   1      15.914352646457797      12.770228995199913      4.3090562319720886
   311   1      14.390399740054612      14.259309808900413      2.8786037830197175
   312   1      15.901681793663158       16.04655003837421      4.0694018895664845
   313   1      14.264120621583981      17.293453359668995      2.7579105576870457
   314   1      15.988193500559763      18.603765526176975      4.1846916213085681
   315   1      14.426982447554636      19.990243586410465      2.7538239966607532
   316   1      15.437239600329189      21.397845838116833      4.2893370926233034
   317   1      14.554281118318572      22.951385036327025      2.9103430195588866
   318   1      15.751179628669915      24.301316932368323      4.4664065443914618
   319   1      14.537364560164908      25.726154768230707      2.6446141728461021
   320   1      15.544087245318503      27.033716314321222      4.3997936411526695
   321   1      17.180134722947756      28.526461412389853      2.8401616369322702
   322   1      18.386471689780329      1.4885099460278075      4.1821691230193094
   323   1      16.845588890475252      2.8356307228774549      2.8783525423365326
   324   1      18.608427809718702      4.5649138721824567      4.1510531742985766
   325   1      17.096437673367895      5.7742598505295506      2.7654140655374118
   326   1      18.666646620306491      7.1715266117576704       4.354800141775196
   327   1      17.146700859485879      8.5434047205955199      2.9226008662617877
   328   1       18.61493961214493      9.9200560506730024      4.1738759275707231
   329   1      17.316209133654066      11.615543193011215      2.7498245871929488
   330   1      18.757860301580006      12.953592398217317      4.2166579075189272
   331   1      17.374769714717765      14.156315104337583      2.7047540253879672
   332   1      18.612506453279856      15.733200437446589      4.1726643331540956
   333   1      17.426593129331152       17.48350784030843      2.7750177136932739
   334   1      18.588146960217021      18.571980627363551      4.2381111815687795
   335   1      17.209172926138152      20.314651092321046      2.8474354038786722
   336   1      18.720968041088494      21.863923363110469      4.5658872155238175
   337   1       17.13060944557499      23.021974093786362       3.061566933227803
   338   1      18.694030419939438      24.502975148861953      4.2570436568401684
   339   1      17.176877816724854      25.912085879582563      2.9661175369837474
   340   1      18.599031134595627      27.222183111381543      4.2755612236926162
   341   1      20.017636039106304    0.074772358643394959      2.8726645983342824
   342   1      21.441077912373864      1.8920210494544114      4.0962624036103428
   343   1      19.873807725388335      2.9221638653378559      2.7128095591165455
   344   1      21.424040410824663      4.2140893685768495      4.3536925980690357
   345   1      20.082021760875435      5.9313376256031125      2.8995388910939357
   346   1      21.517459020574922       7.100867090810703      4.1546879539006625
   347   1      19.955548363509472      8.5580249292425314      2.9015080600898111
   348   1      21.647544597102975      9.7516445267008223      4.2244051139803878
   349   1      20.092772857427136      11.221738292066501        2.69809445072059
   350   1      21.493643782699493       12.62692884433908       4.147005559054084
   351   1       19.97997448056196      14.312626554775385      2.7517517630317561
   352   1      21.289751813422534      15.774769618543626      4.1031669169597755
   353   1      20.193363630375732      17.189541123466778      2.8254485516756742
   354   1       21.21015165515113      18.666218885971656      4.3154413509199028
   355   1      19.893256006936944      20.225285710012226      2.8117785973108416
   356   1      21.163377048965195      21.746594076432142      4.4464726857739265
   357   1      19.918305633137461      22.961135995248171      2.7168950683002664
   358   1      21.305599612912651      24.298157233133288      4.3624204944395082
   359   1      20.085589099433982      25.874868636554197       3.118891511148445