dump/Fe_1350_0/steps_41 (written by ASE) 

2000 	 atoms 
1  atom types
0.0      28.699999999999999  xlo xhi
0.0      28.699999999999999  ylo yhi
0.0      28.699999999999999  zlo zhi


Atoms 

     1   1      28.656944410069514      28.445419975221672      28.390373549852587
     2   1      1.2853486396481804      1.3325045802674937      1.4780114894848342
     3   1      28.549338344324855      2.7262752954693847      28.644678488211387
     4   1      1.1141596059823764       4.336318321357254      1.4421674303507968
     5   1     0.30398415633722159      5.9044880102428809      28.616963312495702
     6   1      1.5485859692113417      7.3014774378466765      1.4537023517263485
     7   1     0.17460540406515326       8.472212469262109     0.19767969100145136
     8   1      1.3519929455101773      10.156885683977048       1.633419268980514
     9   1      28.600751248951713      11.701099325450372    0.092594182448476572
    10   1      1.3626047491976123      12.967867359604224      1.6123422452565008
    11   1    0.024059139068040521      14.505007594174396      28.617683432662634
    12   1      1.2858171916434569       15.89058843576829      1.6895231259549162
    13   1      28.586197381477021      17.279481948204737      28.672052223388377
    14   1      1.4882477942296664       18.60468769823359      1.3104704918030852
    15   1      28.555823280479363      19.943125996654569   0.0019602381469212555
    16   1      1.1891689348645189      21.387744996102558      1.4386489423756763
    17   1      28.605049352473277      22.838495122899019    0.065842770620554339
    18   1      1.3170179735314513      24.277135200837034      1.4060859884051982
    19   1      28.371140839254853       25.79907557632777      28.600874940499796
    20   1      1.1871620998172945      27.175220101228618      1.3886907804722914
    21   1      2.6674214404491794      28.493280747437172      28.630245648691275
    22   1       3.970697724388347      1.5717443278038781      1.4266445061685302
    23   1      2.6497682975538273      3.1975191211181357     0.12337712945879942
    24   1      4.1141439021141899      4.5128079342591061      1.5178629042254106
    25   1      2.8756751654108554      5.9727118414429157      28.579050712193666
    26   1      4.1518930916579331      7.4840910029934271      1.3232852114973284
    27   1      2.6353712859047529      8.8208730214332274      28.560548496579163
    28   1      4.1990935565054368      10.082452673116002      1.5686102370248125
    29   1      2.6529157964976338      11.617299011546757    0.058204118101832542
    30   1      4.2723855233620593      12.927491248235532      1.4537159892765754
    31   1      2.8558294950973178      14.298766400033802     0.06780593351321626
    32   1        4.22966684797822      15.851317029645106      1.4289381346039705
    33   1       3.073269477970404      17.393079499115284      0.1915667750231817
    34   1      4.6382048029200043      18.627090236931831      1.4246334431365761
    35   1      2.9797913153743338      20.075107774156187     0.10265715895894811
    36   1      4.4103931501753113      21.482174994841134      1.6594904705451528
    37   1      2.9186737580997755      22.897207885176769    0.093327691516503886
    38   1      4.2667061679625808      24.326963384333904      1.5014308098528442
    39   1      2.6305225064494975       25.56466390370937     0.34353108093010826
    40   1      4.3056362741237271      27.208162248656645      1.4759009034001449
    41   1      5.6047631679064374     0.21578120140467263   0.0065895604950924197
    42   1      7.2260458729153081      1.6766138807628301      1.4066553031228306
    43   1      5.7744252340347133      2.9422980589957204       28.61344457987818
    44   1      7.1053179053340561       4.371204644189107      1.3749544520557613
    45   1      5.4567600925736377       5.746950619631777       28.66912970904599
    46   1      7.0351113383942376      7.4207525795560612      1.2423844146304648
    47   1       5.805255122775649      8.6641230351173792      28.401271597012229
    48   1      7.1935125360788685      9.8005214319928307      1.1815681629662087
    49   1      5.8531113875938452      11.471576429578787    0.055501815444063199
    50   1      7.5556976511694618      12.983283372222674      1.3563533870450564
    51   1      5.7255492247174731      14.523833301481597      28.672719585644899
    52   1      7.3360121306463348      15.702003568283878      1.5093815928770147
    53   1       5.939839113180744      17.209305587290878     0.24016443316892264
    54   1       7.281110162768722      18.668852868496188      1.5327438558567674
    55   1      5.6614698420012202      20.006254068740137      28.681747103427259
    56   1      7.1013913266546966      21.682456637577541      1.4042872641137933
    57   1      5.6925435700261602      22.988323207275325     0.21045777185594269
    58   1      7.0732721257444817      24.433385719551563      1.5922310720604609
    59   1      5.6851882512607856      26.099517193789545      28.649959678544597
    60   1      7.1420977120619336      27.248020687572872      1.5742710511511286
    61   1      8.5183602777213761    0.040949115263299564      0.0548219864012367
    62   1      10.138478499488606      1.3175693485699744      1.3191104009044468
    63   1      8.8388045127626018      2.8461094083215501      28.513101945879072
    64   1      9.8484370217330905      4.4480884134037204      1.3384428213443818
    65   1      8.5814733310267073       5.892547547773531      28.590403044651485
    66   1      10.307807590106869      7.1403158920614009         1.3725285664005
    67   1       8.791095239097638      8.7013878798454058      28.383183243139143
    68   1      10.262063320258928      9.7281699115842422      1.4831790865857553
    69   1      8.7850706489444264      11.399652505736078      28.664304895374077
    70   1      10.282349610079143       13.06501635878808      1.3669371435103574
    71   1      8.7640558795148511      14.258466294156781      28.610000159504523
    72   1      9.9549042939670773      15.748773979928936      1.3948898649791897
    73   1      8.7098253734786812      17.137242576493417      28.672317886426022
    74   1      10.037680630522075      18.770387572439247      1.4216125924915228
    75   1      8.6106477623381554       20.19193629548554      28.692979594488069
    76   1      10.126079818944154      21.509920865397742      1.1791299042831827
    77   1      8.5532686407683425      23.160790989893719      28.646862910389586
    78   1      10.190969541515859      24.231711121162839      1.2775305255487412
    79   1      8.5061800497000064      25.894900592623497      28.607254765099171
    80   1      10.010137529742366      27.151472818824736      1.2694686911437416
    81   1      11.586089753097706       28.57341723612214      28.616718218508666
    82   1      13.018389969460173      1.5983214559709729      1.2464725126697209
    83   1      11.551460902506051      2.8762026273082242      28.420633928865758
    84   1      12.790437305823948      4.1238483287681023      1.2707672215318089
    85   1       11.65713712030735      5.8254288828739451      28.569607705415695
    86   1       13.02075777351083       7.055172063582889      1.6593869174070397
    87   1      11.822936823708902      8.5790958690061156      28.617298793183199
    88   1      12.819887349032458       9.935323126673353      1.3707841739365103
    89   1      11.328491782578874      11.412793938106027     0.04231927233482783
    90   1      12.914329626346895      12.834977304656906      1.4175007761662746
    91   1      11.541489545159717      14.444975262657023      28.543750594008859
    92   1      12.718669175141496      15.693563052598037      1.3316185774895419
    93   1      11.450167526476744      17.231222108636285    0.086026821615621474
    94   1      13.007900977386035      18.535952881013294      1.2606925336462163
    95   1      11.673417952635919      20.141143370121856     0.11022359854189281
    96   1      13.039100303948851      21.282838706187835      1.6242496461127425
    97   1      11.892980466876574      22.602979934457448      28.609117654378085
    98   1      12.932744824312005      24.373278925718903      1.1490823514502395
    99   1      11.514634783727931      25.848088503074312        28.5233418688657
   100   1      13.003530998549829      27.119344376121926       1.078835525257454
   101   1      14.484339758637399      28.571420653519429      0.0637968069109206
   102   1      16.135470994450063      1.3967870531524784      1.2817074841422809
   103   1       14.46489792376628       2.817549308565527       28.64202361013314
   104   1      15.864710036630775      4.4793712395147267      1.4375651741199591
   105   1      14.361325842230116      6.0347817674716531    0.041621366108199574
   106   1      15.703169922493874      7.2681448900852779      1.5541461850218863
   107   1      14.390758371664187      8.6202223068026349       28.55562468266146
   108   1       15.60404441955138      10.058463970862103      1.4765359798701305
   109   1      14.226536501392038      11.352641594438914     0.11427821671790063
   110   1      15.828110545387691      12.706067544386658      1.6317603539097369
   111   1      14.394803169806398      14.400869701658884     0.17983214865964792
   112   1      15.697984852762575      15.724760859760524      1.5502993221117785
   113   1       14.25947711718095       17.01727687179368     0.12109464149770031
   114   1      15.644191792312865      18.639786149759175      1.6241099756366795
   115   1      14.422975045749947      20.197979932794663    0.015604128325753657
   116   1      15.721443054935154      21.345626139177618      1.5477481224424199
   117   1      14.601172159319985      22.935099438628519      0.1045356009642547
   118   1      15.920601000724915      24.313975177796731      1.4836599968902522
   119   1      14.356196205936476      25.707666673013691      28.655955602466378
   120   1      16.055047799252502      26.856036776125187      1.2455979908470922
   121   1      17.250556959359088      28.623482268216865   0.0090244494696207662
   122   1      18.601158005718801      1.4087143139409239      1.3095765576245195
   123   1      17.207985895734961      3.0900585632571844      28.493229902542939
   124   1      18.665781752580841      4.2264434504030888      1.4959755183837851
   125   1      17.170091959099068      5.9364659329533298     0.27441040330561478
   126   1      18.451786765535452      7.3048498665603123      1.7786844695367681
   127   1      17.102513217949593      8.6433277966421382     0.22715691088768583
   128   1       18.69028718924168      9.8573400643801605      1.6840349961110741
   129   1      17.098822174067354      11.395367918859588     0.15151171191521365
   130   1      18.482088738250994      12.854097465975434      1.5501480009880528
   131   1      17.107874183157939      14.137843092664111     0.22281418238718514
   132   1      18.342011869911996      15.869374915661334      1.5663299251637104
   133   1      17.280777172078441      17.225691755166633     0.11259327499651578
   134   1      18.629214460504777      18.605858499271637      1.4389278259337293
   135   1      17.078488637071636       19.91352601068759     0.30821317054530928
   136   1      18.634652441753186      21.409611564301542       1.504479682074328
   137   1      17.301454227751837      22.881948331469324     0.12109112543575973
   138   1      18.679660878174175      24.415303884340112      1.5210879333795908
   139   1      17.388951371727362      25.606394089819862      28.642942517142473
   140   1      18.587857180037435      27.229226015091598      1.4228478490900884
   141   1      19.976220953172707      28.583144802806874      28.477337939805878
   142   1      21.366536507180282      1.4359333296659311      1.2133947310242648
   143   1      20.160340352922255      3.2014811008633459   0.0075384197521202578
   144   1      21.698673197934259      4.4902984880918808      1.2961379426186337
   145   1      20.118333206652196       5.729411658332074      28.615160067081991
   146   1      21.593381878820001      7.2757226182416126      1.5381144862588718
   147   1      19.984282867947286      8.4668413725290961    0.041026848130206905
   148   1      21.487301820404731        10.1496057330389      1.2751619453990308
   149   1      19.743542620307082      11.373410506675391     0.29496990674168744
   150   1      21.411131998165203      12.694815875938067      1.4913832148494275
   151   1      20.059386894600504      14.177225698094249     0.23874488974386152
   152   1       21.25982895750802      15.858557709430539      1.7325220115073297
   153   1      20.066046859970058      17.226852795400717     0.14396688781407646
   154   1      21.674340766440402      18.288926403973637      1.4639029164839923
   155   1      20.330806943775169      20.015841384063826     0.15154630810399106
   156   1      21.675897759315845      21.445499044245931      1.4320539503031455
   157   1      20.281764371550587      22.799169121267504     0.12700283694194928
   158   1      21.344703654318469      24.070350486620622      1.2657449748888108
   159   1      20.073697987237978      25.836504539966729      28.455280716439788
   160   1      21.441756343118911      27.133436274514256      1.1395119524898525
   161   1      22.950229251439335       28.64889902444887      28.676681232053042
   162   1      24.544855378251636      1.3509815217859782      1.3951908096637322
   163   1      23.039744133455915      2.8348131896336324    0.057386709017805654
   164   1      24.688686321326401      4.2168477140709886      1.3247122972815883
   165   1      23.165400625881507      5.7962479706124412     0.14827345506570275
   166   1      24.606380303139034       7.409010770633417      1.3819973330599151
   167   1      22.896703943930319      8.8475320010302951      28.619235077775784
   168   1      24.353002649890385      10.173861767183862      1.4241019970256836
   169   1      23.185566580993587      11.565821496892953      28.627601685801594
   170   1      24.183907685245678      13.077003884459304      1.4253781076422003
   171   1      22.933301415783003      14.341027528150647    0.053131066884805074
   172   1      24.480489134261077      15.753027395744002      1.2952982023484081
   173   1      23.078150173856933      17.037121058405347    0.013714129348124954
   174   1      24.484863964364017      18.521417726380228      1.4680909579338717
   175   1      22.908896688840109      19.859528830991231     0.20687575865574676
   176   1      24.285070640173384      21.364052991819936      1.3804100720998007
   177   1      23.013257053728637      22.713458865085936      28.572129831654635
   178   1      24.110533012562318      24.277973976753735       1.409698450593408
   179   1      22.854290387405463      25.628424880328254      28.503910823157028
   180   1      24.315069556642825      27.166212964247286      1.4483047172133974
   181   1      25.679719286888915    0.068848661506401232      28.587144905679384
   182   1      27.105330172428083      1.2346679261073399      1.3974180879279965
   183   1       25.84633731357205      2.7299615021835391    0.044543934463183492
   184   1      27.284879312610652      4.2776333003150953      1.0335407077665766
   185   1      25.935396707988197      5.9187496629808454    0.033846937152577652
   186   1      27.197616729642672       7.161728955050048      1.3331706749165606
   187   1      26.133196557727778      8.6687749073580473     0.06938040805704293
   188   1      27.359916129106729      10.187277204776883      1.6630954061498648
   189   1      26.009182667316693      11.555909868156856     0.24010283145649963
   190   1      27.300706560220704      13.116387091277936      1.4291462647474189
   191   1       25.96941689442485      14.497523511205896    0.080730638128318419
   192   1      27.165998344830346      15.984689921355907      1.4842509368259236
   193   1      25.833184249455911      17.369813714498314     0.14416970856914299
   194   1      27.097986915969614      18.645254728965821      1.6059021688370063
   195   1      25.858395875171755      19.975228633197879      28.598020258996144
   196   1      27.243387071663975      21.556333762825655      1.4287778834143749
   197   1       25.90026237950909       22.74350344937314      28.510137509081492
   198   1      27.115676475370154      24.452805479921913      1.4117693259528192
   199   1      25.768138851332001      25.645739182041801      28.562516372783563
   200   1      27.053747226509234       27.33119987877874       1.497616553161901
   201   1      28.638427116151309      28.392837593609233      2.9409477749957329
   202   1      1.3730489447390379      1.4010750163903265      4.4203045695367553
   203   1      28.272174000496193       2.698249550973753      2.6107340089462019
   204   1      1.3329354156965572      4.2919799110391663      4.4448408185846198
   205   1      28.576582217997014      5.7575480116765476      2.6859421396992613
   206   1      1.5152569122381592      7.1112556475008653      4.3034358722018311
   207   1      28.661036914859721      8.5099098455595339      3.1271385708169417
   208   1      1.2732794882813887      9.9252642009801519      4.4433383978916234
   209   1      28.613799488292713      11.666529196245346      3.0650526650249219
   210   1      1.3483342175677437      13.074072784692104      4.2655296512051057
   211   1      28.611679225114774      14.496664509435849      2.9240741671777331
   212   1      1.4055250134943897      16.068981360349152       4.239799330624801
   213   1      28.426672776072852      17.300379474349437      2.8427142936822176
   214   1      1.3462257001288549      18.830918481071222      4.1039612095052327
   215   1      28.487769493312086      20.022018588840272      2.9851556300682307
   216   1      1.4389463126722519      21.555276939620626      4.2407573429021781
   217   1      28.674484526222034      22.984087694044433       2.991888639010523
   218   1      1.5003072075114476      24.403868668408496      4.4573075289242015
   219   1      28.628426093727185      25.668734665644493      2.7529898144313063
   220   1      1.1290620584403217      26.969038122160985      4.3362221472223919
   221   1      2.6324806800389169    0.016041328290998726      3.0764232234475162
   222   1      4.1312058595309322      1.3216769477365005      4.0840606148539118
   223   1      2.7207237391429522      3.1253852720794981      2.9372350465253314
   224   1      4.6749287419135843      4.3423111952690423      4.0661971165021082
   225   1       2.869323218355941       5.849913601342708      2.8332869256106381
   226   1      4.4260034862689164      7.0933131374359446      4.3341173755963611
   227   1      2.8189216219741997      8.5557841480679926      3.0856445001732231
   228   1      4.4397090435567002      9.9585165496388566      4.1627286770392864
   229   1      2.9147039867458844      11.354260688328417       3.142768192953203
   230   1      4.1876436133846102      12.989827846770368      4.3533766245384911
   231   1      3.0130853147350942      14.574533312706851      3.0151664676332994
   232   1      4.4351079913264364      15.891643126343791      4.2370010833514149
   233   1      2.7756298059382405      17.435648008084677      2.9065228053349723
   234   1      4.2718725903564936      18.727859460818117      4.2825166020042333
   235   1      2.9081248359432648      20.217900562007177      2.8080575339441336
   236   1      4.1852660523278971      21.484109934048984      4.4810242318275941
   237   1      2.6222386100223165      22.813738831744683      2.6898991130147238
   238   1       4.175899447615242       24.60728055796897      4.3535433850580825
   239   1      2.6430957465483886      25.862609224947803      2.8973412831247041
   240   1      4.2759226299651258      27.213405101360383      4.0948784569741665
   241   1      5.6075881994488794    0.015834273296388975      2.7920108616822059
   242   1      7.3077449578304643      1.3982230993402365      4.0400396090020161
   243   1      5.5594601115699227      2.7986414875308578      2.7047323130495773
   244   1      7.1315954785756004      4.4627281989894731      3.9931773665244004
   245   1       5.672335883979442      6.0352241162459883      2.6467674926581357
   246   1      7.2805499583155724      7.2982848266114972      4.4113621122384972
   247   1      5.6196809825816807      8.6575705637790801      2.6576751757261934
   248   1      7.2305989297844011      9.9538220574973018       4.080928813707648
   249   1      5.9326642995608987      11.529518392453255      2.9832635830298706
   250   1      7.2074673764310457      13.070189515195759      4.1790830089544944
   251   1      5.4961049425774817      14.402507738206191      2.8159283327413736
   252   1      7.2104544567344426      15.748786276515544      4.2974647501443703
   253   1      5.8510209746224149      17.081306525884127       2.779044605097726
   254   1      7.4484336206991149      18.446118533891664      4.3858811346180238
   255   1      5.8204137284525679      19.892213767843529      2.9198508199361424
   256   1      7.2182509557273082       21.81815532532308       4.112940855505407
   257   1      5.6387916788603691      23.022907687995882      2.9695845184136345
   258   1      7.1510149213209671      24.691335555341468      4.1883021787975032
   259   1      5.6760411982604584      25.944814534803918      2.8140422535106038
   260   1      7.2352747183931374      27.177536007767571      4.0973047773436919
   261   1      8.5880194985628027      28.684284939650354      2.7199426743483057
   262   1      9.9728561995021217      1.4060796512505371      4.2503072934821722
   263   1      8.8185302716629312      2.8538260374033584      2.6830149447417733
   264   1      10.098303131119401      4.4588236238153112      4.0523036529763088
   265   1      8.3813771954509981      5.8816056923103108      2.6914917789440427
   266   1       9.962810661039498      7.1372244996766971      4.4957786076044073
   267   1      8.6711584281371135      8.3838123480737838      2.8979408998308682
   268   1      10.157578990685787      10.198390563958789      4.3479505044967937
   269   1      8.5208057485506838      11.283377684544826      2.6467894981634688
   270   1      10.126068594455665      12.900083252291767      4.2691336802635389
   271   1      8.7243983817062674       14.13299375028565      2.9990661964335987
   272   1      9.8800922532263229      15.671933428881166      4.1411303838994353
   273   1      8.5796855283140943      17.294180157080035      2.8155007100697484
   274   1       9.994951562565717      18.657583168869447      4.2011478257264754
   275   1      8.5377044551962324      20.159287298878784      2.9389085048507906
   276   1       9.916905797961352      21.526923148334294      4.1409199989308583
   277   1      8.6792800436933994      23.010747539722374      2.6791419971813069
   278   1      10.095608995215427      24.338397825295413      4.2863954185645374
   279   1      8.8113258936883163      25.798870401877835      2.7637386569050686
   280   1      9.8575860058549623      27.611020413820743      4.1967416454794302
   281   1      11.671078368096925      28.587624099137759      2.7991439745092741
   282   1      12.956748260401456      1.1410073055562968      4.3677165926336388
   283   1      11.441728913614048      2.7623450928263655      2.8379185146344765
   284   1      12.975224362143846      4.2372469292551616      4.4502232813958491
   285   1       11.54510317842019       5.615689107795677      2.8392742684226842
   286   1      13.074848376217112      7.2600970487563243      4.2701381120225452
   287   1      11.658762340632588      8.4732276834703377      3.1492786463860334
   288   1      12.956924748333398      10.047427212491549      4.2692793626832328
   289   1      11.449526039641096      11.249961604313466      2.7573884112240292
   290   1       12.93464121267538       12.64036645186034      4.3828884072969148
   291   1      11.481029926746743      14.415519707919113      2.8386492714616445
   292   1      13.056460254288313      15.460760949188407      4.1586601393179707
   293   1      11.386597452600626      17.176539959156962      2.8499185416859754
   294   1      12.971293109270587       18.60287271333236      4.3643319661606981
   295   1      11.337040387932149      19.869857312332101      2.8457347668525235
   296   1      12.975969903115878      21.485845250945271      4.3274305499048209
   297   1      11.608604616551251      22.843426416262382      2.9717343107634511
   298   1      12.750708103500767      24.531045782896758      4.1544066245613758
   299   1      11.444935287717541      25.872164207838175      2.6408557420797711
   300   1      12.959079240421662      27.120110997983556      4.3516870933649754
   301   1      14.490603336086856      28.304185764093521       2.730600734304971
   302   1      15.758154062878489      1.3565985654785662      4.3358518950906726
   303   1      14.314801417739213      2.8198199351469726      2.8952278310412081
   304   1       15.80664284401737      4.2942579580583002       4.295136590459907
   305   1      14.396854575759599      5.4927394140134727      2.7944797700879795
   306   1      15.593670646829896      7.1611587781734309      4.3972303424208405
   307   1      14.360733693517115      8.6784005574171097      3.1111522095445712
   308   1      15.919137770204845      10.126811812181405      4.6050922176622695
   309   1      14.304885177817395      11.293624187989131      2.9847804592405383
   310   1      15.720536835400578      12.876473374699728      4.5621554561658995
   311   1      14.275808248827277       14.09601096346328      2.9056679142841779
   312   1      15.729783846937918      15.640245394091645      4.1870216375821423
   313   1      14.348125019061936      17.305860014898514      2.9233265326222106
   314   1      15.560242631241126      18.665167319052731      4.2890691985366383
   315   1      14.101446102381333      19.841371725566106       2.875325681995935
   316   1      15.978434039386142      21.260009279143198       4.207880286454313
   317   1      14.254085469194312      22.975296089349651      2.9810944116929079
   318   1      15.683177870569338      24.216013058136639      4.2938343072863487
   319   1      14.202449030959869      25.751056988137289      2.8235624116358737
   320   1      15.618111069483609      27.080400782561917      4.4973787003208514
   321   1      17.088050296768866      28.552607746257269      3.0885768813120471
   322   1       18.67950931763508       1.555162090610237      4.4944806923086755
   323   1      17.266963298899398      2.8410078720195093      2.9852710532715969
   324   1      18.496413127494435      4.4629535785445222      4.2639005606624751
   325   1      17.076105892730951      5.9222598055077453      3.1407221945272621
   326   1       18.66812643058509      7.4444198861706612      4.4192754463710378
   327   1      17.170185977741877      8.6591905455711533      3.3245712081553092
   328   1       18.75974525102615      10.040535140737882      4.3534711989034669
   329   1      17.225234884969083      11.418107794459223      3.0156100958248202
   330   1      18.597950230198293      12.832416248243851      4.3583925731838375
   331   1      17.162781943538729      14.186616518825097      3.0360425881472142
   332   1      18.365099928007428      15.781927224287472      4.3813429000556479
   333   1      17.156398739734446      17.448441836269478      2.8101726830391143
   334   1      18.655181980702761      18.782653267791307      4.1464920966833061
   335   1      17.371119901437449      20.048618971735817      2.8676699979007361
   336   1      18.877297743420677      21.448670122613692      4.3131698408929084
   337   1      17.427925111874671      22.763424214370865      3.0352702191876721
   338   1      18.850281564066531      24.494075291375438      4.1068842988367251
   339   1      17.249463142437794      25.743207658031203      3.0201366308299851
   340   1      18.609410907527664      27.304930233286736      4.3127362709204657
   341   1      20.077359101392457    0.094168847768935443      2.8770391160294553
   342   1      21.537383346808209      1.2239012049038029      4.5196129518068213
   343   1       20.19900671738861      3.0805486774469748      2.8515770013105799
   344   1      21.801439190925567      4.3166187428125848      4.4995675931652253
   345   1      19.968376135222695      5.7560217769960262      2.9756252283993874
   346   1      21.550414642993342      7.1728340844210585      4.2393816176719046
   347   1      20.266533680882521      8.5712424737231032      2.9161197550677991
   348   1      21.635278305008669      10.066759253606726      4.2255358201818689
   349   1      20.227393128562049       11.45235737337719      3.0311631666401015
   350   1      21.494989034748031      13.179848085063222      4.1818578550872409
   351   1      19.928329617397146       14.29560715821567      3.0298194424523435
   352   1      21.451108333901086      15.862642781169013      4.3311543130985646
   353   1      19.775811225129775      17.292692234530094      2.8064323528444217
   354   1      21.508052178975912      18.629585441382329      4.1488531829722541
   355   1      20.067669496598263      20.051316173182428      2.7141880485752612
   356   1      21.639043949885512      21.641735518726282      4.2289274535081978
   357   1      20.050061258831825      22.661672534784053      2.8944944414182281
   358   1      21.638085493324009      24.229039941994674      4.2652800134860875
   359   1      20.073141787795496      25.665782315752178       2.880906083073671