dump/Fe_1350_0/steps_31 (written by ASE) 

2000 	 atoms 
1  atom types
0.0      28.699999999999999  xlo xhi
0.0      28.699999999999999  ylo yhi
0.0      28.699999999999999  zlo zhi


Atoms 

     1   1    0.032975108402969709   0.0043351436725419515      28.638241658138359
     2   1      1.4155908603888869        1.42427036677733      1.5595803416181186
     3   1     0.27516726988069623      2.9234020773199973      28.643768970381501
     4   1      1.6760703823912415      4.1274950057354065       1.392304248050414
     5   1      28.697451310728592       5.715574606679735     0.14610465382625074
     6   1      1.4021598262531718      7.0918990505553596      1.5666149405411258
     7   1      28.579745798901882      8.5880143874653267   0.0079673364942323029
     8   1      1.3067192505717451       9.754427878045389      1.3171155762560385
     9   1    0.060793650157325706       11.46319154011387     0.22648692515882668
    10   1      1.5620272966974531      13.165976810987052      1.4852020670883688
    11   1    0.015184379593359554       14.13773466410794    0.032459313858839663
    12   1      1.6121526584222141       15.82072054141422      1.6857743750976515
    13   1     0.12879702560458217      16.971041916347133    0.095947654761368989
    14   1      1.6539672019296978      18.661604684405713      1.6028515048030281
    15   1      28.657316495205084      19.713131192606841       28.58831288542568
    16   1      1.4165110616612209      21.381584402645835      1.4322430457905408
    17   1    0.031312223599049158      22.871357378679132     0.17155486225285579
    18   1      1.3773933442105215      24.493436311880519      1.4907844001686157
    19   1   0.0040420033575417303      25.926889569679819     0.13487231639821845
    20   1      1.4280621802142623      27.254093357483217      1.4333462336880538
    21   1      2.7695550387868146      28.694346788301246   0.0075517105796052402
    22   1      4.0190999561631777      1.3544426189134346      1.3850554629597234
    23   1       3.034965373050853      2.9032065770286675      28.428488756538034
    24   1       4.454883732297529      4.3093477369819002      1.5251555162454238
    25   1      2.7656590458888592      5.7350440318748612      28.597165151475711
    26   1      4.3170024965331271      7.0109827028316882       1.173974814200675
    27   1      2.7230992843461768      8.6517622474615177    0.041857971000069959
    28   1      4.4034549203402209      10.100999747321895       1.480162800148445
    29   1      2.8831924407921004      11.501395030028341     0.17592686434262536
    30   1      4.4275140612713182      12.884681712186961      1.6097686980509922
    31   1      3.0265539901541532      14.427352186605862     0.20476396279206022
    32   1      4.2430205938345713      16.003029706388634      1.9010345193781173
    33   1      2.9022713442185011      17.161809335658088      0.4305888290122889
    34   1      4.0891014776940269      18.718083977219951      1.7345413734467565
    35   1      3.1923904596907966      20.309109479904361      28.525131269910936
    36   1      4.2290439511230113      21.539940611826939      1.7586801604860858
    37   1      2.8677959939241648      22.920382574297925     0.15821548985772987
    38   1      4.1891868143527429      24.064785849666883      1.5374266330014736
    39   1      2.9608551810449781       25.64853164430016       28.65674812634083
    40   1      4.3565134637735632      27.102258853993224       1.354280774694917
    41   1      5.9808207651359568      28.517439879295225    0.079125874591739032
    42   1      7.1370325081073611      1.4071871094710344      1.3147168259158317
    43   1      5.7315955661801139       2.921126295335311     0.07015796774953735
    44   1      7.1928903479097457      4.2086421459739531      1.4348239224110679
    45   1      6.1199403952214615      5.9804509078958947      28.662801197272159
    46   1      7.1498915169246109       7.191696769238157      1.3980421015100555
    47   1      5.6463314476581088      8.6509661440096011    0.096130819242444043
    48   1      7.1699593809996198      9.9901582964805087      1.4996803639520275
    49   1      5.8018341243805711      11.523968429514678    0.023047221001684187
    50   1      7.1294430449401061      12.775901957409207      1.5294293583353238
    51   1      5.6445765885818791      14.412206922767222    0.028018779321394044
    52   1      7.2771602784218556       15.80003575721865      1.5513655530779715
    53   1      5.7752075288443105        17.2533669859687     0.38575448168085202
    54   1      7.2930955146141523      18.729908152163738      1.4084562257274567
    55   1      5.6983409857415337      19.881077460689745     0.17578173336429481
    56   1      7.2591324282759349      21.296311273068422      1.5422139357100131
    57   1      5.8852602928768158      23.035597489014688     0.31255025409024023
    58   1      7.3699274723182535      24.486816494841342      1.8109910430203391
    59   1      5.7644762779173817       25.71362193819521    0.038057355487603549
    60   1       7.225807819938435      27.044827511664902      1.5864685238660616
    61   1      8.8081701739259213      28.657901511454554      28.536762689810153
    62   1      9.8398424808482954      1.3860052730296046       1.677456622565819
    63   1      8.5901825076416589      2.7981131954011054       28.62577226199204
    64   1      10.005255915615606      4.0832977193750821      1.5908218991774115
    65   1      8.7301515445419611      5.6605640775604211     0.23417684745681971
    66   1      9.9428716457135859       7.126080321879102       1.582102558226915
    67   1      8.7150485519140179      8.4997671041353211      28.610496457435477
    68   1      9.8607297861651162      9.9455883664711067       1.670304070768055
    69   1      8.5813329939972505      11.342037838696475    0.093845924157926558
    70   1      9.8856597860466788      12.686323163596089      1.6660181459754198
    71   1      8.6489233809262771      14.225921269010053      28.691051632623104
    72   1      9.7997570683920792      15.752149269290388      1.4679609757588314
    73   1      8.6817912387690335      17.227892591913729      28.618493952837401
    74   1      10.072356320715061      18.584849897921075      1.5654772205103651
    75   1      8.6766125393490832      20.244523741786846    0.083820063941050321
    76   1      9.9781419296601062      21.691104250883356      1.4808757736374225
    77   1      8.6712277841544854      23.018075980370405     0.06782376823744031
    78   1      10.026806236485189      24.538450388754381      1.6219083398823491
    79   1      8.7051914531591823       25.82725707904223      0.1871487410967233
    80   1        10.1738097465956      27.620544907835214      1.3103915449448897
    81   1      11.465095378146493     0.20294215863934986      28.596865451713914
    82   1      12.844548356522324      1.5781982133746848      1.3695961929684475
    83   1      11.543632738174882      2.8192526448411979      28.398194262178354
    84   1      12.796771673218437      4.4813162044342798      1.4483985556739192
    85   1       11.21547277486537      5.7040878518945162     0.30497244860199585
    86   1      12.915209024158564        7.16400511972346      1.3097855411271437
    87   1      11.472280489537832      8.5829412255410595    0.095158183526746279
    88   1      12.812311862826185      10.213549181186057      1.3748934954992029
    89   1      11.374688761292362      11.303066735880302     0.14746919321605662
    90   1      12.795774305885162      12.797373853206237      1.4010092072227835
    91   1      11.272938281575373       14.30034138402335     0.26564915883729995
    92   1      12.939529518262301      15.808901044465514      1.1839741451666113
    93   1      11.338272281755719      17.168661052985836      28.662937310232252
    94   1      13.006309453385532      18.767830243502068      1.2800236319587392
    95   1      11.276730070567316      20.033109774570104      28.644419057058659
    96   1      12.905158448321675      21.556966855792943      1.2395806733946741
    97   1      11.520362382103432      23.040748100557817       28.61335467114057
    98   1      12.952553563274643        24.2755944918548      1.3927063898452952
    99   1      11.521801281173497      25.967562753489496    0.032414663274982929
   100   1      12.772448942828865      27.506866242028845      1.2980987728256761
   101   1      14.186258078667571   0.0075245566045282408    0.008322376266323768
   102   1      15.909930093872452      1.4823909563767521      1.2151012440163531
   103   1      14.081408529087081      2.8288419265149995      28.662953141005715
   104   1      15.625384511294037      4.3995845313922795      1.3350563478782647
   105   1      14.335874288878822      5.7996471052355014      28.681755382896529
   106   1      15.609276076172669       7.241225292828493      1.4165933236867427
   107   1      14.056847668910766       8.715314584363993      28.541755656723272
   108   1      15.705995311542658      9.9754042036514843      1.5949586720617837
   109   1      14.303077635847684      11.340775496710423      28.612368157790399
   110   1        15.7188663864125      12.600538028395698      1.5701853160143966
   111   1      14.259447869847524      13.952293822244979    0.092719169835493151
   112   1       15.61348125223536      15.430058590194937      1.2630058941475111
   113   1      14.292113007596233      17.047981147917735      28.411886967638637
   114   1      15.724992045186523      18.472497529090447      1.2774095424676257
   115   1      14.506211530848987      19.616868933958692      28.441571644209191
   116   1        15.6939926109102      21.494543746307112       1.362921904398023
   117   1      14.358777094528275      23.008793176807277      28.471385872413656
   118   1       15.95679200836239      24.390908011357979      1.4564745476398455
   119   1      14.162379900651285      25.734732414570598      28.479318067726688
   120   1      15.687446892571954      27.284436074964717      1.3835671949171346
   121   1      17.107927902424951      28.684715247601762      28.656549855564379
   122   1      18.562181540438104      1.5233968650896379      1.4915071432091627
   123   1       17.23971334191285      2.9943744681419964       28.69133479411629
   124   1      18.570954270419861      4.5504665588043958      1.5496153788128026
   125   1      17.028369137843921      5.8554549527344149      28.659225371988857
   126   1      18.546246039791601      7.1841174798653356      1.5252099310559388
   127   1      16.945188024871047      8.7073488066391374    0.042905912040578288
   128   1      18.480739944455685      10.151856989413416       1.411112983787552
   129   1      17.098766849046413      11.375909547677539    0.077425807246083819
   130   1      18.668752474334585      12.770606496605454      1.3983545083267588
   131   1      17.103087798023957      14.197729185621943      28.665710139314033
   132   1      18.580646796977586      15.667031576783007      1.3261251336959061
   133   1      17.210063633261647      17.246125405989666      28.300886783022523
   134   1       18.55788770542701      18.620833836093389      1.3181573027714206
   135   1       17.10482094506526      19.761088121333145      28.575627367221543
   136   1      18.512823439221503      21.422546298387093      1.4359534577882525
   137   1      17.272478305767546      23.170449401622093      28.590486536068767
   138   1      18.998269248563904      24.719382554722678      1.5962467141594749
   139   1      17.285125793439736      25.763167108634036      28.569153351020944
   140   1      18.462582325512837      27.221653288917814      1.3998416873600825
   141   1      20.173090838375796        28.6827902968916     0.37901259453508285
   142   1      21.298065146011876      1.6281002434093472      1.4929065432549926
   143   1      19.766539328443198      2.8950070535197083       28.60327845893109
   144   1      21.221074956531389      4.3953258344349928      1.3266185202048177
   145   1      20.106250790498432      5.8059618055006323    0.029134102368084364
   146   1      21.319205427188479      7.2316175770714493      1.6427727410761914
   147   1      20.002556910869792      8.6126959806281906      28.697982135825168
   148   1      21.277050671547066      10.010653375062374      1.3980267606576369
   149   1       20.00474865178381      11.336520779317112    0.046651772519305676
   150   1      21.784341539595797      12.943903073313669      1.3261207148464442
   151   1       20.19835711830774      13.832296084403163      28.492402413263139
   152   1      21.660868850262432      15.636705453351164      1.4156405524777149
   153   1      20.123353903100487      17.018977608847877     0.19040251371801553
   154   1      21.638832701984654      18.945393911270841      1.1882504836113175
   155   1       20.05219866781076      19.975500125650907      28.644590681476942
   156   1      21.479412060263574      21.640209362278203      1.4484177979949213
   157   1        20.2013398755285      22.760027547843393    0.034260797109231945
   158   1      21.682573573342346      24.297073891571863      1.4479819420472946
   159   1      20.497343720283109      25.718120510644926    0.070334721796450436
   160   1      21.699331372543806      27.239806544191872      1.5792288474573755
   161   1      22.815958982888286      28.561425495316769    0.018234670342042122
   162   1      24.354531897598562      1.5000913440592403      1.2296041277494634
   163   1      22.876204966943614      3.1915784605974507     0.31405555824786813
   164   1      24.607657756722567       4.455957274452671      1.3877091534509991
   165   1      22.832873459586359      5.7790773676821017     0.18029262032324603
   166   1      24.454200195019624       7.305742010554531       1.406826193530706
   167   1      22.914936253702745      8.5989632815943331    0.035282707436931425
   168   1      24.417171173459341      9.9377115793856063      1.5963753377680161
   169   1      22.914103405800365      11.371577835227304    0.012117325021108636
   170   1      24.316669782850713      12.862511483485349      1.6085154925624003
   171   1      23.191923849744207      14.406268058901061    0.095864096684829217
   172   1      24.501729510869271      15.978252298411313      1.6030286776808347
   173   1      22.971282402696428      17.080477540156288      28.549900401329396
   174   1      24.372312078496442      18.385362232121558      1.2689513440524027
   175   1      23.165803268638779      20.268183714196631    0.075827979476014232
   176   1      24.265777105012919      21.838148058248745      1.3148625913153753
   177   1      22.942990684863194      22.941278910446062      28.493745711578843
   178   1      24.526217577756679      24.341458886022838      1.4415292231439489
   179   1      23.163778491432712      25.857248209250749    0.010519747675141378
   180   1      24.421335260464136      27.215602482675088      1.4167671829862114
   181   1      25.842389089644225      0.1349024957017492    0.084555271886893102
   182   1      27.304542049407821      1.5975994419209876      1.4517869456800561
   183   1      25.964270958680888      2.8859307755598875    0.069640126214892503
   184   1      27.247230415618041      4.4604787710884013      1.2955532097329867
   185   1      25.750416783316037       5.956084763851317    0.057271027889123513
   186   1      27.495127960490127      7.2776985916790746      1.5575460312153371
   187   1      25.879107842668581      8.5948882865979463      28.644315257875135
   188   1      27.353329649456853      10.063509416909312       1.419399518674801
   189   1      25.871268069333013      11.430908471459855     0.17958393364424402
   190   1      27.490437413085299      12.880870104697278      1.9290876239802526
   191   1      25.920172409107337       14.25488006527593    0.071542293403774784
   192   1      27.477359223181846      15.650826326974691       1.540396609241794
   193   1      26.256563236996051      17.253005329363464     0.11671395357334415
   194   1       27.43276233071467      18.746932141960418      1.6571192815910751
   195   1      25.834291193783496      20.082312424060113      28.664832946718079
   196   1      27.512476787563319      21.427294936972871      1.3525096643470185
   197   1      26.102068186988145       22.75174218841364   0.0066100830783625405
   198   1      27.421163424608942      24.329743376156493      1.4508978008824314
   199   1      26.127831695765629      25.875064137672865    0.091090148797309228
   200   1      27.258469794067633      27.412606944680199       1.461270299756336
   201   1    0.013170034368056513     0.11336486595479327      2.7625031540914282
   202   1      1.3488915671352408      1.3800557781054399      4.3224963369999152
   203   1      28.687948743464961      3.0199426700490379      2.9980586717080255
   204   1      1.6205339296502301      4.1498486443468252      4.4514902546339492
   205   1      28.618001515945526       5.734165367931662      3.0052198701801212
   206   1      1.4614465645967596      7.0645505790154415      4.2608714307422941
   207   1     0.14480713528194045      8.7809597493225731      2.9709651348670376
   208   1      1.6122668906403872      10.067679123305547      4.2821325378988746
   209   1    0.037439088465090274       11.35195633766225      2.9213063556681789
   210   1      1.7912102943502657      13.012599442774791      4.2732535738697228
   211   1     0.29978446873583475      14.421420892653337       3.064233114929177
   212   1      1.5666755506033399      15.937623289588229      4.7034953954162608
   213   1     0.16973236654709017      17.198339797882845      3.1068096124995126
   214   1      1.3762656376689624      18.742624586402979       4.458155396314833
   215   1     0.10964119467772791      20.325321687170323      2.9987956567053948
   216   1      1.6208264056468698      21.444090005164277      4.4639793233519898
   217   1      28.656896122360322      22.938074096714022      3.0329410808390054
   218   1      1.4701520790997746      24.601749702179571      4.1054447938330547
   219   1      28.617327416515195      25.991981600611304      2.9821034243456732
   220   1      1.5734577976467683      27.080273032757315      4.2337239416596875
   221   1      2.9343827047321147    0.045287658156474037      2.8724634901706279
   222   1      4.4951775288484077      1.4859039540699184      4.4489714393973498
   223   1      2.7949894173698548       2.932345601858001      2.9713761418598126
   224   1      4.4637948377974057      4.3835318292020791      4.4287241088637037
   225   1      3.0701010838105822      5.6948794691567368      2.9092119340750817
   226   1      4.1797689631246566       7.223919694200041      4.5517034976632882
   227   1      2.8449834149130293      8.5007947524380878      2.6983021280868447
   228   1      4.4090251952736441      10.022970880189146      4.2477637160685076
   229   1      2.6840869287017775      11.463556162892759      2.8622361645708922
   230   1      4.3037350667954701      12.713250294249123      4.2630411873919085
   231   1      3.1275543852437999      14.505686601363728      3.0528075469506484
   232   1      4.3945410128970535      15.878667596187819      4.4837356183732391
   233   1      3.0391357609572278      17.435446268674504       3.356229258104916
   234   1      4.3373443486296637      18.761764015613171      4.6218754914921902
   235   1      2.9309123487745681      20.026848917242372      3.2398839018856322
   236   1      4.3538049855062226      21.514182183368813      4.3154899775569788
   237   1      3.0295163254330943      22.884896194710997      3.2449254557567393
   238   1      4.4683812510649084      24.538218326578129      4.2683445259882848
   239   1      3.0992694779438086      25.641066383702636      2.8053687920495696
   240   1       4.317872501259755      27.263087611961712      4.3040407596809906
   241   1       5.583503827073244    0.066887118900194997      2.9836129609026325
   242   1       7.261401279437262       1.426970312519835      4.3995793699854842
   243   1      5.7497263943054069      2.7626805534736598      3.0065732867278205
   244   1      7.0865393740012745      4.3255360308783475      4.4559294817168418
   245   1       5.787724345330135      5.8973908722145651       2.988203965769193
   246   1      7.2537012093233573      7.1321885515127788      4.4012762818556306
   247   1       5.530834787032358      8.7003104562357674      2.8336735649035969
   248   1      7.0614757539742845      9.9205920955513616      4.2084556850736465
   249   1      5.7528173806918783       11.30561877549215      2.9684017261621185
   250   1      6.8687955863570505      12.838136144591175      4.3127771516021216
   251   1      5.6819580889068337      14.509861553565941      2.7510268603455761
   252   1      7.2423390618368746      15.679256721695698      4.2748973561347849
   253   1      5.8607041386023937      17.449369561727124      2.9310865188960524
   254   1      7.2247919302726027      18.778126157604596      4.6192164618948484
   255   1      5.7920829097201851      20.006932453371856      3.0158332153505563
   256   1      7.2712540135836345      21.361940206048377      4.4499140083960995
   257   1      5.9068379943955422      23.060721276555618      3.1508713975498055
   258   1       7.362253442894839      24.552219624736917      4.4680116107855596
   259   1      5.8885603946618517      25.733411999009718      2.9404110531752101
   260   1      7.2775405691337856      27.021102631537353      4.4974785574235661
   261   1      8.5116371134536273     0.13882739682904932      3.2682925884674625
   262   1      10.084914907762338      1.5298819713492322      4.4163224324442112
   263   1      8.5658537676185134      3.0253328589582416        3.02820098711801
   264   1      10.131124485162944      4.4106360521218821      4.3769574317132909
   265   1      8.6957257706567219      5.7289225125034724      2.8760272320072691
   266   1      9.9665342878672547      7.1682989118546514      4.3289736338652327
   267   1      8.7573618279340497      8.4513790441929562      2.8871949238812395
   268   1      9.9971017030119409      10.021680988938282      4.4430658489660795
   269   1      8.3969883742800384      11.568351874133112      3.1039080029299053
   270   1      9.8907022547287955      12.851911493227281      4.1601270723141921
   271   1      8.5397526571787559      14.363379893270146      2.7470446944293605
   272   1      10.099400515501726      15.604811982104616      4.4419387513827475
   273   1      8.4549741483310008      17.516251542843293      2.9650057946614239
   274   1      9.8904885200788435      18.530009356986604      4.2900752249200798
   275   1      8.7544738643327449       20.03079213587591       2.931413082914784
   276   1      9.8024845327322012      21.370214442551223      4.5948379145664546
   277   1      8.5484266781500793      22.966895576260701       3.059740299473479
   278   1      10.043907462330148      24.451109128162436      4.1070555884692528
   279   1      8.7447356974235788      26.011353223870834      2.9265252004950155
   280   1       10.21294924245011      27.526085668037616      4.4682844503461059
   281   1      11.570806103009559    0.096881217602219821      2.6865115217384994
   282   1      12.942873275652891      1.5709121852725609      4.4749437675971588
   283   1      11.437566262357569       3.091098329435817      2.8167574613445039
   284   1      12.746825727499454      4.1333175439271557      4.2248066637347268
   285   1      11.622065105218732      5.8409212688759569      2.9403978104611608
   286   1      12.899987823872619       7.271286538568555      4.3607609510228835
   287   1       11.51985730000488      8.7031410931004167      2.9564408361519279
   288   1      12.944224083595254      9.9470908482504434      4.6049592302740097
   289   1      11.460259423050754      11.426111992816214      2.9245717868625158
   290   1       12.76230791739593      12.726520766555952      4.5088532976816875
   291   1      11.556801376715109      14.299513582252589      2.9775195239688945
   292   1      12.677275524794545      15.839379450212933      4.0054608452505711
   293   1      11.370869326684808      17.029670991579181      2.6859538749124909
   294   1      12.773590940768649      18.539434662601934       4.197973907465677
   295   1      11.502640502074415      20.215442722241661      2.7926875107066511
   296   1      12.929398103338405      21.307595406028973       4.387810230011687
   297   1      11.372962736702641        22.8851949182426      2.8668090527344687
   298   1      12.937427470405842      24.449180425807118      4.1472909220808747
   299   1      11.663123694642263      26.048409164092181      2.9507463799581832
   300   1      12.955444331710103      27.483134840795831      4.3826404027524877
   301   1      14.272882601043147     0.14269837392499773        2.75298773507369
   302   1      15.762523930818242      1.3805612884742009      4.3053025642264267
   303   1      14.341138384121654      2.8174510889083972      2.8933624837096534
   304   1      15.727187441373637      4.3148743126500584      4.1178538339140367
   305   1       14.15885188645535      5.6961916670933084      2.7904226418044096
   306   1       15.44241032887173      7.2170275686947809       4.161770650444681
   307   1      14.032175169117524       8.525117665264542       2.814833735309707
   308   1       15.66816831459959      9.9599633278653776      4.2075488159914949
   309   1      14.220213853454629      11.233396452800237       2.890923066574933
   310   1      15.760236940375279      12.881049728743189      4.3114490629672657
   311   1      14.185266726697334      13.960969659026814      2.9538450021899361
   312   1      15.804935598435844      15.565110538257755      4.1267521372643534
   313   1      14.258316716412363      17.384123602939457      2.7806289905381503
   314   1      15.882064601339698       18.72031844182165      4.0946300423007411
   315   1      14.287123262527478       20.27508608973519      2.6740315760881797
   316   1      15.662927006905976      21.614475978680698      4.1123328961602921
   317   1      14.296412793803896      22.818250101640324      2.5975926915577472
   318   1      15.644153619918733      24.350173031858414      3.9425575788990646
   319   1      14.117344011035778      26.166572490973032      2.9313292112558829
   320   1      15.849148102173963      27.442408415822264       4.047656477987803
   321   1      17.164444048938403     0.11572019522362809      2.8057058376144366
   322   1      18.501507264867215      1.5071940622926367      4.2033490398504227
   323   1      17.140542817659252      2.6596717263174474      2.7953211535854958
   324   1      18.283479718984314      4.4918725605952314      4.2756886429351848
   325   1      16.943849723793733      5.8265447621974866      2.7695605311015004
   326   1      18.346413422835454      7.1465456351365431      4.1443052793105117
   327   1      17.089905589633588      8.6547966983171847      2.8877794207644025
   328   1      18.410045273131264      10.078302359531449      4.3146558350914264
   329   1      17.052799648246989      11.399420420201333      3.0189485998952024
   330   1      18.599265953391434      12.845450380765543      4.2115614433759765
   331   1       17.24148180080816      14.225023893112709      2.6579347142205507
   332   1      18.631949733116766      15.879242963963778      3.9868993398871355
   333   1      17.146197069513192      17.172561531108663      2.6949279182888168
   334   1      18.557775694919687      18.551563732037394      4.1193677166478331
   335   1      17.170681879102474       20.12686923648431      2.7490513402236836
   336   1      18.784319660151024      21.459331194919347      4.1888561623434901
   337   1      17.435469465090016      22.919104369337699       2.819667260507583
   338   1      18.718636819306951      24.500716823493786       4.308175404709309
   339   1      17.276068148363066      25.804249930259317      2.9789435130017456
   340   1      18.687419206528293       27.38697636782641       4.192804405492538
   341   1      20.130542922952625    0.092274886229825132         2.9913895744187
   342   1      21.423312224411607      1.6626664865234266       4.299797795475782
   343   1      19.842551466973987      2.6353197443169041       2.964250712645609
   344   1      21.333925891918181      4.1266907333925582      4.1425811017531462
   345   1       20.05551305895473      5.7412790106412341      2.9935944057974568
   346   1      21.310859649177903      7.2573787344119296      4.2330431925853498
   347   1      19.941243093657345      8.6203105449200326      2.9171551539754992
   348   1      21.575157551560132      10.086456674760372      4.4230042506945573
   349   1      19.942741511819385      11.517223620230162      2.9132180916683277
   350   1      21.610750875916537      13.145369760774257      4.3135123835948805
   351   1        20.0255541977766      14.175590633202114      2.6095958580447682
   352   1      21.321196208041172      15.691483446387029        4.05678365383155
   353   1      20.070026643080599      17.272224755417881      2.6931206578345508
   354   1      21.304751899246142       18.58635440355436      4.2705592611930907
   355   1      19.905175992234863      19.940551983614125       2.594763993935759
   356   1       21.42813906723298      21.477505036786525      4.1394658278112946
   357   1      20.133751858438753       22.98012963306725      2.7540926615607066
   358   1      21.643116726495858      24.156179372854076      4.0542556549792161
   359   1       20.22003982240366      25.781537320435046      3.1122358234692671