dump/Cu_560_5/steps_71 (written by ASE) 

1995 	 atoms 
1  atom types
0.0      25.526554800834361  xlo xhi
0.0              25.5265548  ylo yhi
0.0      36.100000000000001  zlo zhi


Atoms 

     1   1     0.19447368962522982      25.487880409222274      35.889246000620297
     2   1      1.3055905344736831      1.2502739939872141      1.7055209532269262
     3   1    0.081595139398821487      2.4848371200892068       35.99896122537077
     4   1      1.2311390997240741       3.956612768531492      1.8894185031475659
     5   1      25.378033025840814      5.0631235290181333      36.049155424794215
     6   1      1.1499916492065405       6.322478033684142       1.759512317688767
     7   1      25.327542921621045      7.7422439559685898      35.933209289996903
     8   1      1.2005150560329465      8.9424373123287832      1.7240822480843931
     9   1     0.10833489553501582      10.214081705451731      35.992083033901871
    10   1     0.96146724808690054      11.449217767058245      1.6966304281772537
    11   1    0.028458329816736256      12.926776607160601    0.027327973390947592
    12   1      1.2368736134411173      14.034354273082466      1.7711181478458244
    13   1     0.21908625631225132      15.295415692469614      36.037353708864181
    14   1      1.3466567110915635      16.630739028933728      1.9212823701262787
    15   1     0.13271261969624693      17.933022655357625     0.13277461478386368
    16   1      1.4210700079667857      19.113851023813655       1.774360356315811
    17   1      1.3601551477501601      21.703188527746097      1.8019011701993803
    18   1     0.14096118245895373      23.116011819116636    0.059453034630530449
    19   1       1.125186673939534      24.272542453041019      1.7037996027899454
    20   1      2.6071932058943319      0.2073054012470234       36.05817938120682
    21   1      3.7348801541057162      1.2527508936983256       1.729231537934756
    22   1      2.4591863328247614      2.7045609176517615     0.16821086360782814
    23   1      3.6780782078464229      3.6762550467044015      1.8221007751020561
    24   1      2.5106620952070071      5.2457940466178758    0.064071750502046082
    25   1      3.7797106532165974      6.3724735869337108      1.6744239251118627
    26   1      2.6621166908733409      7.7572783339228879      36.075042491752896
    27   1      3.8204879085102812      8.9851269021768818      1.7270877924109176
    28   1      2.5144213576915333      10.370276213452673     0.12399522722711265
    29   1        3.76910308028785      11.661589873665974      1.8395639533702473
    30   1      2.5373182188732848      12.828834850911736    0.063828165590621322
    31   1      3.6825078733254317      14.189972364912091      2.0361273243751143
    32   1      2.5957360249635313      15.355116317034621      36.070769198531991
    33   1      3.8587293498046216      16.600913246467794      1.7231086427146107
    34   1      2.7177938010127858      17.878081869665188      36.044388844237993
    35   1      3.7914948637974817      19.130882797995682      1.8173163693743501
    36   1      2.4085597710368201      20.340563129302552      36.061619029610988
    37   1      3.7300133271149885      21.790840230486555      1.6046729143616307
    38   1      2.5939268770333781      23.055654552006544      35.968526704336107
    39   1      3.8963616990832621      24.380916269348699      1.6636119927149482
    40   1      5.1096701203767214     0.10214848699908272      36.078298759735496
    41   1      6.3181249161188369      1.3568147879869425       1.904480103344383
    42   1      5.1368518893217869      2.6068729001092485    0.064515194481736954
    43   1      6.1989955777681383      4.1998526430251379      1.8015766058946372
    44   1      5.0089865587032421      5.1420075695813789      36.035933803019553
    45   1      6.2772064290537948      6.6026357269841105      1.7304950613413208
    46   1      5.0034206484308568      7.6749898178033789      36.080771223020918
    47   1      6.3414953521824451      9.0934639642677446      1.8720280351864513
    48   1      5.1407837516148858      10.197289557295331      36.055193030410344
    49   1      6.2890525238956387      11.421189838249962       1.795081207156124
    50   1      4.9784116173022674      12.686740234646013      36.060485529182252
    51   1      6.2439328531137788      14.049619199934629      1.7070398385528731
    52   1      5.0870589924904701      15.473036692894647      36.010664792617561
    53   1      6.1307511319644723       17.04483634413041      1.7868174985703933
    54   1       5.169443121921006      17.900792284624181       35.96008188175977
    55   1      6.4294013132615246      19.366016425509219      1.7395878756292502
    56   1      5.1837713243614214      20.501655524936357     0.14982348021662811
    57   1      6.4180990982648405      21.795416557380094      1.6400809604204134
    58   1      5.1875872993585537      22.936119656196023       36.03728885010505
    59   1      6.4968741233696061      24.357791275853888      1.7090519664815602
    60   1      7.5582686169227902      25.489868277787387    0.023652204516861276
    61   1       8.968160459589912      1.3345297799234503      1.7583466528531402
    62   1      7.4277690854711329      2.3579612883811358     0.26512468117722404
    63   1      8.8867332684117439      3.8208854808493968      1.7495716716947542
    64   1      7.5212098227908184      5.0552911248412409    0.043891166092578253
    65   1      8.9695680705941996      6.4211758438573225      1.7081465564138285
    66   1      7.7163563464351048       7.645108913681784     0.09001415061162571
    67   1       8.927879678519183      9.0383948797733371      1.7448584641655218
    68   1      7.6238779872437163      10.214722146673346      36.044723849202001
    69   1      8.6892784588118595       11.60819597059975       1.735853287085412
    70   1       7.347740080230249      12.827536717726289   0.0030784318853534385
    71   1        8.86916975949784      14.047907544939495      1.8735985248674054
    72   1      7.4778545992992749       15.39454105359531      35.943954103969318
    73   1      8.9260359316803655      16.628725959912465       1.801746387915067
    74   1       7.795477157948163      17.868095351955162    0.039784010888865934
    75   1      8.8672932789597425      19.221148231914825      1.8534217618709348
    76   1      7.7340444135751305      20.519903731438863        35.9206021577603
    77   1      8.9889371637385072      21.707474226539723      1.7653983853116648
    78   1      7.7619266803776625      22.845186667749971    0.009375347970512855
    79   1      8.9345547371433955      24.131348384782946      1.8091604149519405
    80   1      10.277607205517256      25.409372855938692      35.972922634508215
    81   1      11.542296668317892      1.2724242344192322      1.7998686618528277
    82   1      10.379981145107569      2.3809729675081837      36.094899865525591
    83   1      11.345897251227095       3.769687833688979       1.754255939264876
    84   1      9.9455167193545932      5.1092291142699882      36.087360215498656
    85   1      11.324086283240698      6.2388800335605996      1.6759803805983675
    86   1      10.221347905741855      7.7044510022718091      35.936296684271184
    87   1      11.463687973619905       8.905194967613248      1.7964770070579574
    88   1      10.058811941536247      10.347611298518895      35.966723001770212
    89   1      11.297550232980869      11.288788150014208      1.8247972058794641
    90   1      9.9736509917837424      12.737315661444869      36.052217150391044
    91   1      11.334844736539818      14.020091805672408       1.606739147348287
    92   1       10.11060545323754      15.294035113806801    0.021857708907020875
    93   1       11.51399718887067      16.744491279940451      1.9843525644642686
    94   1      10.102173704072039      17.950152180503107    0.043394859992349821
    95   1      11.454527924049994      19.022715010694242      1.9666578161207999
    96   1      10.129342620715514      20.315284456680004      36.031569705860989
    97   1      11.500321486975801      21.556530657921815      1.6586965466822805
    98   1      10.264611909142042       22.88435268933398    0.062471624454542379
    99   1      11.502278663451131      24.276523167962203      1.6485482123778077
   100   1      12.890559259205983      25.292151839805104      35.772779149079646
   101   1      13.921258332261973      1.1887909744634877      1.6195238674049151
   102   1      12.772582289075759       2.578100234589733      36.071205355699497
   103   1      13.933417123863928      3.8061270053003535      1.6728519214056989
   104   1      12.518831395279276       5.182812290030248    0.021734515557523069
   105   1      13.883085572730836      6.3050201993531063      1.5736626744156634
   106   1       12.62660648790713      7.6686758557112071     0.09582984375661005
   107   1      14.088292407971799      8.8560542975628582      2.0315981610391307
   108   1      12.785075113671253      10.343897439117301    0.060856063956987172
   109   1      14.077888798094703      11.373974099959458      1.7477232240481146
   110   1      12.726917270867299      12.805138477300671     0.25077865752020906
   111   1      14.137545334826791      14.009561708471933       1.762109524458775
   112   1      12.511726493238386      15.312856158137174     0.17504591994825194
   113   1      14.110447635911516      16.541334770797008      1.6533102620215345
   114   1      12.720269633602088      17.703853504811082    0.022334480673157485
   115   1      14.087165889714456      19.303400295924973      1.7334836946711802
   116   1      12.769493356361606      20.273776380886627     0.11090568725151129
   117   1      14.302510319254221      21.806681374674326      1.8004672478653658
   118   1      12.762388343140925      22.754541886275224      36.081147096567527
   119   1       14.09555623986018       24.29069320112243      1.7282999287989227
   120   1      15.175035158815369      25.500215295686051      35.889644199687694
   121   1      16.549027847181314       1.192841893540026      1.6958824929468175
   122   1      15.317030854173348      2.4943090060356807    0.015501855495915597
   123   1      16.417466241581984       3.868949465148015       1.828412974906179
   124   1      15.297919230261526      4.9987334952006437   0.0021898119610114022
   125   1      16.446891092812191      6.3444809502543471      1.6979601867291305
   126   1      15.179916503410499      7.6442899818171171      36.098339665432434
   127   1      16.636595908850168      8.8537045108567369      1.6864414309566438
   128   1      15.379709719105724      10.196071266327003      35.927524977657207
   129   1      16.535177120199272      11.422210237046164      1.7851578061007656
   130   1      15.233046309257345       12.64107709809133    0.003509307866681867
   131   1      16.548393633760863      13.856582754466631      1.7509980858129783
   132   1      15.304199134688988      15.117682299443837      35.951265096077911
   133   1      16.442866847002598      16.385291743202437      1.9567580017868871
   134   1      15.407649773046691      17.766052785125858      35.966111607142388
   135   1       16.59016723773162      18.956838624443066      1.7140892689178955
   136   1      15.486534951453336      20.443772576437048      35.974417253240681
   137   1      16.639607416488477       21.69517344270642      1.8873500702511579
   138   1      15.404616824788812      23.117923376580425      35.923621370185764
   139   1      16.592522820155239      24.259087151178402      1.8981926558205362
   140   1      17.793715648092331    0.076469667246011716      36.004684148291894
   141   1       18.99258755138219      1.0984167942468632      1.6720876010403698
   142   1      17.862992746603286      2.5076663801951979     0.10580747163022584
   143   1       19.13198480336828      3.6892231471384789      1.8247928527727726
   144   1       17.85818760121871       5.025113351054177    0.092043358379442122
   145   1      19.041666947055848       6.190141251529881      1.8228794858275028
   146   1      17.888454093467058      7.5907957202669731      36.047520595226636
   147   1      18.954433457598594      8.8376237613725817      1.6526827021336428
   148   1       17.86518329638913      10.171483781043921      35.852960207658725
   149   1      19.117424828074242      11.462120518377734      2.0100833259243602
   150   1      17.935217927648299      12.470652168411977     0.06023692816700079
   151   1      19.068524363789962      14.039078264173797      1.8162502732408361
   152   1      17.989250506816791      15.380433290724502    0.011785938153980173
   153   1      19.098908907470463      16.551739359901049      1.8733184790091413
   154   1      17.879952222079275      17.922292548577367    0.056961793204857294
   155   1      19.203940120512502      19.071064428705675      1.8726284823239225
   156   1      17.882928289851968      20.511986409484429      36.065773129054158
   157   1      19.127535502621761      21.722808273132848      1.8971440141027858
   158   1      17.991553063418674      23.149054916894773      36.065129316634682
   159   1      19.277004172936003      24.198894040457461      1.6960940001216285
   160   1      20.316503634358305    0.030736256689828035      0.1188645447517729
   161   1      21.567278818291566      1.1862069997997224      1.8825169635734014
   162   1      20.401965074930519      2.4480389728447989    0.016027196774359698
   163   1       21.50623190502283      3.7756332624494711      1.7920630155852664
   164   1      20.399596175261856      5.2313131253404626      36.099866441020254
   165   1      21.561365428509532      6.6889959280914706       1.749988941382765
   166   1      20.351876378921297      7.8330729539432031      35.929036390068738
   167   1       21.56910293146186      8.9674537691271112      1.7372632094279421
   168   1      20.425126498053405      10.228936354947118      35.941551063518659
   169   1      21.570988447776621      11.390203696121297      1.8002981248845902
   170   1      20.364364991827774      12.863765167412724      36.017010646816097
   171   1      21.475798516352263      13.846837841623588      1.7820395565211933
   172   1      20.441574719250863      15.573284415570582      0.1129923812768767
   173   1      21.764240592540229      16.606760239419788      1.8446706313970609
   174   1      20.516172793211698      17.897892551108285     0.02619397181939577
   175   1      21.585831508983404      19.168026934671708        2.04976200264174
   176   1       20.27295925563153      20.247979755462968       36.08891438384903
   177   1      21.746422264910834      21.743968641210419      1.8228474316524965
   178   1      20.411590615873017      22.830126979651386    0.059566994250917604
   179   1      21.705892107528197      24.289113305052538      1.7603605458011673
   180   1      22.909509340621288    0.070809428854139919       36.03840085667089
   181   1      24.215439867515435      1.1370403180355719      1.7398949703248729
   182   1      22.991130236737998       2.552535554702303      35.991592649497491
   183   1      24.131919193023933      3.6206759778931801      1.8045909612941722
   184   1      22.860297959019551      5.0140840715664563     0.11490639628744921
   185   1      24.096447698356457      6.2467721380413765      1.8585201185130262
   186   1      22.837259719905546       7.650855043555933   0.0011902432212991714
   187   1      24.199057269784973      8.8381860180330207      1.7703739175336528
   188   1       22.91222500995066      10.217443712673106    0.009577721186758488
   189   1      24.020442926141715      11.502882142538139      1.9460806602746055
   190   1      22.954371213405146       12.67250995925332     0.12992681211004528
   191   1      24.183270595339586      14.226415485328873      1.5865030384468137
   192   1      22.808795408490333      15.348252861514407      36.077954117560601
   193   1      24.261463359949442      16.733572522190954      1.8876332559184559
   194   1      22.979864926176088      17.886305775728321     0.20212348337140612
   195   1      24.253824762200772      19.363278786844745      1.7210794050361524
   196   1      23.077658172316713      20.350181253013307      36.033880979510243
   197   1      24.264770020767283      21.872756830394483       1.774170250784892
   198   1      23.118511005324386      22.787410124094823       35.98158861349318
   199   1      24.074886711944512      24.292164695052801      1.7913545688637103
   200   1      25.495564438126785      25.333700140307602      3.6275879758763381
   201   1      1.3047444650775388      1.1942514613243851      5.4290948783002797
   202   1      25.214217642030022      2.1924773813710527      3.5324825254372394
   203   1      1.2558594867452051      3.7851915510365601       5.499082396503729
   204   1      25.496441346979466      4.9163053685829361      3.5995679827399827
   205   1      1.3945826586604098      6.3145618367348302      5.3810013384371977
   206   1      25.417215573787452      7.7188825070414238      3.5653269222227535
   207   1      1.3425500874655156      8.7730899372496474      5.1797091088635572
   208   1      25.209506522392108      10.348627990748247      3.7300493889837849
   209   1      1.0356871429464933       11.47159603880751       5.621192250927292
   210   1      25.299947750485153      12.954364711336657      3.4528273112657972
   211   1        1.28342543467281      14.194335476122873      5.5159874474229067
   212   1    0.030610942148407524      15.363432280704322      3.6693723250863779
   213   1      1.2882992153387052      16.552876758908504      5.4743226452834248
   214   1    0.091975870428979922      17.918766983815956      3.6818594562984956
   215   1      1.2777359982389094      19.125133760606303      5.3990808297276676
   216   1    0.028958482541018175       20.36519097878098      3.6877704359412591
   217   1      1.3705832460811531      21.658281281066643       5.518866054492789
   218   1      25.503370426323869      22.787811767766165      3.6905760447730671
   219   1      1.2748443787528509      24.172892976501423      5.4273981236134006
   220   1       2.490083197002424      25.507333800286599      3.4473121326596137
   221   1      3.7558365489984302      1.0803020204085891       5.376245758730712
   222   1      2.3437802688001881      2.4476413607303296      3.5811879996843343
   223   1      3.6949900824282182       3.847405504493095      5.6878922911198071
   224   1      2.5466232159402193      5.0914558126337734      3.7629589803664967
   225   1      3.9970222161833759       6.437333823095984      5.4355151942858164
   226   1      2.5881769023479735      7.5823879626230433      3.5244875205676069
   227   1      3.7080959180525204      8.8179307603889328      5.4911517640415726
   228   1      2.4280001704909822      10.172275434532727      3.4752340784613001
   229   1      3.4524907682492256      11.415577826726672       5.316488778661224
   230   1      2.1907298723514423      12.661420806143603      3.7061084050291475
   231   1      3.7595292658339146      13.865050587888192      5.3024066620840733
   232   1      2.3928824495705885      15.338569986867791      3.7736077805832311
   233   1      3.8391218324072898      16.594483258873229      5.4327736448093171
   234   1      2.6208765321416876      17.871441685332439      3.6572529505021336
   235   1      3.7990839456495094      19.294716691388796      5.5418130509401484
   236   1      2.4487717382496026       20.55587073828087      3.5146416412508081
   237   1      4.0554411928581002       21.78622499885633      5.2475529682175459
   238   1      2.4697317586466974      23.110442520677047      3.4422989991680324
   239   1      3.8323336154344143      24.319846063550173      5.2914512881988705
   240   1      4.9890811016404841     0.21152941918899457      3.5095051503731609
   241   1      6.1786919105630975      1.3591861215676433      5.4812038055519521
   242   1      4.9240363257680944      2.6846533718744094      3.5782902579699667
   243   1      6.4036351346412372      3.7661657531638673      5.4151648982575615
   244   1      4.9952989105128465      5.1473438387639581      3.7326039572741485
   245   1      6.4609133724773207      6.2480951013719253      5.4202976202012829
   246   1      5.0556371148153891      7.7181008206091617      3.7629156504043406
   247   1      6.4081994941242231      8.9392940794492208      5.4312276602723744
   248   1      4.9945987528723617      10.087520713606033       3.629381031191043
   249   1      6.4184848438752127      11.418999518067254      5.3832655974515058
   250   1      4.8273336803938482      12.658976431954395      3.6013500411325481
   251   1      6.3172728661979729      13.961902414703916      5.4498798505908512
   252   1       5.149385555047286      15.335786149829882      3.6858214021709568
   253   1      6.5117175789772341      16.818411047672338      5.3941107048845494
   254   1      5.0957158840252248      18.050638459300455      3.7952623100204566
   255   1      6.6100624998214998      19.167116501055958      5.3111875018665717
   256   1      5.1692658569691137      20.486546571836403      3.4908495107968869
   257   1      6.5644400670914074      21.452766660711376      5.4005426031387813
   258   1      5.2015576904007172      23.000517002925541      3.3522506072600091
   259   1      6.2268957320770681       24.14252522054473      5.3234960919595258
   260   1      7.6096858306498625     0.14962439456219023      3.6486593153860336
   261   1      8.9598876452894984      1.1855179550865578      5.4634892954377481
   262   1      7.5090630570494028      2.5760904657839352      3.4782496072913207
   263   1      8.8953139924435813       3.891023653125314      5.2620525279709875
   264   1      7.6182762424813841      5.2985522216838037      3.5327778130993477
   265   1       8.984201423231255      6.4125455931219761      5.5781668961781019
   266   1      7.6261609834098696      7.7298391364617984      3.4588781508804911
   267   1      8.7795932804593821      8.8709946365386685      5.4078940004571407
   268   1      7.5780915149080892      10.254031120417878      3.5695000749077526
   269   1      8.9202140187992853      11.430587272883434      5.4730311156075517
   270   1      7.5433898596356563      12.796230741809017      3.6519069934037081
   271   1      8.9268088614970775      14.044322047110814       5.325675692156886
   272   1      7.8478517023666612      15.518420401195502      3.5846217575878905
   273   1      9.1020342215053809      16.719237044518959      5.4687318211872222
   274   1      7.7379242290038972      18.140511840658011      3.6986628056913733
   275   1      9.2031032113009772      19.020574906294438      5.4515876728272472
   276   1      7.7790504758304309      20.801296988995297      3.4624996371739822
   277   1      9.2019630611137018      21.566204326012897      5.5565233270708996
   278   1      7.5762732252683236      23.172796706926373      3.6806014847308681
   279   1       9.018546636728809         24.228692983483      5.4663861947374048
   280   1      10.403639725429517       25.47298869820505      3.6655951173234107
   281   1      11.441820944020828      1.3024777514637058      5.3332910694808051
   282   1      10.172294531141031       2.377860642507851       3.560521942823561
   283   1      11.449963996656559      3.6878217357624763      5.4420562552368734
   284   1      10.095641707601199      5.1182654739482567      3.5790454405968588
   285   1      11.366546855046792      6.1971413741900507      5.5583873640971735
   286   1      10.217456946917336      7.6140620673314645      3.6838284596380308
   287   1      11.349040099416142      8.8409179011529009      5.6031903693384608
   288   1      10.272536505434974      10.137718112575046      3.8190907115042583
   289   1      11.295791319801278      11.568194930617551      5.4278892782948152
   290   1      10.138487204589651      12.736840866893575      3.5581217308370916
   291   1      11.498612832741049      14.184551921380335      5.4035695866739522
   292   1      10.289538322723027      15.459378493273253      3.5655398765096149
   293   1      11.467065086121996       16.62318762283655      5.3527344016351117
   294   1      10.194801630623354      17.988026100891052      3.6137684575709312
   295   1      11.641544180375424      19.231592477834909      5.3478337910434348
   296   1      10.252309315942837      20.399514309338624       3.553964380316736
   297   1      11.578048814469462       21.65191353129644      5.3123755986955237
   298   1      10.209987643979236      22.725154348092836      3.5821765608189606
   299   1      11.530816687620584       24.12062769520811      5.3977010152957607
   300   1      12.730930891836767      25.363249676902484      3.6028087219932674
   301   1      14.075899177592342      1.1900271890366056      5.3865448651509569
   302   1      12.654921994776387      2.3554103482646385      3.5060052813992897
   303   1      14.000293340264982      3.5264174302723243      5.2271159723854534
   304   1      12.529337845482356      4.7913699209637626      3.6265333259812604
   305   1       13.96713670869236       6.128084993538069      5.4746678686412489
   306   1       12.85958146157415      7.3892853551054589       3.601055860607481
   307   1      13.873158732317062      8.8185446550723565        5.47631398709217
   308   1       12.70641805127768      9.9537159065394363      3.6956766588683934
   309   1      13.934372589200928      11.460713455419565      5.4450565633006702
   310   1      12.595089376242679      12.766992424080421      3.6634776426072482
   311   1      14.101522414226656      13.784464633625571      5.4924412744781677
   312   1      12.705648347529504      15.267101558997243       3.290550538234446
   313   1      13.964414590894112      16.501251404561671      5.6890725913751536
   314   1      12.779479426137275      17.794650496129886       3.594128999761335
   315   1      14.065240219172649      19.069318050443986      5.5334663293615831
   316   1      12.867772996733084      20.452815591832888       3.467869671925655
   317   1      14.034496919627172      21.737788562958709       5.377568221191062
   318   1      12.620511727472255      22.894338024767219       3.534213324936978
   319   1      14.248307876198052      24.222489325958296      5.4521455577022193
   320   1      15.326906289449399       25.44958696789206      3.5209556260406898
   321   1      16.637819652776848      1.3985511202024909      5.3006101895194346
   322   1      15.247862375442827      2.3926448225498054      3.4117961914290182
   323   1      16.381677912214773      3.9091929022493819      5.0561348399576467
   324   1      15.011019340545385       5.230008430033795      3.4851138450675867
   325   1      16.455328099800372      6.3624300334042871      5.4175653121408542
   326   1      15.309715960318488      7.5797531232730204      3.5623724723995354
   327   1      16.700980857642865      8.7427560311751815      5.3845861256108982
   328   1      15.486879828880969       10.08024699012001      3.8115159136110059
   329   1      16.808146351116022      11.541737763720654      5.5134871361979956
   330   1      15.369314013871056       12.68490518870091      3.7702318134036226
   331   1      16.479479128441586       13.90106759325238      5.3469079035534559
   332   1      15.252889275583525       15.33028329517794      3.7747105387929567
   333   1      16.485891796962843        16.6725873138308      5.6112230305341031
   334   1      15.216725819975734      17.799161807663008      3.6846288946343684
   335   1      16.570877903704677      19.285249332707114      5.4876640653669719
   336   1      15.448216531099577      20.338093021893229      3.6130231312150758
   337   1      16.702739604358914      21.766174916315506       5.496784919828146
   338   1      15.388303113684792      22.922165873493725      3.6438857206321074
   339   1      16.674411736212104      24.241472353794894      5.4047004017441855
   340   1       17.94634447214565       25.45093041032742      3.5264827641393013
   341   1      19.016927092768775      1.1610955890321319      5.4933055914385323
   342   1      17.783118255090095      2.6345131291272823       3.510215779726229
   343   1       18.83218538611974      3.8206738484753666      5.5525646227561687
   344   1      17.695725982184207      5.2531820954414101      3.6728776723578944
   345   1      19.040648916318759      6.3028398523676898      5.5341798761186896
   346   1      17.811110087338353       7.604423126427589      3.5498377670699481
   347   1      19.234609091022154      8.9183221847422445      5.4998778182579411
   348   1      17.812014716475417      10.144647312542224      3.7196449634130277
   349   1      19.215018043644662      11.604205526321721       5.400682874784259
   350   1      17.769255066100932      12.681226781698832      3.6263712477941863
   351   1      18.999766933945025      14.115883483587123      5.3738850346662543
   352   1      17.738983700256242      15.149505630090855      3.4843073553124455
   353   1       19.02561327574152      16.475591979590444      5.3419689467661362
   354   1         17.762142181321      17.801669305940109      3.6759539462855364
   355   1      19.050956455979804      19.011668769042487      5.4531427563476731
   356   1      17.909077375371727       20.37302040330388      3.6351124574314015
   357   1      19.086526187057068      21.644111551403956      5.4104695035629069
   358   1      17.981238742158553      22.998212411615327      3.6161466016260224
   359   1      19.077125357029786      24.203118771466738       5.495492470161933