dump/Cu_560_5/steps_61 (written by ASE) 

1995 	 atoms 
1  atom types
0.0      25.526554800834361  xlo xhi
0.0              25.5265548  ylo yhi
0.0      36.100000000000001  zlo zhi


Atoms 

     1   1     0.26273425839165826      25.322913463632272      36.066794872388613
     2   1      1.4068246896083429      1.1821748620877419      1.7307044268024467
     3   1      25.339096601972816      2.2669455363629751      35.997971023765828
     4   1      1.3479565592916598      3.7301217890798943      1.7726692324265301
     5   1      25.456263787061314      4.9471706644849451    0.021033817395755244
     6   1      1.0513856286774457      6.3523336879657064      1.8624193407981224
     7   1      25.267000803354751      7.6649068679241354    0.013100174399448878
     8   1      1.0798690748755311       8.878572643816435      1.8142442354934021
     9   1      25.510842412191764      10.227535935343882     0.11554361531440235
    10   1      1.4308372195202881      11.434084707263958      1.8252008699308147
    11   1    0.067115572514371918      12.698835242588425     0.24068438662125113
    12   1      1.3657664820667521      14.014335588446595      1.9762380184791357
    13   1    0.047288275098835014      15.095317453083887    0.027566171049966216
    14   1      1.3005612138863212       16.59869283321266      1.7281992375529962
    15   1     0.10197185261593734      17.863059795261186      35.921346884436069
    16   1      1.1119551435164832       19.24957919489211      1.7853611939641705
    17   1      1.2456829390948774      21.783927670592529      1.6728880430793307
    18   1      0.1104967991064421      22.936735420668189       35.79994339895601
    19   1      1.3777477817865234      24.155882342357931      1.9385134452711441
    20   1      2.6815537980287956      25.443321074689038      36.097400006966161
    21   1      3.8083344620241357      1.3243966649946444      1.9247005738140843
    22   1      2.5250765621193287      2.6029079007779061     0.12444007093297405
    23   1      3.7918879537373273      3.8054161275169602       1.836274839245458
    24   1      2.4481224516305025       5.115099165664156       35.99839453722263
    25   1       3.765159365809259      6.1695986141390975      1.7487412234405268
    26   1      2.4685604422818015      7.7784361299312552    0.022962628259222132
    27   1      3.8132503933161299       8.738836097338913      1.7976000819038169
    28   1      2.4048073203296263      10.176991434773809      36.088349736667247
    29   1      3.9444827684678057      11.336430888068254       1.867939311907707
    30   1      2.7570992975422826      12.605766760577255     0.20188656381370715
    31   1      3.8675230052940588      14.112023868924926      1.9604819306092414
    32   1      2.4914436204230093      15.148639343772658     0.11497352305557346
    33   1      3.9327360649144159      16.580463148836085       1.693939850011464
    34   1      2.6904037736614126       17.83054876321739    0.076288918845364248
    35   1      3.8714675008549007      19.102441877158384       1.703181998340346
    36   1      2.2916068924212412      20.539585385364955       35.92145114664671
    37   1      3.7600863163191875      21.505088438054635      1.7278438302655097
    38   1      2.4488949636937165      23.044215260045132      36.062251847195277
    39   1      3.7340666741429915      24.079934933578549      1.7906443373205552
    40   1      5.0881277748360967      25.319554071038436    0.065334475227132455
    41   1      6.5828406649869038      1.1645086480744589      1.8133491998222779
    42   1      5.1536335527719972       2.504987072603055     0.29453473590284612
    43   1      6.3912049370937334      3.9530780337337483      1.8846621977837692
    44   1      5.0073579926793537      4.8363543647382068      36.046549918454801
    45   1      6.3824471507909326      6.4304802467413511      1.8418083862903694
    46   1      5.1289093483640391      7.4378530535326348      36.089910391984816
    47   1       6.248826896353636      8.9629322977553887      1.7480370931678848
    48   1      4.9442298036860386      10.282863741123958        36.0361016916343
    49   1      6.3311083725609425      11.568672700675812      1.9169248552258282
    50   1      5.0904586697582577      12.816093313453111      36.077243493768584
    51   1      6.5039803495763566      13.995406478577712      1.8430968431032275
    52   1      5.0249401216628167       15.35976638462027    0.043204077179075248
    53   1      6.5152920424164567      16.577560626843425      1.7597145777838472
    54   1      4.9601738454429247       17.88965216282805      35.988844421298197
    55   1      6.3598956221887857      19.223254504900936      1.7204810414655511
    56   1       5.091012907685732      20.350028160559329   0.0020588936748936245
    57   1      6.3895830376410325      21.795015407411363      2.0131532694786189
    58   1      4.9592288771724453      22.897121999088725     0.11775744311690897
    59   1      6.3411600060681881      24.205220837436112      1.9941762441287665
    60   1      7.5546132158011323      25.511769420338741     0.13710249848481917
    61   1      8.9258424996519086      1.4816868584753946      1.7332435425724284
    62   1      7.4634359804363086      2.4446645845917399    0.067948492923665116
    63   1         8.8816487052671      3.8801162236427151      1.7069798449355187
    64   1      7.5937314339042006      5.0345165191013415      36.049555182935414
    65   1      8.9007500252891738      6.3797415197866618      1.7471597071196932
    66   1       7.595931956196611      7.8364063809975217    0.046238717617313879
    67   1      8.9034678383766792      8.9731838894905955      1.8235595282564085
    68   1      7.5068347950478236      10.348006130053086      35.987865008851735
    69   1      8.8907865814975704      11.591398873257726      1.5544810718398241
    70   1      7.6315222612011722      12.877158853684621      35.942047863269678
    71   1      8.9949888602773971      14.121347929683321      1.7233809268964038
    72   1       7.512234081906767      15.181989841934723      35.780945687047442
    73   1      8.9470560008371844       16.64786593219079      1.6593311942475673
    74   1      7.4449030258460605      17.873026938869224      36.004871067333809
    75   1      8.8907437237272173      19.209986389351357        1.88854816014474
    76   1      7.7093317204855998      20.352558235361165    0.030770731849463571
    77   1      9.1858884256907949      21.786469503002571      2.0507975165010279
    78   1      7.6296559157357562      22.925092699327429     0.17738922122722434
    79   1      8.8899536767604843      24.320649403013395      1.8826793827286696
    80   1      10.113073444617772    0.082164812725035605      36.082137410854493
    81   1      11.444060516801649      1.3197733373299823       1.852040463070012
    82   1      10.243740397150283      2.4567360089748553      36.047168469528238
    83   1      11.622403690771282      3.8001167692261726      1.8789834014788775
    84   1      10.406331401684987      4.9844967519331487      35.969249098510019
    85   1      11.508844133021601      6.3452942705500801      1.7205960392413555
    86   1      10.103903499729585      7.6403533660139136    0.014228319936569282
    87   1      11.494765054465555      8.9250923269171114      1.7295318797198891
    88   1      10.038824493918872      10.221602717213511    0.068371979457606355
    89   1       11.57622534037043      11.658489611387843      1.9240210053096358
    90   1      10.448002705235639      12.721430502356114      35.906448239340051
    91   1      11.517124070365638      14.175500522756117       1.690901854635753
    92   1      10.109697288570697      15.445287842189545      0.0351074843434162
    93   1      11.472270636233169      16.685833567144726        1.70645987607728
    94   1      10.181513367881321      17.948221085892445      36.034292757287325
    95   1      11.539560712025871      19.087881279422191       1.964367735052849
    96   1      10.440488779890694      20.517040141952457    0.029463021837113943
    97   1      11.427709689809067      21.732859203236231      1.7117860175264128
    98   1      10.153870669107272      23.015117334184286      36.098696530297403
    99   1      11.495789031608142      24.315427703899672      1.6366993221286632
   100   1      12.805385205618141      25.407513541255522      36.022767519119604
   101   1      14.028681158969603      1.1584792376191795      1.6793582240593412
   102   1       12.75678823980925      2.4402498574221312      35.986594317220799
   103   1      13.995477191377171      3.8317062341544292      1.7323260445253728
   104   1      12.768240772550442      5.1836511944077328       36.00855871763018
   105   1       14.08988509553995      6.3964871528620275      1.5208524685026312
   106   1      12.780843208934197       7.772793878663883      36.046421987561892
   107   1      14.037971802153292      8.8947450798299261      1.7698777708077396
   108   1      12.635233949367986      10.314988290310334    0.029341893729701959
   109   1      14.097368022015308      11.500111489057327      1.7329343032327966
   110   1      12.872451658830661      12.995327367849137      36.093697857910271
   111   1      14.112672993439205      13.990037115594145      1.8541061591425667
   112   1      13.112344656058704       15.47949462105101     0.02919772083425869
   113   1      14.018888175294226      16.570094894317748      1.9081123378149174
   114   1      12.618814860135952      17.995530631599468      35.981613314043393
   115   1      14.041550524384407       19.27673316026787      1.7648811045534663
   116   1      12.847179030576738      20.503932186985274      35.997952941419449
   117   1      14.108636537843985      21.730018847564761      1.7395056459521712
   118   1      12.652901422426087      22.778575773941277      36.059709114882558
   119   1      14.010879994124716      24.142389367207475      1.8256794475109914
   120   1      15.183504899128488      25.517826460955789      36.078349600673462
   121   1      16.500172136458357      1.2153187754113111      1.8789250490151754
   122   1      15.370454663167441       2.396395802050785      36.070083992505381
   123   1      16.699764695997878      3.7535418205609039        1.71236953149279
   124   1       15.36638615883988      4.9470702506447548      35.964901592199993
   125   1      16.781738227286635      6.4105581481637604      1.7756370521882447
   126   1      15.541076434500059      7.5436850122957795    0.046800241691676146
   127   1      16.554441244553189      9.1271296996907978      1.6058410881453482
   128   1      15.327669847309195      10.352008463363681      36.006328494208866
   129   1      16.644074728890381      11.613737247095846      1.7577153155276297
   130   1      15.512582142834761      12.766097830162867   0.0047471090845533489
   131   1      16.581240107272077      14.111374584795787      1.7507388252004958
   132   1      15.410519776389519      15.507652903260164      36.064727337308099
   133   1      16.559765114906096      16.751228838767464      1.9708911147835682
   134   1      15.310269709053104      17.883752709434233     0.11054282486343261
   135   1      16.609697297486456      19.083577023643439      1.8825401987298744
   136   1      15.333481995367709      20.426440242088347      35.907563992019007
   137   1      16.594723595467222      21.653444034597186        1.64075214961905
   138   1       15.45757009893474      22.820803159599215      35.838218062273235
   139   1      16.594272722910301      24.143219515845782      1.8005655931286015
   140   1      17.974553421988144      25.347649111109295   0.0043865075807616432
   141   1       19.03898064453896      1.3475987189799512       1.838379424333549
   142   1      17.757162681245092      2.4589471610640006     0.12230984452327204
   143   1      19.028002935874397      3.7614891911083324      1.7802969279612613
   144   1      17.931692982639209      5.1822944295921598      35.961755691347086
   145   1      19.194816027140931       6.335388545333803      1.8784748204906352
   146   1       17.92830875852459      7.7003072655781262    0.015491617605607659
   147   1      19.107465729041465      9.1029643700915042      1.7782331157995699
   148   1      17.898159148473418      10.275295805448525      36.035629123840259
   149   1      19.118958922261065      11.539938548568287      1.8613992792909473
   150   1      17.891415947556577      12.861046176009868      35.967191966961074
   151   1      19.127595685057845      14.088814603508787      2.0296058787606519
   152   1      17.961884234912166      15.439401307728016     0.13957466824742834
   153   1      19.086147925416174      16.642213612481395      1.9488777516157267
   154   1      17.617685228974509      17.767344258710789      35.976457503186474
   155   1      19.012855002674371      19.020164502919751      1.9194807075438249
   156   1      17.721896710383405      20.280359689954924      36.011440997314978
   157   1       19.30922554293009      21.521049126878072      1.8173831242868592
   158   1      18.130835449073125      22.754030696404445    0.036386635310009442
   159   1      19.180605813698332      24.195803824470072      1.7245148927335989
   160   1      20.383959942016364       25.44643344870326      35.911478137457813
   161   1      21.710302605091805      1.2962007047150648      1.6313493840459494
   162   1      20.279842239639187      2.4759406266769384   0.0082568980783776277
   163   1      21.650568938542555       3.701236562186093      1.7451404165646311
   164   1       20.40110316862793      5.2024070480716453    0.026612263911306392
   165   1      21.518161368426572      6.3509739590133538      1.8165167323494873
   166   1      20.474568589714533      7.7860866923218461   0.0058764653994217136
   167   1      21.663885599691479      9.0807550810100821      1.8263148037180259
   168   1      20.381745758506689      10.438049401138006    0.066793904691167139
   169   1      21.973593329690772      11.401437236182947      1.9783081784771515
   170   1      20.391289493591565       12.82668331342361     0.11776376033668598
   171   1      21.771888252413131      13.806714393232848      1.8916473283755861
   172   1      20.527516772420064      15.404235107785395    0.099173803720282352
   173   1      21.847367541534986      16.712721086106313       1.908013897833281
   174   1      20.255700263371395      17.861284854941125     0.21193791600542236
   175   1      21.589006784794279      19.095092178997906      1.8607003545085614
   176   1      20.203519871608449       20.36646778852807      36.053507120697645
   177   1      21.622176694335835      21.701297281543692      1.7497550225011771
   178   1      20.461104501916683      23.012785318705898      35.971213933734923
   179   1      21.731376523557152      24.118331593903662      1.9373511356315478
   180   1      23.100366593144287      25.419527153822763      36.052054076392565
   181   1      24.197910569606975      1.2658858446357759      1.7301720600441632
   182   1      22.915609634841889      2.4117507501875601      36.051802894485569
   183   1      24.344404983847312      3.6990627554608508      1.6456559911881186
   184   1      23.029047746926739      5.1452274319298406     0.18301071969356142
   185   1      24.114513069431553      6.4234226603279234       1.934880323548658
   186   1       22.87983439851731      7.6568611979318568     0.04430330659366738
   187   1      24.234860019619724      8.8878828202289313       1.943739841755495
   188   1      23.011282609275476      10.199090758187216    0.093459893128772384
   189   1      24.298478420018885      11.390695187390579        1.82393959258044
   190   1      22.918485394863993      12.830906880424436    0.081539541272138666
   191   1      24.215785752334597      13.947015939732498       1.924727734077613
   192   1       22.87974586464377      15.252460652460853   0.0071127766708059467
   193   1      24.366140530420338      16.518411888781149      1.6362020861554571
   194   1      22.808497487139618      17.893947700559245      36.088571075209472
   195   1      24.181519089086329      19.235916471929499      1.7721091851327166
   196   1      22.953386063715183      20.397729628648555      36.044454998971773
   197   1      24.204241563349683      21.835483710204983      1.5952438910441846
   198   1      22.776941968855077      22.904525670709575   0.0011117732890852498
   199   1      24.408738656401898      24.264464055922577      1.5567156964903912
   200   1      0.1373951449979503      25.508843550289711      3.4005216604496935
   201   1      1.2870260872967325      1.3615904887408419      5.2601276656653768
   202   1      25.446730205382707        2.54442621046043      3.6698078172755881
   203   1      1.3650827760007607      3.7801732026541837      5.5791109153087364
   204   1    0.055801456804408851      4.9982433744804498      3.6358844426083707
   205   1      1.3160356922971124      6.3958900180709364      5.4970182433122741
   206   1      25.451302879677172      7.4474714590714317      3.7046428304997958
   207   1      1.2404581060723325      8.8487205163062725      5.3868324996611925
   208   1     0.23137685011457151       10.14577675832138      3.7022832269065979
   209   1      1.3031302880196014      11.585197915157966      5.3944456209887495
   210   1    0.076219502430943636      12.754719867169941      3.6168500386308713
   211   1      1.3425991765427008      13.971567533410736      5.3806901688555611
   212   1    0.014776821553954145      15.440449074134685      3.6005280868032967
   213   1      1.3232244516081171       16.72258005199776      5.3310918437276085
   214   1     0.16603156843637534      17.867002790589666      3.5003430903934598
   215   1      1.1436230627393069      19.257293875778441      5.3545548140949624
   216   1       25.46639234608983      20.460891426006128      3.5758710489164631
   217   1      1.2298051314247207      21.824696818349683      5.4631835140319707
   218   1      25.307791142057809      23.017735253484567      3.4947649445397939
   219   1      1.4302172028292979      24.290727399492443      5.2846701228673698
   220   1      2.6120309066714555      25.520712883629983      3.6010884241868442
   221   1      3.7601280931546892      1.2419399417263475      5.3358849995455877
   222   1      2.6365581021121183      2.5717368808921153      3.5705148983463673
   223   1      3.9022204034258614      3.8876625690407511      5.3221179143350463
   224   1      2.6096982043629722      5.0248156711816767      3.5098786242801343
   225   1      3.6969593715378104      6.3322433915403558      5.4222255745278138
   226   1      2.3788708547167996      7.6427983769556294      3.5104854301667152
   227   1      3.8987728331945508      8.8325612357726797        5.65519807009637
   228   1      2.6552543642467663      10.153801821221926      3.6003762126313408
   229   1      3.7053460477674522      11.569853473025956      5.4493597586220934
   230   1      2.5369575675162475      12.781671961799111      3.6163559076844871
   231   1       3.862702847029595      14.116955824182449      5.4033665508639093
   232   1      2.5988654307283179      15.419042765642354      3.5958790082881937
   233   1      3.8119406570702297      16.516819119970631       5.366596696646095
   234   1      2.6282318087155661      17.966012876449511       3.506660651417711
   235   1      3.8004972493722646      19.062863489452976       5.430144010067476
   236   1      2.5577992162882315      20.499927579293157      3.7078026815814917
   237   1       3.626742436793307      21.557646318131617      5.4163843308438109
   238   1      2.5034102560176437      22.776409331337362      3.7018897402552695
   239   1      3.8282624946771535      24.297363269018227      5.4102273550354143
   240   1      5.1670486582526607      25.448408257221825      3.6105817907439492
   241   1       6.358942884017285      1.2847449337984549      5.3407346463411693
   242   1      5.1760546167412027      2.5676429413427231      3.6141374105137434
   243   1      6.3948120310823642       3.903447295069169       5.274989508041962
   244   1      5.0181760428713273      5.0923193187199072      3.6164831562121149
   245   1      6.2444605786570815      6.3826471332544248      5.4019118734369123
   246   1      5.0387616531074633       7.430702306536884      3.7411434658719624
   247   1      6.5193565566833129      9.0732052006772275      5.5330387447042364
   248   1      5.1278039422624744      10.179767490430223      3.8535190135180035
   249   1      6.2478205319935167      11.598308149367568      5.4855656555913708
   250   1      5.0376278701930524      12.825370111787247      3.6030621461191243
   251   1      6.2766650905540455      14.066580921656398      5.4631951531053886
   252   1      5.3251317107784759      15.377196371684079      3.4641693061810557
   253   1      6.6076164996636244      16.533901459410004      5.4204342674590347
   254   1      5.0786534012518612       17.91733388848445       3.587166964889366
   255   1      6.4118785918161318       18.97556129839711       5.489161469195639
   256   1      5.0341313039034343      20.341998569671397      3.6267913549179585
   257   1      6.2429610372075537      21.563253640035853      5.3418582814082907
   258   1      4.8902256158347601      22.833632425930588      3.6294634122599696
   259   1      6.3614152196020308      24.070033387934451       5.259541251712764
   260   1      7.7034923157294495     0.13350934684616225      3.6972500270465822
   261   1      9.1713281497547872       1.385721781752695       5.382442659904271
   262   1      7.6055197663039111      2.5453260065570524      3.5660187665468484
   263   1      9.1062026058615455      3.6570270391595492      5.4551420105188262
   264   1      7.7220704010524779      5.2637902816739306      3.5562816994782702
   265   1      8.8982226163182627      6.1781293787156342      5.4674313227754014
   266   1      7.4002738716333489       7.917096583217381      3.6924091774357408
   267   1      8.9899124836613016      9.1252968822779792      5.4168590476034693
   268   1      7.6318486686495195      10.322629030873706      3.6492610719472713
   269   1      8.8977763680701525      11.671253722071567       5.524267248858127
   270   1      7.7660630585191486      12.751085262706768      3.6767049866043728
   271   1      9.0508383875017824      14.162431750670995      5.4287123763203757
   272   1      7.8554810540921407      15.414343889757058      3.5810036040492359
   273   1        9.10963664594302      16.532022304799195      5.5252962161690107
   274   1      7.7071168987665732      17.928328815765379      3.5110489144593759
   275   1      9.0409629519848576      19.103164255807059      5.3860639040356366
   276   1      7.7552573615109743      20.302466119995131      3.7346638245839641
   277   1      8.7709977063720626        21.7865552555268      5.3186001781514545
   278   1      7.6515207233814397      22.726289675298098      3.5301497177665184
   279   1      9.0205102295272024      24.384799930557669      5.5271466215468807
   280   1      10.239016233837638    0.025970771914394394      3.6283983113817895
   281   1      11.586113618345244      1.1984042004677735      5.4379020781955623
   282   1       10.32525795751747      2.5442619247769982      3.4928966106821804
   283   1      11.454884549227636      3.6408955713502862      5.2534250345033762
   284   1      10.212922540556217      5.1192394868300628      3.6956524594302471
   285   1      11.540398128353903       6.306603215767562      5.3157689495650482
   286   1      10.000164316342726      7.6930431848377268      3.7743173968240686
   287   1      11.581083982582554      9.0589202838485949      5.2474007998271386
   288   1      10.141798251322928      10.477610191453282      3.5763640417891356
   289   1      11.389369617637374      11.454668742406355      5.6025000118950761
   290   1      10.522326785658743      12.810326747919021      3.7663781906615501
   291   1      11.639839303798668      13.862160855373924      5.5519601361058974
   292   1       10.40743564398122      15.374284808522788      3.6426121375801666
   293   1      11.534254665073458      16.667499485036945      5.4909095858127701
   294   1      10.383302642558982      17.917961901011363      3.6670014027237992
   295   1      11.493862282879334      19.175134152552328      5.4746251165807811
   296   1      10.253107389361963      20.524164070631723      3.4399166705696307
   297   1      11.389683119862633      21.685410649150668       5.511739742016486
   298   1      10.263886207760983      23.014023343259758      3.8547319777265767
   299   1      11.422064683249522      24.326501683545498      5.4502574804602437
   300   1      12.753565529535816      25.461686215784905      3.5523478447478065
   301   1      14.089309871100207      1.2269669192941457      5.4921369831091686
   302   1      12.919548937728472      2.3777114032837372      3.4535480108035483
   303   1      13.888454641869192      3.8478063468434094      5.3826488985047618
   304   1      12.690858930988554       5.115536084969289      3.4933005045546328
   305   1      14.105103272212082      6.3682006777258371       5.175398829180808
   306   1      12.724872249133158      7.5461507508971231      3.5907777601635429
   307   1      14.061356583675551         9.0901405592461      5.5145190353182887
   308   1      12.920567709180549      10.337127681972637      3.4041182998840429
   309   1      14.021712928935409      11.693865212095984      5.5596985621879211
   310   1      12.948429320090757      12.812056891811816       3.617497846743734
   311   1       14.26939053491729      14.233376891420187      5.4245248366241983
   312   1      12.875318486356576      15.466236360925475       3.648148724101306
   313   1      14.091816975333511      16.691322825341199      5.4256406537148916
   314   1      12.818415656502058      18.085646835688372      3.6758355448648699
   315   1      14.109134393370951      19.244013002057638      5.6508494433971723
   316   1      12.771930765183424       20.44979236410397      3.4943933987694109
   317   1       14.12691902854764      21.744218164057578      5.3704256630657508
   318   1      12.666614221378198      23.112846543715509      3.5563517945945482
   319   1      14.016745472692357      24.401563361190902      5.5214878156682445
   320   1      15.190546014138045      25.454777228485408      3.5944514792597717
   321   1      16.543443063840094       1.329636913498887      5.2611911322519749
   322   1      15.320400727657882      2.5805496455478854      3.3445081804858101
   323   1      16.582748042260917      3.7662442416317687       5.303030686634906
   324   1      15.460033348061717      5.1613347197655646      3.3260894450604606
   325   1      16.469686137693927      6.5541646214843059      5.1978766570753079
   326   1       15.32108709030029      7.9594753637239783      3.6491223264135524
   327   1      16.809887007612872      9.1131428729429018      5.4335011018131105
   328   1      15.291717393353325      10.282267724155453      3.5976124495650521
   329   1      16.634861782668249      11.548197003096933      5.5358364860970575
   330   1      15.441491366093299      12.803267233548473      3.5913676039369555
   331   1      16.620641527578172      13.916434171072828      5.4293593307569008
   332   1      15.455695273522011       15.31369873539766      3.6506676382195948
   333   1      16.632883511312922        16.7067203193639      5.5670530261311013
   334   1      15.366517942284403      17.907236646305989      3.7140422354389711
   335   1      16.618875153178109      19.207246640821609      5.4327558717680473
   336   1      15.435992735286792      20.526339553040302      3.4759435227036306
   337   1      16.537368413381575       21.70364121088739       5.427104749362365
   338   1      15.229957250162544       22.90205886229397       3.652149622368845
   339   1       16.61752258018419      24.462736783012666      5.4923310481722769
   340   1      17.890026127867859      25.521413934181119      3.6830171552912487
   341   1      19.215426582381728      1.3075097292889808      5.4000264280524402
   342   1      17.744709623644223      2.7237183776755702      3.5654710282132451
   343   1      19.120559803810195      3.7851081133627145      5.3071473868592189
   344   1      17.900583242807105      5.1904961757464996      3.6893235129245547
   345   1      19.191192332076639      6.3828380386362973      5.4733402030217988
   346   1      17.851105287098832      7.7703470791003628      3.5826859831138118
   347   1      19.312553892508738      8.8094383046455427      5.3040903161103383
   348   1      17.755283173848557      10.372745898325958      3.5903384152511775
   349   1      19.113276042716024      11.527627146444738      5.2592462360741488
   350   1      17.882181542417584      12.705814502954947      3.5516256436366702
   351   1      19.050093099835884      14.000849420810383      5.3521319785155317
   352   1      17.844111608426584      15.363074684663085      3.6195419109778015
   353   1      19.348395589864822      16.521737646501492      5.5153143742765005
   354   1      17.985601345046426      17.842376109057746      3.7372674016273777
   355   1      19.110298049748973      19.139682201074955      5.4154317072156513
   356   1      17.901930995201614      20.476318501429272       3.495185608667192
   357   1      19.068401894461914      21.497325510475935      5.3544205244878507
   358   1      17.781500698701439      22.900405168588282      3.6179424524161745
   359   1      19.070736964995017      24.132754713660194      5.3379949305250376