dump/Cu_560_5/steps_1 (written by ASE) 

1995 	 atoms 
1  atom types
0.0      25.526554800834361  xlo xhi
0.0              25.5265548  ylo yhi
0.0      36.100000000000001  zlo zhi


Atoms 

     1   1      25.428956175132416      25.257822603762058       36.07796020184427
     2   1      1.3860867534584196      1.2843994730244259      1.7123548350985289
     3   1      25.478140521246903       2.558214628320461      35.982535156268682
     4   1      1.2307636518076122      3.6949019503161735      1.7554041293530533
     5   1      25.423293215551627        5.08930152476972      36.073881243038237
     6   1      1.0985068242560576       6.339148594254711      1.6516167356361751
     7   1      25.525455477015893      7.6004459960079469     0.14810998594880412
     8   1      1.1601926477961815      8.9990977093411555      1.7471271664740136
     9   1      25.369146721967748      10.284896854222216      35.910281061753786
    10   1       1.048272787898638      11.368474789000675      1.6643718599280637
    11   1    0.017959541718661366      12.717807627490732      35.795868404098186
    12   1      1.1401466989660649      13.978252356628023      1.5781249550171101
    13   1       25.36769258183368      15.346534038795934    0.018846971148070681
    14   1      1.2298790291632531      16.552899629940249      1.6974104151982152
    15   1    0.084371520344248982      17.878227624000019      35.987081703497715
    16   1      1.4891509016775013      19.014497841364729       1.787148732447873
    17   1      1.2226618118056796      21.641540916043599      1.8178621450641332
    18   1      25.453772556761482      22.670534039775841      36.075216312280631
    19   1      1.0729193307963012      24.054612211732653       1.885826223850221
    20   1      2.4667125367683451      25.433262021682747      35.939207440246768
    21   1      3.7824242275217053      1.1440470983983277      1.6820879439215772
    22   1      2.4360138879999909      2.6150021529582927       36.05880209515805
    23   1      3.7293134348277088      3.5868439925077382      1.7211201427617315
    24   1      2.7081382683194213      5.0026051703823677    0.040591463321016069
    25   1      3.7635054998620401      6.0827768923168692      1.9589873296598173
    26   1      2.3533092397210411      7.5943262337061617      35.989305461931316
    27   1      3.5948559109400855       8.744026039511013      1.5463853526182108
    28   1      2.3821113378430998      10.244754435196269      36.066929842052474
    29   1      3.6039923817129371      11.377072048835334      1.8603901154073244
    30   1      2.7013969305776229      12.521163975388873      36.009067313760475
    31   1      3.6990139287410244      13.996359679539363       1.676701358196748
    32   1      2.5619418339347995      15.239958047264853      36.019174000754987
    33   1      4.0837734961301404       16.69878497183884      1.6917507925472488
    34   1      2.6632566783697493      17.871938410250447      36.078750243704704
    35   1      3.8234104021684452      19.254041532326596      1.7733606859956474
    36   1       2.550687509580003      20.354158427642517      35.935521670179888
    37   1      3.8362994770818797      21.745032050383315      1.7777873445641732
    38   1      2.6216126402867164       22.86391966025484      35.997893605397103
    39   1       3.638422273146579      24.218866054672255      1.7257368068238637
    40   1      5.0566803320788649      25.459093445046623       35.88284349208886
    41   1      6.2202762966408081      1.3328121771385175      1.8310632234206414
    42   1      5.1398828387200624      2.4346189950654118    0.040191920006611918
    43   1      6.3109484431693872      3.8031761992719684      1.9056046690437356
    44   1       4.959959586992853      5.0273503945707017    0.036366493262073481
    45   1      6.0880559862157808      6.4445069478097619      1.8472619940550334
    46   1       4.868858703761207      7.5245151647600084     0.16024282017474448
    47   1      6.0822323090812898      8.9514924420217667      1.7212337296071825
    48   1      4.8423003987134896      10.155900926133562       36.03216587266558
    49   1      6.2096321385734896      11.571398861363315      1.6540266089368756
    50   1       5.072481206068673      12.535502825403459      36.043992265046576
    51   1      6.2060036387897082      14.254635739669657      1.7626474755973487
    52   1      5.0394774054564904      15.114161432546148       35.93342392610284
    53   1      6.3773742247823764      16.647084770298161      1.8760363938324527
    54   1      5.2795951658189582      17.802158400173418      35.989243609290327
    55   1      6.3939090231893712      19.233313850929878      1.7287638826478429
    56   1      5.1613029891457556      20.310474754476488      36.042340849284493
    57   1      6.4382427517477696      21.705824523135611      1.6597657941080792
    58   1      5.0935083397437948      22.950475966874343      35.949192174898243
    59   1      6.1360585346801022      24.133569922407666      1.5827999554384748
    60   1      7.5437399585176514      0.1789405034059002      35.931195812032371
    61   1      8.8321901178741182      1.1989564258264325      1.7353389067402887
    62   1      7.5570808910919025      2.5327010553839404    0.086596925902290581
    63   1       8.758503835979548      3.8385069711342457      1.8872178147360292
    64   1      7.5337460483186183      5.1253996888438857      36.031013835651294
    65   1       9.011398196106347      6.2579979709903579      1.7778562223812968
    66   1      7.5508555062265525      7.7659232498629445    0.024234968353198397
    67   1      8.9646573209958405      8.9580596391114948      1.8520642023570757
    68   1      7.4447121817028998      10.152024155175811      35.985753047882341
    69   1      8.6928002417364638      11.507626953849432      1.8619882561646126
    70   1      7.6816019837142706      12.661054579887759      36.085926684414162
    71   1      8.8151748045351415      13.956565168000427      1.8024357162197133
    72   1      7.6430883018235107      15.346539879732861      36.015681625328874
    73   1      8.9308241749236412      16.616942613775141      1.8733636601643304
    74   1      7.7979671184372217      18.026778875270249     0.20592845851665531
    75   1      9.0007906149532495      19.356291797701903      1.8494557197055097
    76   1      7.6898862280848981      20.481344886104836   0.0080836456722863555
    77   1      8.8133969680090321      21.825947627207601      1.8520174048862157
    78   1      7.5543133105885438      23.039237969664601      35.906416769520433
    79   1      8.6582403285085885      24.170456464010375      1.5743139976775526
    80   1      10.161174063402731       25.49901747591883    0.061676982794381392
    81   1      11.466233621585673      1.3499781495759797      1.8013550246075278
    82   1      10.024929790133745      2.5700954644123892    0.029176813996457444
    83   1      11.365724636408835       3.919051768572074      1.9052008201439559
    84   1      10.138176378976445      5.0872062659837658      36.084835637717184
    85   1      11.418156035626629      6.3439221047309093       1.763709803182713
    86   1      10.209740858617156      7.6182406591484852     0.05457655335446817
    87   1      11.458601722617853      8.9106044619649154      1.8485044180966053
    88   1      10.211819178481536      10.225335903364567      36.029353841159278
    89   1      11.320009410772414      11.335346404138036      1.8436988595275468
    90   1      10.138091978016186      12.621278331610467     0.18885690477343359
    91   1      11.464858681080162      13.982985227662644      1.9020679733578831
    92   1      10.263598376437599      15.167209958118002      36.082763179555336
    93   1      11.626226864401296      16.662304443139167       1.806774462298256
    94   1      10.228902886590012       17.62256699654537      35.928346965765215
    95   1      11.432916134515557      19.084149550976974      1.8798524083033388
    96   1      10.188063631786934      20.483212541353566    0.029311207933790242
    97   1      11.220445833669221      21.685677257509905      2.0109970554560954
    98   1      10.175285682167898      22.931104741470406    0.039341156064301663
    99   1      11.267073202874872      24.233595139722418      1.9342628428498294
   100   1      12.582234126256887    0.032416867787445569     0.14386503595777642
   101   1      13.861933196974134      1.1809500036700489      1.8088255651247656
   102   1      12.676717155613808       2.596727886777205    0.030397298158516137
   103   1      14.003305591624802      3.7252225019676262      1.7620721623142686
   104   1      12.780645724547071      5.0614658270675621      35.946389736200622
   105   1      14.156306646699374      6.2982350619630409      1.8469452598297167
   106   1      12.789839100637803        7.56944546863956     0.17517436806587072
   107   1      14.073721754300918      8.8193495694545252      1.8459102196855712
   108   1       12.81418803703796      10.086138193155021     0.12832267353005583
   109   1      13.941563881833195      11.684235386197193      1.9121743893036085
   110   1      12.746727664507691      12.822188050279729     0.21169898759179667
   111   1      14.081499282639118      14.136605108155955      1.8791893116327849
   112   1      13.088750251367717      15.497675462161327    0.095415701446325038
   113   1      14.049809703794809      16.501035222632328      2.0907859721439097
   114   1      12.790330436218806      18.080419432282884      36.085993770291132
   115   1      14.121508701036511      19.134310349278614       1.908183154472112
   116   1      12.586788694505904      20.523648491769301      36.057309479601443
   117   1      13.852563203398381      21.681574052151287      1.9991261690520907
   118   1      12.638530543081648      23.041890547028551     0.14946876471536835
   119   1      13.889733909725599      24.189548167938479      2.0615971080612328
   120   1      15.103076255352928      25.525715815398705    0.014990361761795164
   121   1      16.436751032641201      1.2058400015874817      1.8427153008987505
   122   1      15.220664224696845      2.5145006024341816     0.26894813417226265
   123   1      16.467875173680014      3.9129713724331667      2.0007669807236894
   124   1      15.251086311053404      4.9660374235591194     0.14655157279675002
   125   1      16.420568206654391       6.467854982590068      1.7402241606873425
   126   1      15.279784688537982      7.8259109044941368      36.063137300077862
   127   1      16.696634950756149      8.9999492825740006      1.8767018509280111
   128   1      15.338130668221783      10.222019390695204      36.018559718387529
   129   1      16.329367559887583      11.428276971271346      1.8095091362585218
   130   1      15.184033269364308      12.828057034497574      36.075439597247275
   131   1      16.582362920953337      13.955311274823796      1.8138717492245424
   132   1      15.334912139723155      15.267673335078518   0.0045480210895220965
   133   1      16.633902972189407      16.584982984053052      1.9481130588817677
   134   1      15.486733402258185      17.959941301313602     0.11609070586998786
   135   1      16.697392485004741      19.069923563640252      1.8821292903601381
   136   1       15.18351460627605      20.328804572359733    0.036720775576122751
   137   1      16.552703153639516      21.548325787876628       1.985348877573289
   138   1       15.11098995897127      22.960843165740311     0.27714944640241579
   139   1      16.498922070256832       24.04497113588415      1.8693542634367866
   140   1      17.747596178075174      25.387572629898866     0.16599863507258322
   141   1      19.127455117144031      1.3650995862335642      1.6753419525584259
   142   1      17.623607473724935      2.4746180070777308    0.092219068481688135
   143   1       18.96811070340712      4.0526770923405984      1.7767775715795209
   144   1      17.811457515400761      4.9932081648406124      36.054372383264031
   145   1        18.8350615583931      6.5718719262169696      1.7851080039194718
   146   1      18.006118495577145      7.7087045541166335      35.986973270785931
   147   1      19.161659140732045      9.1536420399546863      1.7790288974172213
   148   1      17.699463151782393      10.229200308302845      36.022264165666762
   149   1       18.91830989141349      11.432241743599837      1.7990246584340979
   150   1       17.62144217900283       12.75496648886023      35.953343292851933
   151   1      18.914364364786344      14.034115497007253      1.6638452688501402
   152   1      17.805680301897137      15.345249282364636     0.04205971951517988
   153   1      19.067236067348134      16.548504681543729      1.7805153219960053
   154   1      17.973329767818448      17.985163006691771      36.018115933698205
   155   1      19.328029828782054      19.038470612064515      1.8683461134780048
   156   1      17.962884924793077      20.454832980292753      36.041738589378596
   157   1      19.106125006837118      21.783701252675204      1.7941514820091342
   158   1      17.807642136690223      22.982565511854101     0.18233037099247451
   159   1      19.124730971343968      24.161863339941725       1.919264365392338
   160   1      20.318476150589863      25.453445401798156      0.2044056085940496
   161   1      21.828294633425866      1.4011797619324859      1.9298472991222853
   162   1      20.515042326949928      2.4598129332086374      36.060661575965973
   163   1      21.594877561958143      3.7895753540987696      1.7965666559945714
   164   1      20.363026992755096      5.1690978143910842     0.15565748803259125
   165   1      21.462353923705958       6.647237285842027      1.8459795468436253
   166   1      20.437604638351733      7.6882175399602621      36.032686138709529
   167   1      21.787054041966222      9.0261070919880577      1.7543686865438544
   168   1       20.20159708710646      10.293690129515973      35.951115730460053
   169   1      21.452725654405263      11.419524084416501      1.8547827058758555
   170   1      20.405289848493144      12.576727312660648      36.048169805731277
   171   1      21.605650123161297      13.992604697162289      1.7803406162232238
   172   1      20.278445691867773      15.444611243600688    0.055315637373848821
   173   1       21.64563382887625      16.611716287203919      1.8640875369358452
   174   1      20.420879281448666      17.851582454674499      35.972982926643063
   175   1      21.876574144007737      19.065451943158472      1.7908362421523174
   176   1      20.350238264967018      20.445275881542212      36.075426411196858
   177   1      21.697666297440726      21.945485748349551      1.7738367178796703
   178   1      20.522738959029294      23.042177557076528     0.10504403662486098
   179   1      21.747612681620176      24.568008697759055      1.8820374179726849
   180   1      22.948963553686802      25.487239067913279      35.972463903122033
   181   1      24.355002304702108      1.2467666285962793      1.8266786286969239
   182   1      22.999940732375507      2.7152851716547999    0.084872768514787839
   183   1      24.376761668863111      3.9916959617173813      1.7738340904997143
   184   1      22.764428357270805      5.2364323762625151    0.050780122889534741
   185   1      24.113161044631717      6.3672481722190648      1.8532612795119003
   186   1      22.979857595880858      7.7775639604747848    0.026370827128266681
   187   1       24.26058714206944      8.9295017312120528      1.9047406550148149
   188   1      22.769016656665372      10.360260644703352      35.992992889863721
   189   1      24.209992093498737       11.34319388539361      1.7050884695074839
   190   1       22.80905268338233      12.756781067121489     0.19245842432540047
   191   1      24.290476414382052      13.791852778753089      1.7010904929327479
   192   1      22.986159780538351      15.128609281398973      36.058046128796789
   193   1      24.345096863815108      16.618657527736261      1.8885700473522993
   194   1       22.93545004380924      17.739619876055404    0.099856702061561206
   195   1      24.497197130271552      19.066165013573119      1.7070886321077192
   196   1      22.906253742701495      20.446767478939659      36.087086412348278
   197   1      24.169561036057839      21.526861006628895      1.6295722273544373
   198   1      23.038271414336499      23.093421308558376      35.964076856993536
   199   1       24.14062376661694      24.123658096792351      1.8317074129120445
   200   1      25.461688298823141      25.514396126065737      3.6548685587711565
   201   1      1.2617817442994055      1.4075416414116992      5.3785892555862214
   202   1      25.486156878856022      2.4949652521397847      3.7845856713508508
   203   1      1.2838919753916294      3.8989629347134498      5.5847794178009433
   204   1      25.447371150009889      4.9698126317210596      3.6011952724820393
   205   1      1.0477192155292852      6.2682339706085362      5.4837527315409398
   206   1      25.517892500957181      7.6715907972368269      3.6057412475284325
   207   1      1.2692053082124304      8.7050464373748255      5.4903105274476234
   208   1      25.227229819193358      10.116453273626341      3.7051304114626862
   209   1      1.2733703863081711      11.569540824137787      5.5910900591448298
   210   1      25.498123791211764      12.562811502245644      3.5437387395909368
   211   1      1.3600381716954482      13.932611577758614      5.4825973935559835
   212   1    0.081001789874827965      15.078125000904359      3.3826357428144447
   213   1      1.1114208622509334       16.55158944903906       5.205160351751271
   214   1      25.477667860441674      17.806253999691641      3.6190912328209337
   215   1       1.285956956843519      19.227144609938421      5.1579166300910719
   216   1    0.053834912281197772      20.484331446120759      3.6753042215521949
   217   1      1.2586473938587774      21.928461156624479      5.4128790021105102
   218   1      25.277099133530502      22.855077084842222      3.5479990474537075
   219   1      1.2778353126176687      24.381602179648262      5.3030079193452355
   220   1      2.4965143013199369      25.395557090712774      3.5332825526548146
   221   1      3.7474249856016515      1.1974702154646868      5.3903592295417901
   222   1      2.7141323811843368      2.5108531197310482      3.6256482830505652
   223   1      3.8974738638810402      3.7384495793855619      5.6122306522548326
   224   1      2.3363838916226007      4.9659546506685412      3.4186682457247812
   225   1      3.7241084365787764      6.3042276324435038      5.3032690101459963
   226   1       2.425322332996267      7.3536960017745505      3.5467770747774936
   227   1      3.5236552143566215      8.9255899964730485      5.2945395471587551
   228   1      2.1557692405072224      10.099165628024959      3.6664771798358311
   229   1      3.7254503384335478      11.424496948700011      5.5635395900744218
   230   1      2.4228991691792268      12.799375232426911      3.5714748870271609
   231   1      3.7085108258472195      14.022067708890178      5.3328153739519557
   232   1      2.4100444777797092       15.36640701316721      3.3644801286743493
   233   1      3.8420049879855598      16.684548905142695      5.4188669387519308
   234   1       2.638015339841691      18.024039396217518      3.5617019777820134
   235   1      3.7858115368517535      19.208302536891502      5.4617033154225094
   236   1      2.6399829227559519      20.504464738020847      3.6143153401925532
   237   1      3.7749231756631922      21.816125900802305      5.3402812784836966
   238   1      2.4601998288649396      22.852734538778822      3.4060038709358897
   239   1      3.7156766230984046      24.239261220296164      5.5179848581865123
   240   1      4.9438102360413261     0.18368589813035197      3.7418378630415514
   241   1      6.3215790084465189      1.3257418764877353      5.5586310088503899
   242   1      5.1422045655328414      2.5246148972156597       3.671837213372132
   243   1      6.3864335734922761      3.8554640433285297      5.3716813127211962
   244   1      5.1875565824998517      4.9853358799877547      3.7360123508496348
   245   1      6.4441611120047524      6.2823708422372224      5.3772118057983205
   246   1      4.9037377422114918       7.628604015449608      3.3558561436455534
   247   1      6.3583876078699735      8.7909473156396505      5.4241234085863184
   248   1      4.9286770351119848       10.04558130645097      3.7516004465400266
   249   1      6.2941795825904601      11.313762438991896      5.4859943298612253
   250   1      5.0519793641205055      12.742471892103707      3.6553362766167825
   251   1      6.2696065335843718       14.20464513774451      5.3674653693315948
   252   1      4.8935435337209814      15.209622398034771      3.6173946817381992
   253   1      6.3481249798643411      16.647279102090419      5.3697539819708311
   254   1      5.2028860432133985      17.810340488505624      3.5989933657986728
   255   1      6.5484496253220135      19.205364111212837      5.4824824572923312
   256   1      5.1035525158525603      20.386457241278581       3.509594104301835
   257   1      6.2697501469180486      21.761281457887776      5.4746296871593625
   258   1      5.0943410783772194      23.234029809158567       3.533108777588144
   259   1      6.3505652276437745      24.219323398325184      5.4636722393108563
   260   1      7.6742051276837628      25.496784825892071      3.5802524609597755
   261   1      8.8736879313391164      1.3633797193693169      5.4534356162447892
   262   1      7.8078587416003105      2.5961680984730959       3.651204178965453
   263   1      8.8554481249455073      4.0161595814896884      5.4401445234532897
   264   1      7.8515724672059317      5.3200504453102431      3.6722001589543036
   265   1      9.1476582099081405      6.4768788418121677      5.3858077541505445
   266   1      7.6668665673034067      7.7178640646422449      3.6038739029998177
   267   1      8.8856747903853996      8.8039494472982316      5.5230472927986645
   268   1      7.5383243124443258      10.162628686607908      3.4982445922854248
   269   1      9.0052277685806601      11.584178068563533      5.4703152436877422
   270   1      7.4658633325345534      12.788659594253094      3.7728637162488616
   271   1      8.6933579933007543      14.057359939753708      5.3899019747207131
   272   1      7.6233161489084571      15.368820102108371       3.536495742921125
   273   1      8.9562721626340913      16.618021724561665      5.4516698022084533
   274   1      7.7534357501806799      17.909820495285604      3.7422653984004857
   275   1      9.0237642411172452      19.125174802536684      5.4642291496767248
   276   1      7.6806925309915615      20.362090338785777      3.7186180785855152
   277   1      8.8241316735373214      21.813058773226391      5.3456421999614081
   278   1      7.4672453803923631      22.833549306455993       3.614550457359007
   279   1      8.7245986047933286      24.305839750211714      5.4423945968895326
   280   1       10.04369149683377   0.0098577948629659344      3.5939666683393048
   281   1      11.462908875757787       1.319489495431768      5.3898266018533736
   282   1      10.171826504557949      2.5467176310405422      3.6570216981084323
   283   1      11.514679832357197      3.7929355675501242      5.4068829249271753
   284   1      10.239040685592405      5.1771373762852564      3.5593968065975665
   285   1      11.465748759103104      6.2465510012036152      5.4016313471656252
   286   1      10.236293078147487      7.7188189201807536      3.5820500306310459
   287   1      11.596983882898197      8.9783195006195591      5.5153147954099682
   288   1      10.125546057683168      10.305756556705139      3.6565183538672272
   289   1       11.50588310804007        11.5129644197812      5.3673056255823894
   290   1      9.9364471291399283      12.557131101234553      3.6180650708189206
   291   1      11.264722092089887      14.117599536233563      5.3821729459364747
   292   1      10.107776534296383      15.338252933282202      3.5832477841489108
   293   1      11.515399958877152      16.617950949222323      5.4527962551224807
   294   1      10.351358047753779      17.863157436629354      3.7207870889048786
   295   1      11.627609508960703      19.213929041528893      5.4652183955549569
   296   1      10.062751056527111      20.375492905340494      3.7674488202890264
   297   1      11.346222380199185       21.62807928767586      5.5526868932424946
   298   1      10.085973645483572      22.953918955285403      3.8470280595306221
   299   1      11.261370455925739      24.155357946102686      5.4587662716031478
   300   1      12.743099452036823      25.356690670327243       3.778308328293182
   301   1      14.026062510283795      1.3129455556808618      5.4502265078742873
   302   1      12.912496807125795      2.2986327116668255      3.6831657379052611
   303   1      14.178624552967541      3.8264413682212224       5.468599020549771
   304   1      12.770709342094042      5.1340175437616917      3.7106508667118221
   305   1      13.970817737919607      6.4483117052234196      5.5173088445382152
   306   1      12.714441621555386      7.6801826940269153      3.7183757998556106
   307   1      13.929209829036667      9.0264267188094749      5.4342729827706791
   308   1      12.853096554133975      10.132974204858256      3.5417898275399007
   309   1      14.061784550985744      11.638006006627229      5.5145051839079224
   310   1       12.63112023639672      12.847936441739325      3.6703556152211925
   311   1      14.156836381030146      14.059806727874516      5.5341560970957646
   312   1      12.597696526776575      15.320359253967158      3.7239144534779851
   313   1      13.919729099285636      16.551937216447804      5.5587064653509595
   314   1      12.685272537721142      17.850966325599583      3.5864205767713564
   315   1      14.015235453828867      19.172759585740895      5.5304665536563631
   316   1      12.579289947212962      20.354370996508468      3.6338835823653657
   317   1      14.006550483549098      21.691886642075421      5.6358341684581754
   318   1      12.681669475631852      22.770185800497131      3.6776079945700362
   319   1      13.726932440595064      24.132214755222371      5.4772903374201318
   320   1      15.236806072394856    0.084539223810470923      3.7388073277980269
   321   1      16.602954866838918      1.2037620630358421       5.488133103639445
   322   1      15.390909809693516       2.414010284084847      3.7045472381689879
   323   1      16.728647386910225      3.6980311687226628      5.4352126506373786
   324   1      15.303686192129355      5.0766376893744054      3.7164094919460404
   325   1      16.594050147821942      6.4966266138916984      5.4815722272894387
   326   1      15.286367700124867      7.6778370607108402      3.6580088422427512
   327   1      16.451840529178433      9.0987993207231117       5.298702953418811
   328   1      15.374674115102602      10.259024492581302      3.6473981364477348
   329   1      16.558337778706033      11.455570571728428      5.3780562495577122
   330   1      15.148720098860975      12.733415038286612      3.7338529663769386
   331   1      16.695766679928884       14.10467494174474      5.4004333337230994
   332   1      15.331569179747634      15.277855575638501      3.6087820838694036
   333   1      16.477404327623415      16.692304496665617      5.3572168338593364
   334   1      15.366393401203499       18.02635898487593      3.6283040783887195
   335   1      16.770598127565879       19.19110705589463      5.4244243005048514
   336   1      15.324448091674105      20.344377178899148      3.6262355630041285
   337   1      16.491697913220616      21.749779702573353      5.4532369824047775
   338   1      15.193310296878124      22.996613507633647      3.7751075406302341
   339   1      16.560396130236523      24.475828956328122      5.4322147501218216
   340   1      17.893597170964842    0.075057666556548427      3.6628947169095136
   341   1      19.216183200484519      1.4189532055274641      5.4566592864937684
   342   1      17.964687199596931      2.6142288291209268       3.469148392036165
   343   1      19.092753184762206      3.8497347523632666      5.4654245920187332
   344   1      17.813789900998746       5.173940173915291      3.6550036380471767
   345   1      19.146764130949883      6.5327830197484467       5.375216833749457
   346   1      17.710930706187895      7.6329299156577095       3.817247219913301
   347   1      19.137346584827789      8.9562494026286803      5.4962500045090481
   348   1      17.865150654736532      10.226548637502153      3.5285774951971813
   349   1      19.126535831897201      11.505205504249025      5.4482565882258163
   350   1      17.665787840295508      12.682080734030196      3.5230285021656096
   351   1      19.203435598483992      13.992634286122525      5.3826809568618632
   352   1       17.83500810996399      15.314611177185606      3.5678987935944848
   353   1      19.428737113048324      16.509622083567557      5.4583878712515643
   354   1      18.080366565868793      17.730022857640069      3.6132728173765041
   355   1      19.219760914584096      19.066648683865541      5.2901290299500818
   356   1      18.027285409356914      20.314028285166359      3.4830619565942031
   357   1      19.169379331572866      21.588482175523506      5.3511801061788749
   358   1      17.835682561863702      23.015523057772004      3.6246033206497272
   359   1      19.055889067218892      24.476713609176802       5.341125698131501