dump/Cu_560_5/steps_81 (written by ASE) 

1995 	 atoms 
1  atom types
0.0      25.526554800834361  xlo xhi
0.0              25.5265548  ylo yhi
0.0      36.100000000000001  zlo zhi


Atoms 

     1   1      0.2389260779341999    0.025180593868635751    0.088304154801471552
     2   1      1.4184555382379371      1.2003864152074695      1.7923678221002659
     3   1      25.442385056254615      2.4780895515602483     0.11254316289320075
     4   1      1.1643384705498749      3.7575606325539082      1.6947199575696905
     5   1      25.356236745150813      5.0302403628142303      36.056268642386399
     6   1      1.1456280873940052      6.3020927707874126      1.6504176360736997
     7   1     0.21081489555905883      7.8440830235550232    0.086379269246163057
     8   1      1.4866722731757407      8.9171072908099003      1.7582161821226685
     9   1     0.15370435479877156      10.287411738850221    0.060868607437487357
    10   1      1.3440123274502027      11.371742565747104      1.9424771018411542
    11   1     0.11871815997639569      12.746430006102772      36.079215894046889
    12   1      1.2206619664968597      14.161495461885877      1.8273026828218575
    13   1   0.0054634803374404095      15.395404514598356      36.077224262487015
    14   1      1.3575893363380869      16.709952234669188      1.8164754359416875
    15   1      25.426987952917642      17.891185773245869     0.11794042774778297
    16   1      1.4482171982478114      19.179218180360813      1.7377562785834237
    17   1      1.2007861385846044      21.765306666568659        1.73307519638189
    18   1  0.00029191134714007694      22.954390723912713       35.91524227219098
    19   1      1.2339956928784319      24.274134291233295      1.6179115525609955
    20   1      2.5681448169575072     0.03299610816532543    0.023190821341620458
    21   1      3.7969131617110934      1.1447389878528431      2.0540545649593467
    22   1      2.4778611938568558      2.4874420975543652    0.036571692947916276
    23   1      3.7523254303206715      3.6581290147965153      1.7039118885675633
    24   1      2.4374987037200366      4.9762036911073038       36.00777257900608
    25   1      3.7271546256827635      6.1520931819929334      1.7440290880404077
    26   1      2.5331972362767075      7.6139949126559117      36.034642831841204
    27   1      3.9742822150522246      9.1607440913106029      1.7366671781282552
    28   1      2.6157727858169433      10.100493181957187      36.027418729162029
    29   1       3.754221765853738      11.592991280428459      1.6839035354941203
    30   1      2.5127582551208136      12.765914789520494      36.090995167873167
    31   1      3.9109132137255913      13.998852015841717      1.8453753872445635
    32   1      2.5381402594163505      15.109813243233612       36.05695173656072
    33   1      4.0814124826817988      16.484690479738582      1.8335634811856254
    34   1      2.5144545138398047      17.843494850745177      36.013181701852673
    35   1      3.8865894831068308      19.133889568560797      1.7929515172254935
    36   1      2.6752366689561899      20.327390924992752   0.0011730997112408663
    37   1      3.7175332910953429      21.657302025589157      1.8558671765344672
    38   1      2.5585473054196504      22.998209257726192       36.04305108017715
    39   1      3.8776792656770214      24.279938151252846      1.9731546264709452
    40   1      5.2600740642113868      25.365362147571009     0.19471294762234934
    41   1      6.3958298034717256      1.3010735802017903        2.11361531894637
    42   1      5.1067514524371092      2.4321209493462694     0.13771722049317534
    43   1      6.6015655356501686      3.6849717091347145      1.9334953477126884
    44   1      5.0429067036533084      5.0120005404774552    0.076739020331751742
    45   1      6.4582134387734351      6.5227719566408444      1.7782820528171555
    46   1      4.9411844587051652      7.5587900100984715     0.15893104312752929
    47   1      6.5884181877106904      9.0252838419239758      1.6491484924252633
    48   1      5.0709197033672115      10.246383450097904      36.071577117437613
    49   1      6.5612882283974319      11.442266096998406      1.6861040318299176
    50   1       5.408690494962709      12.626702760934055    0.042480735277320159
    51   1      6.4677175945613845      13.934586043793722      1.9622835029836905
    52   1      4.9137010985242036      15.130021747058004      36.051992630746454
    53   1       6.553693127562954      16.226379943209011      1.7996064371070915
    54   1      5.1521456474457183      17.748460079958345       36.08365856874088
    55   1       6.410596192456862      18.883310453531653      1.8307780469759567
    56   1      5.2135238853535215       20.43623062016411     0.10743894730687779
    57   1      6.3015508950748238      21.781346520619973      1.8232842450770832
    58   1      4.9267581163156571      22.967964958328626     0.24519922828735607
    59   1      6.3454918601924089      24.289528148471422      1.9308680503431221
    60   1       7.719076767817862      25.394122535234828     0.03231196677081697
    61   1      8.8557785301420395      1.2088571919611772      2.0101300845868977
    62   1      7.5850446955722362      2.3335171551674749    0.078080487492741102
    63   1      9.1456868573832271      3.8048928577816876      1.9275684524024523
    64   1      7.6410045879527431      4.9889034183019234   0.0042734865094075612
    65   1      9.0278611499053394      6.4861865848871689      1.5130180140338223
    66   1      7.6640139264136753      7.6876267793140656      35.929003004552044
    67   1      9.1043195728166761      9.0202913831522906      1.6988809674077188
    68   1      7.6683429941941572      10.160993631225534      35.874213358200521
    69   1      9.2667215995899834      11.532112320527673      1.8668583097838123
    70   1      7.8281174313173132      12.784414820313144     0.10586705522798631
    71   1      8.9891431552882111      14.045105491969212      1.8983522839122322
    72   1      7.7013008915203445      15.250855754047912      36.009317409920975
    73   1      8.9820611048790102       16.39893133144006       1.864265883496306
    74   1      7.7186398514408898      17.669441950943856      35.969588627339796
    75   1      8.8492256416636277      18.895224409934638      1.7500970616764917
    76   1       7.640740217775071      20.424016211077074    0.086457936962915621
    77   1      8.9924082559334337      21.580262477742355      1.7987294974736077
    78   1       7.581315777217962      22.820227994828194    0.098548259217932421
    79   1      8.9644622884757066      24.015733253158729      1.8161722320346845
    80   1      10.253543018153223       25.32600544154273      36.090084721303342
    81   1      11.345679623557002         1.3408428353972       1.915787774975739
    82   1      10.031229769602861      2.2003699138930237    0.097736533417548926
    83   1      11.529831896700287          3.854248659829      1.9111156796871567
    84   1       10.13563470235327      5.1602410568868802      35.977470617989859
    85   1      11.473562540648208      6.3201246396926241      1.6818056553765817
    86   1       10.38098512402531      7.8885595720703652      36.032895585768266
    87   1      11.580083094556613      8.9081925839929248      1.7486024071070696
    88   1       10.33319077785063      10.326758053335737   0.0067213352541329935
    89   1        11.5999030636474      11.651823971962939      1.7361468548321806
    90   1      10.238538813076774      13.018632056621021      35.988191925295311
    91   1      11.585169251056831       13.95151455290817      1.8879823611549016
    92   1      10.136994402859949      15.335373053780383      35.978028357844586
    93   1      11.378504498670955      16.499908236146453      1.7825673891945142
    94   1      10.165381587058199       17.72476368980281      36.043546594831419
    95   1      11.294447357270725      19.101555118141597      1.8188941492000155
    96   1      10.172937910529162      20.439856640343166       36.04922791942905
    97   1      11.471474198678614      21.415933309890693      1.6758248066300552
    98   1      10.235765413538166      22.897365345349804      35.956511395025458
    99   1      11.434177515924796      24.165549104788028      1.6571292414998429
   100   1      12.782734039159227      25.393234150012923      36.096277635313861
   101   1      13.825259071447036      1.2901939513913721      1.7956049688874831
   102   1      12.534803700414335      2.5704942709457019    0.014899076694939582
   103   1      13.928395536226011       3.827068595469528      1.8471949417721241
   104   1      12.730491123178924      5.0502363581930005        36.0898683748877
   105   1       14.13196693353564      6.3999338652231677      1.7261392402172286
   106   1      12.776710643269309      7.6488286902305758      35.854822756308323
   107   1      13.870581031820192      8.9283506862926849      1.6467319880769657
   108   1      12.753670637205907      10.191900116777264      36.001406860407783
   109   1      13.968884866286521      11.480431787308689      1.8391794074033765
   110   1      12.576377688535789      12.850597043106349      35.980851491748254
   111   1      14.004554747620981      13.869361366845796      1.9732524251672428
   112   1      12.857391094868897      15.348522837816788      36.091229178481278
   113   1      14.066035957067291      16.448815466815105      1.7577550506187325
   114   1      12.825101132967275      17.800035779903183     0.16925076136272996
   115   1      14.085943703314845      19.173113736531747      1.6136149446318984
   116   1      12.686315634213608      20.186583027260784    0.021319289840073471
   117   1      13.945308738110775      21.686977313643553      1.5614044307439268
   118   1      12.791314960416138      22.935402594266762      35.869308437744948
   119   1       13.93792948858859      24.173329792494158       1.838626030622142
   120   1      15.312076914797505    0.069888206932531921    0.098557582395790072
   121   1      16.699963834181212      1.3180766206121539      1.8783706165868677
   122   1      14.873163248265604      2.5457605670343835      36.010787478891778
   123   1      16.660753262728317      3.7946009731221686      1.9312855980137889
   124   1      15.381807106887207      5.1739998804440317     0.22776063087960677
   125   1      16.445824614820317      6.5050531031273868      1.9485938959467393
   126   1      15.471147428804928      7.5957625204849188    0.068477810068611561
   127   1      16.470603338064873       8.964240725863311      1.7796355037257752
   128   1      15.355606109642109      10.227170435423437      36.067148494899648
   129   1      16.675380579838421      11.578305447265082      1.6839473598971142
   130   1       15.09545826240922      12.708574679523892      35.945618646124693
   131   1      16.701167903393017      14.056569352126578      1.8022181511710877
   132   1      15.475421907743053      15.295107895575066     0.09077906888201151
   133   1      16.779376032614991      16.704241246412931      1.8071576560151252
   134   1      15.312592946777604      17.842019861803237    0.040729446416514888
   135   1      16.582292068187769      19.108629786776191         1.7449365618235
   136   1      15.231796882095177      20.206569650398222      35.944524062767087
   137   1       16.53195894392335      21.626469145654418      1.7870518618474753
   138   1      15.419650880028801      22.727575205428874    0.017889670238992041
   139   1      16.508615306041921      24.191412901785743      1.5694387455286458
   140   1       17.87263127177091      25.387067316189892      36.072560193328414
   141   1       19.17589142284643      1.4297548662451796      1.6758355076428419
   142   1      17.572014144721312      2.4046213973352883      36.074911802978022
   143   1      19.052537749335244       3.813330556283506      1.5024731042090478
   144   1      17.816088155716432      5.0542432057121562      36.020140352077625
   145   1      19.142454630906609      6.3248364538957809       1.526907483730122
   146   1      17.847582440024741      7.6603574291787231      36.011970479237277
   147   1      19.120611139569007      8.9014925054830787      1.7971723556182828
   148   1      17.891188826168968      10.137794494581762    0.050112700211627691
   149   1      19.282313066463878      11.335106082875217      1.9689489253383854
   150   1      17.934030352659299      12.804068705309518     0.12547774917696861
   151   1      19.159363691343188      14.137143255550846       1.836565085847871
   152   1      17.816248436518467      15.235602263882575      35.987832662768874
   153   1      19.279838739677981      16.578891456883941      1.8479450881944677
   154   1       18.04776092770398      17.852466879083845      36.028215878848918
   155   1      19.156054144549039      19.263211673386134      1.8120963259959815
   156   1      18.014365268664637      20.230009738893468      36.030028979356963
   157   1      19.387242934084018      21.625387656523884      1.7092008650000698
   158   1      17.930227937493999      22.873826592560274      36.093871703401156
   159   1      19.213627673332876      24.431138351663449       1.886719671601905
   160   1      20.220713511390542     0.11765749197610875      35.920791878700598
   161   1      21.584389968485411      1.3988383352936149      1.6045737504053463
   162   1      20.393893731720286      2.5847837180079072      35.927263230621961
   163   1      21.503624742280063      3.8265877004814675      1.5400382928705421
   164   1      20.406304697522167      5.1963755859774983      35.798470701388389
   165   1      21.704042848367131      6.5181271483695236      1.6939777653633306
   166   1      20.266915430715763      7.7839681695310823      35.930605581831756
   167   1      21.727984143414368      8.9471257750946958      1.7738884833901711
   168   1      20.632592264317523      10.212792953080225     0.16825210903456322
   169   1      21.591043049721289      11.480945342496222      1.8173621862497267
   170   1      20.207977287687939      12.616584971585024      0.2161308702010841
   171   1      21.629257352230479      13.896125163361051      2.0077747157752008
   172   1      20.595786682930346      15.219016079901008    0.067774651128513691
   173   1      21.746499595354276      16.646753002788543      1.7761778112007638
   174   1      20.606095022223435      17.946684272166731      36.088001019089241
   175   1      21.666382648289463       19.15459005616724      1.9491446309180207
   176   1      20.747247676100052      20.404104557909839      36.050480266531714
   177   1      21.686727611405036       21.67452264409129       1.857525571888504
   178   1      20.554256121612841      22.921417550191475      36.051199852739344
   179   1      21.448697208787603      24.411547304251787      1.7955301652047511
   180   1      23.100372913003774    0.062469443438440291      36.078396018334971
   181   1      24.313556445454058      1.0605659238590657       1.753370067434229
   182   1      22.932283708855358      2.5135923577496069      36.002187947151739
   183   1      24.191874277249429      3.8131432904634708      1.8016253339111932
   184   1      22.941615082700228      5.0285452162763384      35.909998979751464
   185   1      24.201807820141237      6.5121446376017396      1.7313379689954558
   186   1      23.023640227222788      7.6915143453191055       36.06431364869934
   187   1      24.213349123022102      8.9384996046065499      1.7275028294631292
   188   1      23.146813469823371      10.386933848790649      36.030993443980002
   189   1      24.315972519847506      11.477056578195183       1.750570938545456
   190   1      23.037729672451217      12.882707561661139    0.069517023539572106
   191   1      24.499514055055002      14.188550115059412      1.8540306565242763
   192   1      22.996166123825731      15.297130375367932     0.22826589167974604
   193   1      24.194591900485893      16.656935154740751      1.9024161525874097
   194   1       23.08252829171645      17.867701157771361      36.099891140372058
   195   1      24.202189389667673      19.090834246240718      2.0165648192467089
   196   1      23.350039781168164      20.501237397144198      35.935861539284282
   197   1      24.368653652478216      21.707842320581914      1.5713441140363087
   198   1      22.995593603782108      23.066061004715113       36.06724767255745
   199   1      24.347671198060773      24.148767233744323       1.838285690488739
   200   1      0.1169201045577218      25.466151403293217       3.640829257859751
   201   1      1.0782854485813156      1.3386722203659118      5.4991302320110025
   202   1      25.479190473134256      2.4731151646437164      3.5578728091864602
   203   1      1.2007917189653663      3.8680213594873538      5.6395197847795098
   204   1    0.036332544240493515      4.9708877351072269       3.500290217154931
   205   1      1.4203831149952035      6.2995725856420055       5.338256520022532
   206   1      25.503750910205454      7.6171011591327593      3.5721086905155754
   207   1      1.1815317612260698      8.6159819815173311      5.2019690024352707
   208   1    0.052948648853332662      9.9307664289468587      3.4569259224089151
   209   1      1.2147843383433954      11.319544095171651      5.1098976761556871
   210   1    0.023157990095850779      12.726074671532967      3.6058230443589414
   211   1      1.2441111726968286      14.037361943216949       5.455963174846767
   212   1     0.14050643187432521      15.202951007624383      3.7334554610164639
   213   1       1.231011090983273      16.697852659944999      5.5454313464517453
   214   1      25.334317456653245      17.847976681479704      3.5282197787202105
   215   1      1.2938394428950468      19.172599561086841      5.3750580828998178
   216   1    0.010833903756071463      20.539609694902712      3.5505904965562305
   217   1      1.1344300149991355      21.886528097258093       5.277554173866684
   218   1    0.036003092135538255      23.080159336743851      3.5669665818338907
   219   1      1.1974131045391552      24.237004661142631      5.6662637073597466
   220   1      2.4387114680039819     0.10682412198266829      3.7714512682545842
   221   1      3.6059006110176242      1.3089354714862516       5.586797144946229
   222   1      2.4056261187791326      2.5268616746945365      3.6654816519837903
   223   1      3.8519927598647312      3.8098047673226176      5.5251002442613411
   224   1      2.6259369838152664      4.9987588348586378      3.6065518903525806
   225   1       3.912622741335972      6.3219877826423359       5.404761511043306
   226   1      2.6363312356187789       7.613390470321538      3.5148981884286745
   227   1      3.9301664577211488      8.8754464027480893      5.3281145041485614
   228   1      2.8074371700932588      10.044905636303827      3.5308766756877406
   229   1      4.1705541770753465      11.438600600704259       5.342639332522551
   230   1      2.6878787349378146      12.784416650175752      3.6393673678759262
   231   1      3.6115797339473095      13.919135080213879      5.4673641174672181
   232   1      2.4758880336379954      15.300140917818903      3.5202047514698416
   233   1      3.9841446608475688      16.420196462733781      5.3438069065707774
   234   1      2.6234801166948043      17.692193343025057      3.5961411345274414
   235   1      4.0187623060984752      19.119527014340687       5.237531621945581
   236   1      2.5158476704663242      20.289687884247652       3.551377043418745
   237   1      3.4419227565087147      21.721663121500168      5.3171557801563916
   238   1      2.4368891254164415      23.182062439819187      3.4384362355725213
   239   1      3.7369455052534457      24.218260568940824      5.4556409900757057
   240   1       5.051092705363164    0.037097157969071426       3.720190880263154
   241   1      6.1015021682882891      1.5061609777345084      5.4468476567266881
   242   1       5.078418470753836      2.5658412229254397      3.4980425657831127
   243   1      6.5427292557815049      3.8965008255342606      5.3316242903556796
   244   1      5.3350141022079889      5.1939126160406843      3.3635065541919871
   245   1      6.3304750403196905      6.4649376504855178      5.4495018779926436
   246   1      5.1119479691716041      7.6460401514373197      3.4252175038173176
   247   1      6.4888887573677136      8.9385955054686388      5.4518168440919377
   248   1      5.1767004375519052      10.128344495100015      3.5123026396021721
   249   1      6.4881791513423748      11.488609576072523      5.4013779699290465
   250   1      5.1126309580610094      12.566913243783857      3.4753052793192287
   251   1      6.1500762880490116      13.993921942605033       5.566989780864005
   252   1       5.184375745934684      14.986892233588639      3.7134590323413654
   253   1      6.4232681457654826       16.45779065251957      5.5075100854136707
   254   1      5.0717827243001627      17.631136558291825      3.5911125448997714
   255   1      6.3717996993133941      18.937771629587257      5.2885461872309394
   256   1      5.1041553620222277      20.428534753174137      3.5288329083356653
   257   1      6.3909158274827114      21.496040562374041      5.3644254569290668
   258   1      4.9287252841491975      23.011422770045119       3.655930171472435
   259   1       6.397360690842123      24.371653510067848      5.5121886262406719
   260   1      7.6462574865856903    0.066529003989474714      3.8864215697434354
   261   1      8.8781593865995987      1.2679710095463244      5.6076694066267052
   262   1      7.8016203300443934      2.5427616959199737      3.6811376443745849
   263   1      8.9010325205684939      3.9024588554891992      5.3998591912438831
   264   1      7.7901717826800425      5.1337540433176043      3.4924219019172926
   265   1      9.0553306475434052      6.4064619296795486      5.2351193528015658
   266   1      7.6741901666980361      7.7573421355746559      3.5247576377134493
   267   1      9.0052773146584464      9.0063685358550316      5.3714727345814346
   268   1      7.7094766599324016      10.228743342474324      3.4213204075518431
   269   1      8.8823855703900847      11.540107999226736      5.5275887062749876
   270   1      7.9082317095185104      12.710801971027429      3.5904105259540979
   271   1      8.9849039469140166      14.082889820300686      5.4686646863463437
   272   1      7.5896007637864944      15.206010901461513      3.7106981021880725
   273   1      8.9107666158360814      16.495936928943919      5.3651966898952104
   274   1      7.6472461079577752      17.702659065721111      3.7094715020669642
   275   1      8.8776074430747887      19.140201451198092      5.3967971567769855
   276   1      7.5413388778332306      20.448913627087872       3.672790474817655
   277   1      8.8634860571944394      21.636249280858582      5.1118919703640566
   278   1      7.6126960206460632      23.044906123735348      3.6355619206120466
   279   1      9.1163642344372988       24.05763448104188      5.4711221365880993
   280   1      10.220197566176143      25.386473665577057      3.6916244221583838
   281   1      11.356928407848981      1.2392097668970639       5.489373131821238
   282   1      10.293773121617239      2.7675292387538897      3.7922515128793908
   283   1       11.42169000662966      3.9247379343213873      5.4229609353739425
   284   1      10.411860083345154      5.2070676463815682       3.498468116590574
   285   1       11.54736686800258      6.3087394418204097      5.3205824096658283
   286   1      10.347413160525836      7.6515198546688552      3.4562183000645761
   287   1      11.623073768433317      8.8678387230360052      5.4928148327037931
   288   1      10.447613916451559       10.23948441041426      3.5584549555576244
   289   1      11.538576366854997       11.51245157934417      5.4838168034342489
   290   1      10.291790364034743      12.704974552295781       3.619173996210955
   291   1      11.544275154925765      14.098415085956455      5.3983964300346061
   292   1      10.423888554316003        15.2669364723294      3.5399651437720663
   293   1      11.618496342763086      16.648846469188779      5.6100234888990492
   294   1      10.106330839206889      17.720788262023515      3.4181055782701169
   295   1      11.411234898404427      18.924525935146889      5.4675668959833548
   296   1      10.084217799979557       20.24200070455441      3.4569809928608053
   297   1       11.46584576743335      21.543257661062277      5.0781527626066127
   298   1      10.221039623859504      22.900656679850606      3.3804237442603622
   299   1      11.538476092788342      24.225371837206712       5.504206244688473
   300   1      12.742706986637755   0.0010098014209288183      3.6254107999801097
   301   1       13.94593130956906      1.2792268143004797      5.4581525383615457
   302   1      12.805443813640208       2.528802459635477      3.6530578483750737
   303   1      14.100513052698803      3.7674585929912454      5.5074483666769849
   304   1      12.951047196467149      5.0261480324713332       3.631191690856411
   305   1      14.110582746273131      6.2940731156227931      5.5768086116307476
   306   1      12.714505255307111      7.5534088920866154      3.5422712532551941
   307   1      14.050738647440808      8.9009910125389116      5.5575300790354127
   308   1       12.91034517314791      10.050340649551794      3.6743705313694095
   309   1      14.062162314007969      11.517766378718564      5.4448504425081978
   310   1      12.822167454335913      12.695575320534651      3.6468081569149797
   311   1      14.201463675007583      13.981515018485618      5.3272845908179374
   312   1      12.833678180706219      15.315934231079906      3.7200929207478759
   313   1      14.163945720160946      16.572651428309456      5.5115871574380213
   314   1      12.675968963918711      17.896367395442311      3.5868009226321864
   315   1      13.899855518095631      19.085496547995369      5.2741622139816045
   316   1      12.612520531773034      20.266673661233046      3.5204241247949675
   317   1      13.925381890244774      21.612761727272709      5.2958130292417378
   318   1      12.750691032757173      22.833643492837442      3.5376749732471571
   319   1      14.190460896736646      24.125439547066669      5.3440554624973062
   320   1      15.173899935218479    0.010200678207733429      3.4183664370622733
   321   1      16.572785947247315      1.2784921543571639      5.3346783844620589
   322   1      15.302870946853972      2.4901662937626634      3.6427697489976403
   323   1      16.711957903407566      3.7565902889797793      5.3814702408969586
   324   1      15.426030326464703      5.2013634158986921      3.4904396653877146
   325   1       16.68229815576953      6.4057764408219819      5.3651205315780066
   326   1      15.160783424644633      7.7775596143897312       3.603960227906895
   327   1      16.459697067595997      8.9925334878077123      5.5345912855983821
   328   1      15.396203887636222      10.248672896369621      3.5066900170330193
   329   1      16.567269015827087      11.479660882255136      5.4148427860715049
   330   1      15.526590294141631      12.783170186076653      3.5938543741523974
   331   1      16.669462822728441      13.972463725881381      5.3719900218363952
   332   1      15.327100581431571       15.31392130251994      3.4370269047942195
   333   1      16.665945271911522      16.425201953486436      5.3954987623622284
   334   1      15.177228806692979      17.687374069323724      3.5758021772513748
   335   1      16.420263685717213      19.147139840311517       5.253958935011152
   336   1      15.338543882639437      20.340096216371876      3.3666748150811134
   337   1      16.543130559766283      21.685805215932341      5.1593047641183283
   338   1       15.27434871786555      22.961748619281185      3.5102733777670094
   339   1      16.649150564166998      24.140031263070792      5.2273063554886257
   340   1      17.733918270562448    0.082993971584277709      3.5743988688136392
   341   1       19.16849346855593      1.3659375149329478      5.2460012774497002
   342   1      18.022066538503747      2.5643492435827078      3.5656324215992519
   343   1      19.270783009910996      3.9857882540819047      5.3694654306427552
   344   1      17.860563611260737      5.2269709350356717      3.4762822345127797
   345   1      19.394841518133319       6.218304573842464      5.5073107457268202
   346   1      17.990137055166294      7.7319134152650504      3.5274554756618488
   347   1      19.148720490563793      8.8910386902272247      5.4152423023317233
   348   1      17.965190653392806      10.162244801119606      3.7065257847192212
   349   1      19.347772144343139       11.30732306398998      5.4958420830297667
   350   1      18.080533682662725      12.867464815316424      3.8062113784236038
   351   1      19.432540408490301      14.135783727718112      5.4251445100218882
   352   1      17.897474448928243      15.366923343783943      3.7019968239613625
   353   1       19.12519655443532      16.468255679334149      5.4719960670623227
   354   1      17.840389822370508      17.917050712272061      3.7207690521508705
   355   1      19.070116359658474      19.178525441855516      5.4230508323866635
   356   1      17.877041492489244      20.402262562970524      3.5650226697687675
   357   1      19.171610556199283      21.808984350910155       5.600700280051214
   358   1      18.046273220557573      23.034333071613137       3.484047053778387
   359   1      19.171755363133439      24.463090311839721      5.2804153526146314