dump/Cu_400_20/steps_11 (written by ASE) 

1980 	 atoms 
1  atom types
0.0      25.526554800834361  xlo xhi
0.0              25.5265548  ylo yhi
0.0      36.100000000000001  zlo zhi


Atoms 

     1   1      25.482306062555033    0.082479365204843627      35.976083121782054
     2   1      1.2621041279131635      1.4214908590705033      1.8072379552819482
     3   1     0.11836772900891718      2.6001776435569814      36.033243592785873
     4   1       1.098052140490746      3.8079326308149999      1.8472302245195233
     5   1      25.454163520972095      5.0431156815322593      35.951842319006587
     6   1      1.1425765374016388      6.5284461477563056      1.7969811240838016
     7   1    0.040417301745067982      7.6686008387803239      35.990909968500866
     8   1      1.2600325324429991      8.9243999207671472      1.7118754014328945
     9   1      25.409621970013262      10.160936178267866      35.998231662631859
    10   1       1.355536599928618      11.368831355911263      1.7614956483125759
    11   1   0.0022203642427654595      12.689621367457665    0.056023027996889123
    12   1      1.2987741593909843      14.016299368922333      1.9165676113641081
    13   1      25.449718100254223      15.211682295951347     0.25820832918193443
    14   1      1.3444130083081807      16.676699232352849      1.7520524243180726
    15   1      25.474502360771311      17.921502984590258    0.057342727026525778
    16   1      1.4116291982345743      19.314686039020952      1.6777863353417062
    17   1    0.046977783820177088      20.363132630759132      36.054873872842201
    18   1        1.32545950522661      21.810797258401195      1.6848051161499722
    19   1    0.061441129923026035      23.243233497833248      35.984717237130774
    20   1      1.3285821619879292      24.334385550535131      1.7310407832346315
    21   1      2.5542045904213335   0.0080456101523459934      36.011603836280152
    22   1       3.804575198338171      1.2366489316567011      1.8586551265296531
    23   1      2.5843839736393144      2.5204386988389924      0.1606879321858059
    24   1      2.3940569923609578      5.1027252548346178     0.16728842147673489
    25   1      3.8415640487345648      6.2908610719237172       1.763358594696161
    26   1      2.5086983062311572      7.6608350315168989      36.084618892804194
    27   1      3.7346936426953561       8.890102716936644      1.7734784707842797
    28   1      2.3844410738614816      10.247954639052219      36.057000668991975
    29   1      3.8299137994523149       11.66521858922162       1.644300159206797
    30   1      2.4311219736801557       12.84040468894292      35.964559105079147
    31   1      3.8732212055666886       14.11183787548107      1.6916103869235832
    32   1      2.4295828591092241      15.258296638168876     0.03963092602534745
    33   1      3.8289629552086679      16.697391029730628      1.6625555324256536
    34   1      2.5660490034739372      17.916595594098492      36.089587111564065
    35   1      3.8123950248389447      19.300709736401025      1.9010495873474271
    36   1      2.6159645402292919      20.502493677457966      36.068856264775988
    37   1      3.6701403338718768      21.774382627401963      1.9233124587067223
    38   1      2.5142103637590281      22.985955745812582      36.068753655743997
    39   1      3.8601325485400819      24.365502623363223      1.8179997331199851
    40   1      5.1306626152866803      25.471574977923019    0.093274050057402913
    41   1      6.3582426957225966      1.4833998925864122        1.79093134506161
    42   1      5.0240429053170521       2.663247174088831      36.058550417281452
    43   1      6.2688332063080958       3.972906326055619      1.8288099024962536
    44   1      6.3158710905557935       6.350384461024432       1.674743063261485
    45   1      5.0744842246377173      7.6530701332776525      36.043148473739784
    46   1      6.3940499665885682      9.0489012491602772      1.6881789967995702
    47   1      4.9885846189523164      10.235930681175963        36.0752098528909
    48   1      6.3871482907411634      11.476355127272294       1.704098364108678
    49   1      5.2425639185183011      12.904320230966611    0.025391995989900801
    50   1      6.4282915770012812      14.155241223731741      1.8672344733216506
    51   1      5.1143539608944097      15.546358481233471      36.016030640693849
    52   1      6.5008163443776938      16.767420921215539      1.9313791738796784
    53   1       4.996995344352146      18.088981818662052      36.098605065877507
    54   1      6.2785171174655403      19.130650330467816      1.8219793470591872
    55   1      5.0685203671385448      20.470023898676416   0.0048182973264942934
    56   1      6.2455081625810589      21.664378960891685      1.9010904571468812
    57   1      4.9585022532756264      22.930672666781927     0.17813726670185578
    58   1      6.4051067209056427      24.299861260478053      1.9332819584697527
    59   1      7.6356207321363812   0.0048812745746988203     0.23226096212440558
    60   1      8.9677884411919031      1.2557007927542401      1.8503770808877906
    61   1       7.727841702002797      2.5361413730044351    0.010092997070000827
    62   1      9.0217909766312232      3.8682885112407259      1.9116889305928104
    63   1      7.8336055063288681      4.9564838679358418      36.082395135226299
    64   1      8.9406795972731565      6.2526520618393935      1.7057545181221265
    65   1      7.8235318484435936       7.694428771841193    0.062075004076484704
    66   1      8.8610744121801837       9.053295188955115      1.7611914228101779
    67   1      7.7091160940721872      10.277966305996475      35.968473993129287
    68   1      9.0175849914770936       11.52594363314552      1.7693543068571904
    69   1      7.7037753405514833      12.737263011900776     0.07555637918278528
    70   1      8.9745809996704438      14.049177182070437      1.8532402779556956
    71   1      7.6618838035457157      15.425327801560965     0.19484930858257038
    72   1      8.9217840539168201      16.586192963917266      1.9171246332833678
    73   1      7.6427971453184398      17.976287848497197    0.077957151825546675
    74   1       8.847125130026118      19.032549147076125      1.9256816540497761
    75   1      7.7461554778180863      20.351328213564592    0.078945356839653771
    76   1      8.9781408918873229      21.656988778197267      1.9268474624507461
    77   1      7.6647138381039426      22.932894110247279    0.025187253089814027
    78   1      8.9880126320972362       24.15540326043261      1.8688114233280668
    79   1      10.180790494673893    0.076444009708003358      36.093251828006082
    80   1      11.559966264407789      1.3957099235478974      1.8192932795727086
    81   1      10.144020739250436       2.582775521784944    0.059127870282497955
    82   1       11.61015576522785       3.823512390849046      1.8201917759561421
    83   1       10.24709274334619      5.0384129951466532    0.055364790627982045
    84   1      11.545677156026926      6.4097015759173797      1.6272941444559024
    85   1      10.236272777464036      7.6446930070507522      36.065826595861765
    86   1      11.446645845182783      8.9329234775171837      1.7659593561868743
    87   1      10.383722998422044      10.293035385341787    0.069596088799471656
    88   1      11.363232546227826      11.525831480432641      1.9552445213322263
    89   1      10.172468812338375      12.847771444860403      36.075783961552382
    90   1       11.55071282636759      14.117630265245962      1.8035804075998729
    91   1      10.083172152887112      15.353902550307176    0.098362359354098178
    92   1      11.510157237230958       16.76172919227708       1.936903717894858
    93   1      10.192157923350177      17.855584604652048     0.22371847096184197
    94   1       11.44165946265341      19.070976983695338      2.1167310121837648
    95   1      10.277674654070108      20.441326831460813     0.10279073863825926
    96   1      11.586932927308828      21.721032799776033      1.9369059788858536
    97   1      10.271562181652541      23.101157009217175      0.1395802593953705
    98   1      11.540741237163445      24.288521832218347      1.9009224387668149
    99   1      12.762369729281719    0.081639285428418765     0.15901350580638809
   100   1      13.975677691554758      1.2711706651472443      1.8777221545275333
   101   1      12.878286779219293      2.5971042236386896     0.06732599775147044
   102   1       14.07391532319507      4.0721889044461097      1.8567751846009388
   103   1      12.727578320326966      5.1300556585268078       35.89131617450041
   104   1      14.125141098642782      6.5245946351154673      1.7263657723970705
   105   1      12.880087102455089      7.6974388157721796      36.019090265849819
   106   1      14.007480841881204      9.0459518407076036      1.8857914173009473
   107   1      12.836332739024312      10.268873651419796      36.069862326103447
   108   1      13.923047671049284      11.514404694670517      1.9096890866509175
   109   1      12.858634160910476      12.728896151761759     0.20868224519734896
   110   1      13.931415125162252      14.083052192072854      1.9157534912265857
   111   1      12.684711794961519      15.466381561735194      36.013288342585319
   112   1      14.000918219138651      16.604586746572664      1.6873074268365473
   113   1      12.848175883374697      17.915778226467513      36.054446655228439
   114   1      14.144633783879883      19.030436560896526      1.8401329476728951
   115   1      12.881771758313926      20.491786966115587    0.025674600829279384
   116   1      14.065230053030797      21.813773915890145       1.862595222024708
   117   1      12.829045360702354      22.966329033053086    0.078166919508487309
   118   1      14.009645280442546       24.24171182830824      1.7567763165504187
   119   1      15.350456311252854      25.507241382202547     0.02906573303333744
   120   1      16.720745164533646      1.1634936037095907      1.9906423246496614
   121   1      15.398005584688782      2.5243815317174474     0.11439606544860226
   122   1      16.656527141256063      3.6806578491580177      1.8428592829373653
   123   1      15.231534564258661       5.143753918875003      36.040896583295599
   124   1      16.564683427452781      6.2307086352714309       1.779582465166095
   125   1      15.399072204761307      7.8044018650070264      36.050247870115406
   126   1      16.623076157743718      8.8551264454615453       1.797115002275949
   127   1      15.355982026878289      10.170870825400428    0.081252655726405124
   128   1      16.742706917358408      11.595936055967814      2.0241120588079644
   129   1      15.311144330890263      12.768926976472452     0.15062892357123034
   130   1      16.820821865245605      14.002680004937337       1.907504162642236
   131   1      15.285832073462183      15.221428708570965     0.10017269300246875
   132   1      16.763689949080259      16.589392434220443      1.8412172504576119
   133   1      15.401850824007289      17.849825635071134    0.050855392797439079
   134   1      16.783263631323141      19.157177306843522      1.9423754860288462
   135   1      15.403785337085559      20.376102898492647    0.055389959954061554
   136   1      16.637218427505957      21.669101009152975      1.7392827257656776
   137   1      15.394510086646322      22.905453724621175   0.0019713597835561798
   138   1      16.524874721040408      24.210423791385249      1.8957928135350368
   139   1      17.944301693976389      25.500809862437414       36.05180730927065
   140   1      19.154018355665752      1.1703675461363008      1.7755992186556131
   141   1       17.96727015332258      2.3790596665898636      36.081923206037622
   142   1      19.219526052887492      3.8377956119847889      1.6847478567749927
   143   1      17.748251778488498      4.7923746059084555       36.02800561964316
   144   1      19.097631836032477      6.2161533392337516      1.6611123907268603
   145   1      17.997940519721858      7.5714859825640701      36.011468476470775
   146   1      19.280940937912572      8.8319866360188275      1.7996049156288452
   147   1      18.047470532553167      10.283362945489861    0.043513398104005202
   148   1      19.284251008311898      11.397570044523668      1.9091081018165703
   149   1      17.851052549437377      12.724970957659304    0.011020415165739896
   150   1      19.157085884143157      14.038459061511864      1.8124008356207582
   151   1      17.862936834097106      15.270358056872295      36.090633254766331
   152   1      19.171085871351305      16.615311568062516      1.8565739376673365
   153   1      17.814014815720885      17.821351987789633       36.08500163482644
   154   1      19.256097506252686      19.131281607590655      1.9820079188561983
   155   1      17.922515287250079      20.295195473630766  0.00096514769217037762
   156   1      19.173945500421372      21.631716949640055      1.8319574996577446
   157   1       17.71687480811865      22.991362527694687    0.095538871812891613
   158   1       19.04502807950001       24.06368706676648      1.7920167308348722
   159   1      20.450052333494209      25.385887639933369    0.046286329841291309
   160   1      21.785291601809178      1.2624780284387187      1.6636455609192691
   161   1      20.521992849746251      2.4433208619868325      36.002048523798031
   162   1      21.801575257866119      3.7868819577821338      1.8430384273010321
   163   1      20.471433045949109       5.020275229705832      35.921233608777449
   164   1      21.601636206631344      6.1513556645654379      1.8314915315724301
   165   1      20.444343037036102      7.5893354990440622      36.044019910420268
   166   1      21.773827436905979      8.7123696390368739      1.6261745345947149
   167   1      20.561846447148667      10.197414700765806      36.065072406427873
   168   1      21.697298791034147      11.414103129453601      1.7506117335642004
   169   1      20.359208753786024      12.791336178478531   0.0032151833830312156
   170   1      21.600023798229209      14.028546359645024      1.8335206046766885
   171   1       20.34758560923936      15.425315132760735    0.013137680741328943
   172   1      21.726949527530898      16.461127643793134      1.8109576467289799
   173   1      20.513616906675139      17.805117990041342    0.014002112546586449
   174   1      21.881328168375259      19.023337213748064      1.8683079778265312
   175   1       20.55005548045725      20.251427854377884      36.098591480235996
   176   1      21.757415711368701      21.632576792565022      1.7663106748560595
   177   1      20.509243128535896      22.860445564443957      36.063682678015191
   178   1      21.704000831608916      24.334689918146253      1.7864569350910406
   179   1      22.936421152199753     0.12867481690332611      35.976317671655913
   180   1      24.354274612015452      1.3154139518191912      1.6736651652738244
   181   1      23.010208955443304      2.4965997831566584       35.95248038779048
   182   1      24.215970510353859      3.6758890950273404      1.6682534839940215
   183   1      22.999233226777996      5.0692474053642016      35.997050919612391
   184   1      24.306892798852292      6.2609317014867578      1.8487471705293268
   185   1      23.103428101713469      7.5709777843355468      36.000930553695099
   186   1      24.285343629673736      8.9123175816394831      1.8434014660461675
   187   1      22.980192317555908      10.192097350039829      35.893622180197141
   188   1      24.266456883491806      11.363989566250648      1.7999588164385496
   189   1      22.795400782472864      12.757339119733977    0.046830934066452001
   190   1      24.197850168903166      13.887469985181237      1.8069462393889582
   191   1      22.930085610158304      15.403496753127108      0.2327709979157703
   192   1      24.282206920176034      16.710467953258686      1.8077308625965565
   193   1      22.905999945333399      18.021098416058887    0.019929193259304149
   194   1      24.350956437844854      19.217592424103895      1.8245902915110019
   195   1      23.053892487223695      20.501067622848087     0.10356686257734979
   196   1      24.399896814608493      21.984358515287475      1.7065676359493978
   197   1      23.031102267488858      23.115590271762894      36.071113541270073
   198   1      24.171832404214793      24.435096916583362      1.8082720653766391
   199   1      25.310067464811233     0.19713505770890205      3.8275485327072443
   200   1      1.3543777637637044      1.2232518128743406      5.4058602977533008
   201   1   0.0096967423380462277      2.7622723834076579      3.5549357370160122
   202   1      1.2971341529888629      3.7840013698824024      5.5174846016282322
   203   1     0.12822590860056096      5.1542737621674348      3.6416869909449656
   204   1       1.476953265236828      6.3656182624667688      5.5627298842807997
   205   1    0.084384556826283943      7.6706565562802043      3.7731230479155378
   206   1      1.3651655632592845       8.871839919898763      5.4763661716430487
   207   1    0.088283679102382301      10.147958330670059      3.5729504810597192
   208   1      1.3179297525519289      11.530657753223069      5.4071852282234003
   209   1      25.524828881184707      12.703483681892523      3.5295619953710013
   210   1      1.2510062299697595      14.044840325711577      5.2300310389657412
   211   1      25.495767288385078      15.250662807860456      3.5042791122378496
   212   1      1.1327331936629514      16.578518234937295         5.3215364404034
   213   1      25.461399439686616      17.864261000726167      3.5775066096736841
   214   1      1.2956230248927998       19.15809640007728       5.457417876795736
   215   1      25.519826265572036      20.427347111754706      3.4714403690851228
   216   1      1.0900412615939989      21.633797511841657      5.5068845364624694
   217   1    0.019430222978177172      23.208770786676467      3.4315137040457344
   218   1      1.0693774366184527      24.352416732041494      5.4335487896755721
   219   1      2.5266523245940067      25.494157100361559      3.5889491953830417
   220   1      3.8485271280834006      1.2721063250994744      5.4060092857821171
   221   1      2.5019651337924182      2.4332399076414419      3.7240891079536813
   222   1      3.8194576257368649      3.6840488167359968      5.5370203710945693
   223   1      2.4869897875362565      4.9398815806440668      3.5363258775957784
   224   1      3.9025065938090475      6.1607725153803443      5.2945763645339108
   225   1      2.5873431510500322      7.5410021774882177      3.6430966924461536
   226   1      3.8963889529398208      8.7695680616022731      5.2828716793234856
   227   1      2.6167377814399777      10.159948372326545      3.8036207645372042
   228   1       3.962828907813511      11.519891805919542       5.263001059008066
   229   1      2.5943894448453935      12.798711047822332       3.522821915734847
   230   1      3.6925186253092521      14.105196909860055       5.412464951218908
   231   1      2.6167089582886081      15.570963449290845      3.4323214819243963
   232   1      3.7756463776564693      16.706642277283859      5.4733174603443899
   233   1      2.5589350305156611       18.02113321805761      3.6806636881611356
   234   1      3.8250294643409317      19.251344964900149      5.4593042649892869
   235   1       2.473036845982072      20.497429536478936      3.6599030941200241
   236   1      3.9336893165775044      21.793736187833215      5.4462745696646904
   237   1      2.3099412028441741        23.1958654041327      3.6484238456654987
   238   1      3.7412750310299203      24.325376341209498      5.2945792386479376
   239   1      5.1571984104287631      25.406214767257595      3.5128222923466055
   240   1      6.3323439242748778      1.2586833454829656      5.2553745525486422
   241   1      4.9308146266238122      2.6448757781593488      3.4989804797484556
   242   1      6.4832081440959346      3.7908453415254431      5.3033376270329891
   243   1      5.0923611016362074      5.1667454313954133      3.5927433435238973
   244   1      6.3375676023752359      6.4010050217511978      5.4470828555071922
   245   1      5.0020731401408938      7.6134989907827695      3.4823459649703508
   246   1      6.4388011540610863      8.8301129533920388      5.2966735899744659
   247   1      5.1812049029535379      10.197349960132147      3.4614697079248118
   248   1      6.4573570628060404      11.447939987149812      5.3777873561667784
   249   1      5.1031206312298396      12.813928449680091      3.4407161141233589
   250   1      6.2337767602738978      13.880511274956959      5.2951893929547094
   251   1       5.041788787916456       15.37304610963796      3.5338375912825537
   252   1      5.0312719630430083      17.908982563254668      3.5754185205679838
   253   1      6.3967930020367634      19.398707927728143      5.2490136178494859
   254   1      5.0213807123907186       20.44360201261085      3.6204727782902935
   255   1      6.4579141815471264       21.75619914921398      5.3141295467594372
   256   1      5.0930102287856638      22.868084955529923      3.6910497537311922
   257   1        6.34621142027612      24.262638537712615      5.3434554892063231
   258   1      7.8788924440036618   0.0025512597087206934      3.7878440426286932
   259   1      8.9720535724660397      1.2880094135245277      5.4147255713539728
   260   1      7.6421935255102422      2.6471465042907281      3.5495640358007359
   261   1      9.0205837524188013      3.8108530197618351      5.5193843082498004
   262   1      7.6094048029171706      5.0285252286729385      3.6336464705185008
   263   1      8.8464566164091316      6.3507819295201697      5.5228161766486012
   264   1      7.6452759142321884       7.501368826125451      3.6456523709967819
   265   1      8.9704428035560113      9.0619589629836721      5.3943678661827645
   266   1      7.7079793640965262      10.063705177478761      3.5563128156623995
   267   1      8.9361440619891788      11.492949628539327      5.3615639731607034
   268   1      7.7140516963296077      12.838212418408128       3.564702261578272
   269   1      8.7341166529890426      14.025930849020749      5.6040934676885596
   270   1      7.5550241712528532      15.436670687227661      3.5621454477939793
   271   1       8.853762125073823      16.474211980594291      5.4153445914905367
   272   1      7.6591557338367755      17.834665088891985      3.7091245164518618
   273   1       8.782126095915423      19.015341075808049      5.5122100702921681
   274   1      7.6215596862289896      20.457840247668564      3.4854346392153728
   275   1      8.9469746428590806      21.515781396893399      5.5278724930731498
   276   1       7.671113169019514      22.929273764991443      3.4821517298827884
   277   1      8.9396672318912493      24.213304834332497      5.5631509942852784
   278   1      10.296489401308079    0.024729222182328345       3.764285862711251
   279   1      11.501044796289172      1.4743081628761443      5.5163752356739639
   280   1      10.343927105859301      2.7455420806075481       3.653256355509356
   281   1       11.56700706296513      3.8618486498058027      5.5999505546720627
   282   1       10.25130102416249       5.165894697146193      3.5435003092707795
   283   1      11.396171191131424      6.4486801853637319      5.3581109204749593
   284   1      10.168447475268646      7.7330822331243487      3.4635703037054886
   285   1      11.497295013473432      8.7782928549262653      5.3809577421890236
   286   1      10.098025230630148       10.30614780363619      3.6159282852530743
   287   1      11.359319448989863      11.427651930287228      5.4387530626180416
   288   1      10.190426835614543      12.729196429676668       3.798177572538441
   289   1      11.575815376209761      14.060176144712825      5.4480460808372193
   290   1      10.251156821312666      15.131797241010542      3.6962009144044434
   291   1      11.494136860120422       16.58866964058388      5.4191970664240134
   292   1      10.067547782956376      17.873099089615632      3.6863134270928719
   293   1      11.528139623836969      19.170212185556522      5.3757078469134596
   294   1      10.216901344355128      20.443896731533002      3.7848461927823016
   295   1      11.490462998131868      21.823925879205955      5.5659491037784283
   296   1      10.233263165645704      22.964253540039099      3.6175796368968518
   297   1      11.543373498068595      24.319062606770238      5.4113211191254047
   298   1      12.809157301996658    0.055633384505484405      3.7746126894972964
   299   1      13.862472008818603      1.4809937357176732      5.4701220844845331
   300   1      12.896818969457499      2.6397597301214648      3.6574149083037941
   301   1      14.160342659705508      3.9247922520935292      5.4002542227339543
   302   1      12.770288305669338      5.2140983080232077      3.7650260288204027
   303   1       14.16577304968375      6.3637362027029836      5.5652555229174183
   304   1      12.747995933776895      7.6235982137411673       3.563339925349466
   305   1      14.051807505892253      8.8609670849833471      5.5001876383926236
   306   1      12.788809808014937      10.168011334023229       3.623123559590137
   307   1      13.963022153272467       11.49376664334112      5.5511403895908726
   308   1      12.860171543002366      12.931154388953564      3.6649379555844144
   309   1      14.091051469527413      14.087256121992356      5.4901205438780964
   310   1      12.934801551268391      15.442587541227596      3.6357007157478516
   311   1      14.040658681243245      16.562256424891277      5.4166627953902386
   312   1      12.917868195223846      17.947744389011874       3.747541190083576
   313   1      14.271793690680317      19.228984124921951      5.2882897859208278
   314   1      12.906244370330294       20.51405446015276      3.6467485152073178
   315   1      14.103625210350579      21.700882424122497      5.4685578305406359
   316   1      12.784558965003297      23.037334098421731      3.7092083477437434
   317   1      14.106329418502845      24.316925001288105      5.4030496815646405
   318   1      15.298709376312384     0.04893230949254735      3.6272403151869055
   319   1        16.4470970382689      1.2841287146008735      5.5822467946063936
   320   1      15.482052845089347      2.5482616814244698      3.6667226396578094
   321   1      16.736455817793711      3.9561581038354565      5.3994258870912679
   322   1      15.277153671551693      5.3246525133348559      3.7152312770674825
   323   1      16.845209120882696      6.5282167109350002      5.3951559153655975
   324   1      15.446853002729714      7.7213235228467836      3.7439343437325014
   325   1      16.679690444107184      8.9090443279640112      5.5418882140225536
   326   1      15.348608294185221      10.183391177856237      3.5295279777888156
   327   1      16.570238540025443      11.533119101721288      5.4956189962211281
   328   1      15.349748082076857      12.812334636720905      3.6219635397727865
   329   1      16.781424915048781      14.067031957432359      5.5146963363852333
   330   1      15.363504113919072      15.309487173664561      3.6479567729014963
   331   1      16.672390694130002       16.53352910305285      5.4937147221031957
   332   1       15.47513841665422      17.807516070650099      3.6637961306559301
   333   1      16.740172885822712      19.207006507593135      5.5843944872598552
   334   1      15.485611417931601      20.462742654048739      3.7064287803827964
   335   1      16.608966376331288      21.808354603782792      5.4134812579677067
   336   1      15.244175174684862      23.041104742024849      3.6228770283859708
   337   1      16.612192175604417       24.31627342120952      5.3381984839886467
   338   1      17.831954094778506    0.074058010420556084      3.7623806411794307
   339   1      19.193862166541262      1.3248637392435627      5.3956043937974121
   340   1      17.937822376882554      2.4192675491227273      3.5831092891578709
   341   1      19.328011084473584       3.894025125758763      5.3857315460958448
   342   1      17.948620924545992      5.0050544048765984      3.5434488275707494
   343   1      19.224894148088964      6.2697706687665757      5.4497464270872866
   344   1      18.085781634846679       7.539131169607483      3.4754718613687032
   345   1      19.264986265996107      8.9132683125529031      5.4925464279299323
   346   1      17.848164637443954      10.161479833788702      3.8069034014071659
   347   1      19.270142295100172      11.532049252594089      5.5029687622808092
   348   1       18.12888609196688      12.855865497894166      3.6846755018024648
   349   1      19.242845560141518      14.176535219057783      5.6190734737643186
   350   1      17.959312675953516      15.339859599076966      3.6348574731092822
   351   1      19.163570615749123      16.529004232837128      5.5552368396284502
   352   1      17.969082319730134      17.834034324938617      3.6248888515445548
   353   1       19.33378831018894      19.271016727068748      5.2822947192066714
   354   1      17.968386212547486      20.438508404693415      3.6264295122168502
   355   1      19.259451324229317      21.866879555467996      5.5110957366306916
   356   1      17.954893630555308      23.041793463480513       3.649858970922002
   357   1       19.13643787892013      24.280763329932814      5.5299109790707792
   358   1       20.35565122337443    0.014576317734208368      3.5148097630951058
   359   1      21.718625528812716      1.3035175017811584      5.5065440198611997