dump/Cu_400_20/steps_91 (written by ASE) 

1980 	 atoms 
1  atom types
0.0      25.526554800834361  xlo xhi
0.0              25.5265548  ylo yhi
0.0      36.100000000000001  zlo zhi


Atoms 

     1   1    0.032415623202192878     0.17122571774165235     0.10347572077623675
     2   1      1.2204769859670961      1.2716154635975512      1.8661087741821107
     3   1      25.525440420872489      2.6324539427544642      36.012222210579971
     4   1      1.4546243806434651      3.8620081307523066      1.7214071544755478
     5   1    0.015176950732504279      5.1753294402239378      36.084928272499766
     6   1      1.2157985280159591      6.3439883111612723      1.6991973348500786
     7   1      25.499215195012827      7.6153134668924478      36.039941846187894
     8   1      1.1312434946769721      8.8582529281212761      1.8634229167103751
     9   1      25.456134981694959      10.279255367306861      36.071669360878339
    10   1      1.2519417961312058      11.496850961035788      1.7946899855137317
    11   1    0.026723683120326785      12.740044827480956    0.088014639253265345
    12   1      1.1602099529225196      14.065852147814342      1.6405359792485581
    13   1     0.15515135826417856      15.186078662755909      35.877222603148326
    14   1      1.2605402962052132      16.498697004687511      1.6624165095659338
    15   1      25.459534783957661      17.932211133422896      36.048205424993931
    16   1      1.2429416268972715       19.03170922309825      1.6786492576855045
    17   1      25.463972616005016      20.428011597895065    0.091398555756791053
    18   1      1.4342270314129428      21.653650159483718      1.7973475851022946
    19   1      25.504203324448689      22.983551940336628     0.12663814062419776
    20   1      1.0873839462020807      24.318283572851549      1.9466009075341164
    21   1      2.5973747617261083    0.065956137530144482     0.12180446466334145
    22   1      3.8251657838172819      1.3385292023292354      1.8484813338312842
    23   1      2.4913137994175578      2.4548560870258216      35.912090092795289
    24   1      2.6296289359852922      5.0099039170074224       36.09811679508811
    25   1      3.7065801412473607      6.2458642088020238      1.7968800664817433
    26   1      2.5614746210209125      7.6216500186845799      35.938095998900984
    27   1      3.7184978218184477      8.9156969158104715      1.8447578456081375
    28   1      2.4915702363793653      10.092598124767818      36.076892277469888
    29   1      3.9212108636199305       11.55208841043928      1.7670406346148519
    30   1      2.5873893631617011      12.804789953537892    0.042567636514229373
    31   1      3.9129241449408925      14.099702390343966      1.8208043081754439
    32   1       2.672058589624454      15.350204026384196     0.10535978917121157
    33   1      3.8145418803056041      16.660744178352296      1.9135422153625667
    34   1      2.6267178641439708      17.884066607299488      35.970787652275462
    35   1      3.7095096077689473      19.349325772963653      1.7850393735874726
    36   1      2.4900120068957814      20.500012970383626      35.925274938713855
    37   1      3.9134129612145596      21.794221071927211      1.7996921780302053
    38   1      2.5967685443630346      23.213137384828261    0.072762658567592162
    39   1      3.6318152804769874      24.374586716956173      2.0299600548278924
    40   1      5.0440141508883443      25.488074825308448     0.07097451338786416
    41   1      6.3863940922173468       1.255162818494632       1.827067838951165
    42   1      5.1078455984027897      2.6384464575768254   0.0082899957933705061
    43   1       6.296359110793377      3.7768730517616875      1.6332680867741733
    44   1      6.2534876871439655      6.3314330472275104      1.8051019691896486
    45   1      5.0237362040010174      7.6151043516927777     0.07438503874104771
    46   1      6.3474956757207348        8.84210490861153      1.8185174482966198
    47   1      5.2083215220840771      10.114076412185872      35.990023828149553
    48   1      6.4928352483173155      11.395964722831744      1.6872883964853018
    49   1      5.1550065840791124      12.686887569431118      35.902472338361086
    50   1      6.4798604246087796      14.031430779906081      1.6806599481590747
    51   1      5.1096331630871976      15.429728702077112      36.063220939209877
    52   1      6.6573689682168657      16.709347552417924      2.0581983446827055
    53   1      5.1840327593877937      17.775480718866856    0.053109991691815246
    54   1      6.2107404067473233      19.263194157421271      1.7783302973508159
    55   1      5.0609808827592921      20.447958510311217   0.0054587604475272973
    56   1      6.3542642221547849      21.677555832408146      1.7073012894920445
    57   1       5.220166658805117      23.141321618704531      36.094118490889642
    58   1      6.3906071335783619      24.402559643347526      1.9200831217821588
    59   1      7.5678900006329499    0.025032639313717405    0.039056627840875567
    60   1      8.8969120355110327      1.3302662564890775      1.7706960879034577
    61   1      7.7127832826291094      2.5677022037878299    0.062531269937949122
    62   1      8.9653818772084595      3.8747596100981681      1.6895036191793564
    63   1      7.8506936691948681      5.0712467853202936      36.095107123983411
    64   1       8.865151258141255      6.3551436521631466       1.770067700584899
    65   1      7.8024849493389148      7.7355500712132725    0.035065722531260252
    66   1      8.9954374022229722      8.9505565602874295      1.8134572218803893
    67   1      7.5991742972568561      10.225675374028475      36.002113158773177
    68   1      9.1127714608598964      11.401559681818778      1.8947685746051559
    69   1      7.6764285790718203      12.750507352516491    0.062864402107038725
    70   1      8.9670975120346963      13.889110414177397      1.7515648740292151
    71   1      7.6912695575241417       15.35189597130028     0.10590902530653933
    72   1      9.0279827317596766      16.600811301871786      1.7059109392864233
    73   1      7.8102798489582081      18.108328127332914     0.09152299894270767
    74   1      8.8727888320409765      19.156873233690099      1.8442931471409791
    75   1      7.6016017305336794      20.622582733427244     0.10648357736621385
    76   1      8.9746009621161225       21.74588836104332       1.770681861202333
    77   1      7.7084830378607281      23.134775477987738      36.071386117415123
    78   1      8.8776631275856221      24.325227954251609      1.9181605596206057
    79   1      10.182066445944425    0.067319813433518713    0.070613628988815152
    80   1      11.396992036059975      1.3435700499551857      1.7845189461787196
    81   1      10.224958201268132      2.6654538945003536      36.017137301185713
    82   1       11.64243855860518       3.752820983434578      1.8167883490453953
    83   1      10.246911292974533        5.19372551322496      36.020016350705724
    84   1      11.536913848086314      6.3820793492362853      1.9149853646539339
    85   1      10.242253654616512      7.5841443679814748     0.20814868347029003
    86   1       11.44105573448909      9.0174283066292826      1.8613469474194628
    87   1      10.262278395967744      10.237177461402247     0.03042558768426035
    88   1       11.61566081373879      11.555876012155219      1.8589903656343263
    89   1      10.428622768147676      12.674740326900535     0.12348523112644892
    90   1      11.631379370338276      14.070599162027184      1.7965606782614139
    91   1      10.344652416905296       15.21661562939029     0.14597349085435096
    92   1       11.62027411625704       16.74318419925239      1.9566426963476162
    93   1      10.234704300671631       17.99579462787046      36.017214383570654
    94   1      11.349706755044037      19.098800038933224      1.8081223341536994
    95   1      10.113252339458921      20.284609735664699      36.065542209051081
    96   1      11.425958152469235      21.730854071786752      1.7422939109407372
    97   1      10.183801583345653      23.054873023253368      36.075099617794045
    98   1      11.505951134968168      24.137727182733208      1.7793912499330777
    99   1      12.798707055498475    0.063065228348750446     0.12605131224007676
   100   1      14.056991257464519      1.3249570239545658      1.8494016154191057
   101   1      12.874626504324274      2.5725495928462179   0.0085980850383975994
   102   1      14.045625377336412      3.9092122542465675       1.878278866760001
   103   1       12.75394158216635      5.0048860479654964    0.048853163986552761
   104   1       14.12796861136019      6.3314564454774702      1.8430782576563851
   105   1      12.683842822022127       7.663418614052123      36.087132986560476
   106   1      13.904025121694627      9.0432755377385217      1.8867416264941987
   107   1      12.617291755197584      10.183734494616772    0.092934130093021844
   108   1      14.203649153771751      11.617779417784062      1.8062385249610424
   109   1       12.86300565808348      12.818219976081572     0.08339735133588419
   110   1      14.150851262306418      14.114815261035051      1.7787742105311513
   111   1      12.946891218239465      15.455002917899145    0.004925112719160997
   112   1      14.232563788008795      16.672423182790912      1.8071728336719621
   113   1       12.81655542947469      17.878618585791767      35.937922266159838
   114   1      14.019876053702255      19.076294711882962      1.8231113920322528
   115   1      12.698431011092802      20.305604447788369      36.082342321172924
   116   1      14.017681130308466       21.62588362507914      1.7868178641631616
   117   1      12.754891166765034      22.935046555038689      36.076356856390866
   118   1       14.10415316957433      24.066055318855067      1.8048130122579991
   119   1      15.306605401269174      25.466343936145517     0.10949713781899376
   120   1      16.693118089813492      1.1895006357493376      1.8044459652486351
   121   1      15.287028371725306      2.5021992654036804     0.07281435036854865
   122   1      16.496778216148474      3.8066952275284178      1.8131834519588088
   123   1      15.181524455157207      5.1466013926624203      36.057811185937382
   124   1      16.477066952311695      6.3214517441434204      1.8473891582394126
   125   1      15.306821897674443      7.7200228279814302      36.081931875303894
   126   1       16.47547090689369      8.9048421442791845      1.7842894271248371
   127   1      15.194806993423803      10.311883065897694     0.06633461412822049
   128   1      16.604297522978548      11.440726700764875      1.7452734852158633
   129   1      15.338585350977185      12.712429867058818      36.042378460857421
   130   1      16.611060206399898      14.047998888561679      1.9980684022488266
   131   1      15.584492178639355      15.338990992530915      36.029720938891153
   132   1      16.687798282754123      16.432879245774373       1.816470878500321
   133   1      15.324141364056937      17.888137132086353      35.985817161407617
   134   1      16.590490670915045      19.108767333374423      1.7704384265582338
   135   1      15.416339431564143      20.442254899142561      36.086218225006895
   136   1      16.591837340012447      21.637794505953671      1.7730702112835399
   137   1      15.277831794088231      22.852883733366763    0.028714219682308341
   138   1      16.837538783665565      24.231314670565649      1.9398468963797537
   139   1      17.963532117629985      25.339856301347464      36.026224453659353
   140   1      19.109660946919071      1.1702411902601739      1.8256508774005971
   141   1       17.82521675902769      2.5036163756161023      36.040182435493811
   142   1      19.030817127420285      3.7544983611157199      1.9986642409023043
   143   1      17.807044721960253      5.0639317831937207    0.050790686558787004
   144   1      19.221219063853951      6.3969080511934697      1.8210066678810122
   145   1      17.813003495001336      7.6321507295012525    0.083933042755734169
   146   1      19.176477220374345      8.9162426543237583      1.8923456273409669
   147   1      17.730832514225309      10.191519836540074    0.037779463211040851
   148   1      19.029257419945672      11.544920927237598      1.7982616604245445
   149   1      17.772794195343341      12.858806158036897      35.979988722179385
   150   1      19.064784241750175      13.937081458941561      1.9221696453562558
   151   1      18.038158910919069      15.411676781062104      36.012105575223124
   152   1      19.185281259063224      16.501332911292195      1.9011561100647796
   153   1      18.054286802254332      17.762434351793402     0.19126494855483983
   154   1      19.237952560989395      19.066541089625961      1.8222188352467232
   155   1      17.898040010244287      20.271883544869119    0.059841372932885294
   156   1      19.234493546427281      21.463612822310388      1.7883024356076929
   157   1      17.971984993951924      22.900550244021442     0.12722324438148008
   158   1      19.290571853324955      24.050870477050509      1.8724500736397771
   159   1      20.449925858440267      25.461530082528231       36.09952331477281
   160   1      21.889380226573049      1.2644323811630522      1.7568356158164886
   161   1      20.371306377044121      2.7073373883105352     0.21997330621484246
   162   1      21.726865862685894      3.7889057218088995      1.9284254734149282
   163   1      20.469421907351613       4.984282847380257     0.10246000573122285
   164   1      21.813705642622065      6.4637726006059255      1.8147686650348633
   165   1      20.334013875005908       7.647387860153267    0.068602220118066354
   166   1      21.555860803129544      8.9519745405294504      1.7308575463332536
   167   1      20.368710104248056      10.188280070953219      36.031956404101379
   168   1      21.625435870285635      11.366344461606191      1.8503152438259474
   169   1      20.325491197470146      12.677712561838772      36.098110035485902
   170   1      21.693290334218435      13.975063528382737      1.7679296299530616
   171   1      20.444566901677785      15.312707206121505    0.097807401503155228
   172   1      21.620498665656019      16.576606687270779       1.686207077028689
   173   1      20.507048744911604      17.866928467973128     0.10365237740998055
   174   1       21.73928377037776      19.046059583737712      1.8676974484629687
   175   1      20.437690951772218      20.383556886300948      36.055772836431693
   176   1      21.719704657380021      21.639141611026385      1.6780710355061852
   177   1       20.44260347478281      22.775736312638731   0.0076313669676892478
   178   1       21.84588612228216      24.356878385423204      1.8202583517618443
   179   1      22.974981344653091    0.022040716795905496      36.033769311146493
   180   1      24.261108698719958      1.1855439552473219      1.9304940325040445
   181   1      23.074820640256789      2.6055959520048151     0.11234101614090836
   182   1      24.339059630931796      3.7767831884434804      1.8256622993797251
   183   1      23.013698648824239      5.1478864662946693    0.010163521388415128
   184   1      24.249153988944069      6.2852027078564854      1.8212002947909691
   185   1       22.97634307689648      7.7403034916820097    0.063196783140585813
   186   1      24.213985717647933      8.9772359799612467      1.7937185372890314
   187   1      22.924084962056611      10.112893525080535      36.040723048593449
   188   1       24.27716207545468      11.405487717383282      1.7384851474820147
   189   1      22.983440725882669      12.716385375615323      36.082098551601852
   190   1      24.085358454720339       14.09431940807753      1.7888822829305926
   191   1      23.129269265214631      15.212163927127184      36.059322162059011
   192   1      24.326981498361928      16.468391405916417      1.7218136807472675
   193   1       23.04649335968756      17.938318266235399    0.051278191702601866
   194   1      24.217575453809303      19.129985275955569      1.7510096611457115
   195   1      22.943800771493223      20.451925358060752      36.083244023767591
   196   1      24.376416776948531      21.796292232849748      1.9134476735528088
   197   1      22.984270333091573      22.933624161654347   0.0055668846565595257
   198   1      24.124287249443171      24.301373531188727      1.9093275990566325
   199   1      25.346128622588989      25.442445986379084      3.6268487660336231
   200   1      1.4253171414833914      1.3789693123279554      5.4118112921196664
   201   1      25.482264179320836      2.4500158263972085      3.6395968350540508
   202   1      1.2940107066481283      3.8294609025788104      5.5046545295998834
   203   1     0.03429671253190672      5.0027279944984864      3.6612965263080066
   204   1      1.2064179243423843      6.4148627041230277       5.325905261416171
   205   1      25.470911398518286      7.6919977973322009      3.5092203412162331
   206   1      1.2010980714889317      8.9029022000863058      5.2296933334970648
   207   1      25.318496748772031      10.252386608484324      3.7709301196742762
   208   1      1.2293516402209701      11.492907864240605      5.4152066632585809
   209   1      25.357303697887776      12.666419910966185      3.6166928874629845
   210   1      1.3210973741774283       14.03079370665372      5.3707747773106735
   211   1    0.021560885061329929      15.277650904130873      3.6122240332384452
   212   1      1.2859863695748839      16.656889333373375      5.3673075441482263
   213   1      25.493698061172864      17.755749641354907       3.560652053276065
   214   1      1.3787199547879472      19.214059577876846      5.3439082858969238
   215   1    0.088236974048450573      20.425447564277373      3.6253542797115803
   216   1      1.3409072215303801      21.772177522941234      5.5523713956671275
   217   1    0.021030526059191371      22.922275851031078      3.9724300744295848
   218   1      1.3336450167482206      24.387969341930852       5.421266393528799
   219   1      2.4967302714879147    0.056537166904687811      3.7142063110520431
   220   1       3.867264103937178      1.4512666271604506      5.3686148444980377
   221   1      2.4226562040450776      2.6593329954808365      3.7215916274296941
   222   1      3.7336814470737165      3.8066267511102176      5.4634740834748063
   223   1      2.5350896985297942      5.0647623238154846      3.5968276746619052
   224   1      3.6989417470182859      6.4265099311432854      5.4758765282781336
   225   1      2.4234286400895289      7.6285350952292275      3.5490302602421249
   226   1      3.7333729682535637      8.8579945964248274      5.3789708489482591
   227   1      2.5085591313513613      10.334562554546665      3.5324606171510493
   228   1      3.6744544497006584      11.534716993787198      5.2352846458369227
   229   1      2.4061876486891922      12.671854364620865      3.5502401025929644
   230   1      3.9506209235259693      14.010291640042444       5.155978149302979
   231   1      2.4381228201424818      15.335695679179956      3.6330133158095248
   232   1      3.9328295504200192      16.499773500678216      5.2501482802500723
   233   1      2.4403049373392705      17.910305014788442      3.5654289567840687
   234   1      3.9071562854335191      19.184873456838751      5.2878622280468282
   235   1      2.7066051882829574      20.510976027050308       3.672897906091297
   236   1      3.8771981651205372      21.650289428016524      5.4662479703375464
   237   1      2.6458753844668501        22.9251955259239      3.8038104494599878
   238   1      3.8808321803665908      24.290794790866521      5.4866762256993686
   239   1      5.0380997031207473      25.497782628663366      3.5972343227965093
   240   1      6.2416281435485317      1.4125591951622276      5.3178886402667152
   241   1      5.0228641474277929      2.7155941502253831      3.4912590022812315
   242   1      6.4202384132158761      3.9625218217875888      5.3865720501991339
   243   1       4.992402660231952      5.0525999021504413      3.6394838326809755
   244   1      6.2694571663515628      6.4343162609427909      5.2280968585508001
   245   1      4.9335762796603113      7.5433909954973952      3.4600821075489203
   246   1      6.3250025410170778      8.9614808948249571      5.5913337482756331
   247   1      5.2247732172330617      10.243777567175151      3.6656827223387194
   248   1        6.50739691556642      11.352112504476485      5.4262308813976379
   249   1      5.2110382385396035      12.704634507795435      3.6065756911436115
   250   1      6.6138802239176417      14.139055890823988      5.4223072746043179
   251   1      5.2549115295438353      15.300099632962201      3.4865582625735092
   252   1      5.1778461349207001      17.922182607019444      3.6445219698901936
   253   1      6.4093841299600314      19.216339349396424      5.3957249279109547
   254   1      5.0826899423961098       20.55346231334542      3.5977357306970377
   255   1      6.2546974404000615      21.656166279478303       5.589846304272494
   256   1      5.1514760495130112      23.013499490607586      3.6546903807781734
   257   1      6.3665837424905156      24.367744857082123      5.5105402402116788
   258   1      7.5116495165821773     0.19223706884733299      3.8221796460925379
   259   1      9.0063870195447944      1.2778943134143035      5.3356915197797585
   260   1       7.565435568904614      2.5797297363916116      3.5019902598866466
   261   1      8.8936907653367658      3.8724813762935066      5.1878460157713731
   262   1       7.576629306265354       5.066245434071468      3.5328988267517603
   263   1      8.8258535969710312      6.4061240390421998      5.4009120920968847
   264   1      7.5310278824106289       7.783064250393867      3.5626917811933128
   265   1      8.7722631283693211      8.7832423738377674      5.3002998325732387
   266   1      7.6047402874831578      10.281622017156728      3.6395359885975855
   267   1      8.9799714481809509      11.468097201865584      5.5194353738643569
   268   1      7.7602337990479135      12.762496945074602      3.5168880363140493
   269   1      9.1029527497655192      13.987866495916702      5.4482996736085587
   270   1      7.7794869983376413      15.250868334640819      3.6135931922212166
   271   1      8.8328854762422271      16.331609614185634      5.4771117357983776
   272   1      7.6643497148094193      17.703839696536178      3.9219492495676711
   273   1      8.9782703823337613      19.072687163221303      5.3035353050703389
   274   1       7.545933544201775       20.68718519690016      3.6603474376557439
   275   1      8.9085641393637811      21.743651842188289      5.5650000507128237
   276   1      7.6632430066032455      23.105883448292577      3.8172515464336461
   277   1      9.0758590878194134      24.358815969090582       5.546466092553918
   278   1      10.157877088863934     0.10772162007810995      3.6448303797471153
   279   1      11.488609081845794      1.5425347549914943      5.4105884500771468
   280   1      10.257122228396057      2.6195339306313552      3.5822364692681377
   281   1      11.436859954480136      3.8691020924060551      5.3968599009012497
   282   1      10.319301958640306      5.0716559426808674       3.602209295322564
   283   1      11.330515677520562      6.3314380827399104      5.4814232964306751
   284   1      10.138309292429197      7.6884203862369516      3.6977980852410224
   285   1      11.460354425936652      8.9243471926185798      5.5073450751340198
   286   1      10.167442816654081      10.245497222661104      3.7233858256527115
   287   1      11.402985898807364      11.465050612963056       5.471914767295142
   288   1      10.212778699752484      12.806691458158092      3.5799139134867932
   289   1      11.517398241055087      13.941053056846579       5.378075576557019
   290   1      10.434956181504164      15.243932980021121      3.5321135705039524
   291   1      11.437156453329575      16.530129110220976      5.3122395167357945
   292   1      10.159176605962353      17.812403109124329      3.6487665453374132
   293   1      11.508538128147123      19.073940841778057      5.4062235793705549
   294   1      10.144995511925229      20.371324499631321      3.5779159409341692
   295   1      11.625964719148719      21.718762567672293      5.3719700669433994
   296   1      10.296624108249327       23.04838075298639      3.5940553527602801
   297   1      11.465343248182176      24.356051808105391      5.3388963082785263
   298   1        12.6320269190358      25.491010346408729      3.5432651267137674
   299   1      13.975808915702027      1.2970018195114938      5.3058971447796281
   300   1      12.715285082572079      2.4634482465398695      3.4378197050126906
   301   1      13.940872940861793      3.8112057325574416      5.5052077564544568
   302   1      12.765483995945567      5.0349969219596815      3.7475260790648988
   303   1      13.665080689221123      6.3365071171129577      5.4681956563107743
   304   1      12.858883144104247      7.7623083335249401      3.6450471912797933
   305   1      14.067195049594938      8.9415681855265277      5.5120524972110552
   306   1      12.776761962158593      10.137860564909644      3.7804109983408631
   307   1      13.927424104781151      11.675788984497514      5.5379304630439163
   308   1       12.69590774965563      12.719211797107189      3.6035380437746181
   309   1       14.13294109808932      14.146222599197296      5.4101479432216291
   310   1      12.890441287185054       15.34590103065957      3.4697466184848507
   311   1      14.105172632096281      16.584579222007658       5.503292085585259
   312   1      12.816030481011813      17.851195901898389      3.6088942416444065
   313   1       14.04750111897329      19.183846137955534      5.2834957475583142
   314   1      12.711517686544344      20.384194373754713      3.5100302917452484
   315   1      14.059292978222766      21.811625823150376      5.5937827032134457
   316   1      12.794426160248905       23.05154504138569      3.5951885720503141
   317   1      14.036329102600428      24.265325453252025      5.5839817727970029
   318   1      15.333350089660502    0.068241505736994959      3.6715603961478007
   319   1      16.490347381882568      1.2614491623538433      5.4829666733037188
   320   1       15.23372598593137      2.5788023323845444      3.7236327892150625
   321   1      16.353853642721727      3.8799904067931594      5.3018054691956378
   322   1      15.196268953777272      5.0742215969854962       3.756095740763544
   323   1      16.424317777110939      6.4614404378580534      5.3728319352899661
   324   1      15.089218332936069       7.796551900969118      3.6210045673110183
   325   1      16.493918949397251       8.867845460306528      5.4786521902973639
   326   1      15.173191699301073      10.227257386240741      3.6257893185173531
   327   1      16.514001731100919      11.376357075046711      5.3556677398959698
   328   1       15.25956801023362      12.812266314789522      3.6862975342195279
   329   1      16.611949821975124      13.864409687785479      5.5101913023525464
   330   1      15.332978412884067      15.282935328427733      3.7154615108125371
   331   1      16.539580415038142      16.559808521162129       5.367091814976142
   332   1      15.437463727031938      17.784318058828603      3.6189811615472514
   333   1      16.682112918018035      19.165875951515492      5.3934165669706484
   334   1      15.180690912367464      20.424185909159974      3.5567721462197475
   335   1       16.69751348682389      21.604157837394727      5.3117141220548589
   336   1      15.275207899274937      22.996286315141774      3.6812203741191896
   337   1      16.646168647482629      24.275304633623552      5.3160735716789631
   338   1       18.14057504860693      25.518229731112331      3.6504334146869448
   339   1      19.024113920849185      1.2790668830280409      5.5226143887829968
   340   1      17.710253677343573       2.441108026300479      3.6665567371110273
   341   1      19.059719535988915      3.8045533453372191      5.3692802409391911
   342   1      17.733879149023554      5.1069826346325886      3.6501900826205915
   343   1      18.911132996343017      6.2947324961724149      5.5353743082541458
   344   1      17.624147329076738      7.7598083353497156      3.6772268245617972
   345   1      18.975707090515638      9.0016407120048232      5.4852673527410492
   346   1       17.62718137726328      10.199761196075702        3.61945792409557
   347   1      19.057565576742313      11.424528641376098       5.562661255483734
   348   1      17.756931293070469      12.600981861001751      3.6375609136888674
   349   1      19.008095135222419      14.026788124069958      5.4418184871001305
   350   1      17.897491433522106      15.240952344349454       3.614920264413199
   351   1       19.23291332166723       16.60875623620289      5.4984809338038918
   352   1      18.114048281881974      17.800728878376681      3.4532132327528884
   353   1      19.168173772814107      19.163914505110302      5.4259985086927474
   354   1      17.834015097702363      20.265123017272757      3.5708741102980435
   355   1      19.117404902327678      21.693075523397273      5.3443053035103345
   356   1      17.894528802186798      22.769943077656652       3.597809235987802
   357   1      19.096982063401136      24.060298320500568      5.5062092220616448
   358   1      20.443328743119576      25.477401439595987      3.6093744429645667
   359   1      21.557809798050432      1.3515801668880096      5.4449348403703732