dump/Cu_400_20/steps_81 (written by ASE) 

1980 	 atoms 
1  atom types
0.0      25.526554800834361  xlo xhi
0.0              25.5265548  ylo yhi
0.0      36.100000000000001  zlo zhi


Atoms 

     1   1      25.478160764728376      25.416362753410795      36.003345010994771
     2   1      1.2632505815924573      1.1802245706922554      1.7808248284055017
     3   1      25.476563169160261      2.5048235648996116     0.13979240245863603
     4   1      1.3595053911583752       3.785960038481619      1.8829621557661662
     5   1      25.469069219262099      5.2175285501149276     0.10564543873595093
     6   1      1.3176424918727581      6.5211579338347354      1.8795192458788614
     7   1      25.380333386926811      7.7833417574145933      36.092751486784429
     8   1      1.2512386573276744      8.9787052247026331      1.8677609663732695
     9   1      25.510484055259159      10.307691393209154      0.1329004845654595
    10   1      1.3993622732155502      11.453697551328242      1.8167016998163257
    11   1     0.19660518415372827      12.761497312546632    0.084075172948780613
    12   1      1.2320013330596904      14.137236030029271       1.681866949495407
    13   1      25.464352347924791      15.464682214347398      35.957494749440649
    14   1      1.1273183604346362      16.726534781996769      1.7284942512339412
    15   1   0.0053229058766386464      17.877447947576975      36.004958608975727
    16   1        1.42024138185408      19.205529122268185       1.743848923686049
    17   1    0.022563756487732303       20.41049288551055      36.054797123588685
    18   1      1.2891916677066138      21.772895562353678      1.8687647557969507
    19   1     0.11729682588929666      23.008896446028455       36.08326009950914
    20   1      1.2853786697052021      24.335609040777619      2.0072027809214323
    21   1      2.5068231669403027    0.049172729981697007     0.19049969310433429
    22   1      3.8254332587207642      1.3221351956994307       1.972598928286438
    23   1      2.6126992093106236      2.5485823769080387       0.226592017165649
    24   1      2.5798945810532539       5.201201823334082    0.051108367652136506
    25   1      3.7560723100990234      6.4145202471188849      1.8833302327514856
    26   1      2.3628715419946129      7.8083094041691412    0.087040305681625935
    27   1      3.7705274848480452      9.0209831544969621      1.9413384783446994
    28   1      2.5004478592420787      10.386010831293996      35.937417931099851
    29   1      3.8825017898067067      11.606760726869792      1.9562763991153362
    30   1      2.6035701505891207      12.750315439124948      36.019518229803488
    31   1      3.6682655076001298      14.027809982057839      1.7407686083207627
    32   1      2.5081904323367801      15.365512093444206    0.015599860390148037
    33   1      3.6376748681753064      16.651763995120138      1.7419963441967872
    34   1       2.479577927889161       17.88385692793873     0.03988645213725036
    35   1      3.8005680193022258      19.356823148183711      1.8296643514683875
    36   1      2.5049899605417965      20.448556671055261      35.998032470087061
    37   1      3.7334515591255317      21.795850860972344      1.7440183702418717
    38   1      2.6587125528089564       23.13336399846283    0.074645167693813588
    39   1      3.7846472915724765      24.455391524548144      1.9567843915107133
    40   1      5.0070299307702415      25.507091027545659    0.052080286181478801
    41   1      6.3655182195113573      1.2761537173407533      1.9033874231253218
    42   1      5.0736407745007446      2.6467185005890506     0.14253597913224197
    43   1      6.1282536326603978      3.9847473502932678      1.7128518783721696
    44   1      6.2193013202403975      6.3837718316234513      1.7166935710686859
    45   1      4.9595418025895608      7.7283043531872018     0.17894250895991495
    46   1        6.36436568359977      9.0677294878198129      1.8647215161164588
    47   1      4.9906733028191486      10.275115112638138    0.020965351752875002
    48   1      6.4070734571748922      11.704947048454274      1.7305575522798686
    49   1      5.1828371610921833       12.71113656961273    0.053781810204145478
    50   1      6.4133390716334553      14.058235629127013      1.9522764265797365
    51   1      5.0038819064972229      15.322623111391984   0.0090435236410144233
    52   1      6.3215364447624207      16.440637927716082      1.6754993010101196
    53   1      5.0329472847264975      17.887997414523451     0.15068914432150671
    54   1      6.2322916050914072      19.120290361626004      1.8515142786299068
    55   1       4.949359134188283      20.372153819181939   0.0088232059800816415
    56   1      6.3428897061356802      21.550666673974078      1.8610819804242635
    57   1      5.0884987420566823      23.109130195062956     0.16881111180750832
    58   1      6.3553099129489201      24.182851732789238      1.9304463582179441
    59   1       7.536825048034471   0.0075514717585855526     0.11121764274266757
    60   1      8.8329199783593513      1.1232295439354643      1.9052803743492979
    61   1       7.713137722511834      2.4851280296892644    0.092233525463575411
    62   1      8.9972621176493384      3.6597541591489708      1.7502553812883568
    63   1      7.7068463853994151       5.125988402511874     0.19690056665878045
    64   1      8.9226965851773894      6.5929599431046988      1.8620662312537988
    65   1      7.4980400962309863      7.4626944681189453    0.058321837005303301
    66   1      8.8126097044317433      8.9638704108863152      1.8171305013747088
    67   1      7.6654720139166379      10.189507706129236     0.16220339616592144
    68   1      8.9265820685819133      11.458070493855864      1.9392241462406667
    69   1      7.8072288051471768      12.776952535165062      35.989415532322646
    70   1      8.8821571787244586      14.046011137134229      2.0518712334010276
    71   1       7.682836883837572      15.254461555308282      0.1251295805031761
    72   1      8.8567570695109161      16.574590911575307      2.0860895197665523
    73   1      7.5939079640119269      17.817055469147959      36.082838069165504
    74   1      8.8638637060274501      19.114655509661301      1.7371240789998972
    75   1      7.6772762076840371      20.441939322680287      36.034107561409137
    76   1      8.7791615984479243      21.651003513913537      1.8826489101938371
    77   1      7.5926670626288741      22.903642885017501    0.066128865556629612
    78   1      8.8406107144734651      24.114397187444535      1.8739013158614282
    79   1      10.037136284764076      25.475622405603932       35.98519933847242
    80   1      11.554683922862335      1.2468204292057714      1.7423989117078689
    81   1      10.283980044136525        2.36801871188558      36.090866952073995
    82   1      11.386236931736281      3.9309261815182328      1.8095748951523565
    83   1      10.246926630327847      5.0047828849856275      36.016443463919323
    84   1      11.397546753963441      6.4586197186033285      1.7890823851582698
    85   1      10.396348634527676      7.6578105049539387      35.996571426989384
    86   1       11.53973874290852      9.0917810335574867       1.800398856937534
    87   1      10.133768302373165      10.133476126650386     0.11419461649913944
    88   1       11.70492233674937      11.666039676011422      1.6915920464583665
    89   1      10.344338292182277      12.857777407241102      36.047194273618253
    90   1      11.419588163127179      14.149870694574791       1.934026316558813
    91   1      10.100034673221343       15.42072017665916    0.089714176175812135
    92   1      11.381097568127201      16.698393743550469      1.8889669026200169
    93   1      10.131202225840045      17.889513752361243    0.066235276158317966
    94   1      11.492905038108383      19.224973796138169      1.8300655209195602
    95   1      10.139601064331577      20.519063648902623      36.089973338878039
    96   1      11.652030693882562      21.767450543826467      1.9696658756623713
    97   1      10.168065829868564      22.895077206696552     0.10838756295808009
    98   1       11.46412569457112      24.199754723059637      1.8848584788693186
    99   1      12.650811124915528      25.523310296848148    0.019372795137837771
   100   1      14.096409654032707      1.2902245315584939      1.6778576816118171
   101   1      12.731304783465315      2.6316439466740089    0.059460413793056152
   102   1      14.100441755782816       4.018713727258918      1.6789393863444382
   103   1      12.697226150334002      5.0716334193620511      35.965635005092885
   104   1      14.053274019942227      6.4344295477325462      1.8085924972067238
   105   1      12.747508277138346       7.759542671303409      36.093057968962363
   106   1      14.225766515249735      9.0128020064119436      1.6721004496192799
   107   1      12.946034882302737      10.283020784040394      36.069870658240902
   108   1      14.299659355020029      11.602593161188972      1.8297798889244521
   109   1      12.895054028894059      12.843391864053496         35.908988620029
   110   1      14.038683616266132      14.062110709067037       1.731079554429811
   111   1      12.669501709042121      15.248048456079028      0.1797794827249389
   112   1      13.996377710332595      16.534190746689283      1.7524606246746985
   113   1      12.638404285479977      17.886848312973882    0.090398304949349084
   114   1      13.974135235040032      19.281305840045604       1.821184788326365
   115   1       12.70210439738004      20.477158056283002    0.048367578524891909
   116   1      14.038419964356187      21.859628136777701      1.9119654850196179
   117   1      12.664765842815907      22.965222721554909      36.099119748316831
   118   1      13.940871427671976      24.207611002618457      1.7890007863831656
   119   1      15.253805770269938      25.510191450616773      36.042150483123031
   120   1      16.629720530688697      1.3014407215151651      1.7625142457536853
   121   1      15.278376627608251      2.5783204598785092    0.066022033759895918
   122   1      16.611489015189441      3.8670799490662007      1.9343833507833674
   123   1      15.232921103784953      5.1717728042278326      35.935160636798095
   124   1      16.589475645964761      6.4808854373013443      1.7703661825255839
   125   1      15.389221814282159      7.7420711376049898      36.045410262583545
   126   1      16.718407817738516      9.0710429839822915      1.7551133712901326
   127   1      15.364905449229948      10.396055126803656      35.983777538403345
   128   1      16.649842998089412      11.424705196005979      1.8692274465368084
   129   1      15.288525845107557      12.907366533432629      36.057085319444774
   130   1       16.53357088957598      13.944233397288752      1.7491196432660681
   131   1      15.361931033280133      15.485990262290841      36.078736229655199
   132   1      16.347408267855727      16.717646616180893      1.9936886442788577
   133   1      15.141600036084496      18.051791022009379      36.070131356138177
   134   1      16.520250961222199      19.107877439587103      1.9324160147528906
   135   1      15.395314142607113      20.610494081788069    0.034893323144865443
   136   1      16.671889602278721      21.619167020705653      1.8263925327256849
   137   1      15.155960007402598      23.094642609974159    0.061337743009846679
   138   1      16.633377632808148      24.199649619739688       1.851378103146045
   139   1      17.667207076998995    0.022035197154700242      35.987642401134607
   140   1      19.195228669695496      1.3505241375538541      1.7168969322267471
   141   1      17.845459794321016       2.591385223057129      35.942960058099771
   142   1      18.963513815770057      3.8934792235040629      1.6090796150616833
   143   1       17.75803450657267      5.0916637380085099    0.057869606285782818
   144   1      18.955129492430661      6.4461434243845801      1.7469023239705379
   145   1      17.918997504067363      7.6917694159485013      35.870646134014343
   146   1      19.248297806766118      9.0387771672250707      1.8463837420469289
   147   1      17.879904504543656      10.243040761967556   0.0076324592889477627
   148   1      19.197154627768246      11.494011812253223      1.8357946304476414
   149   1      17.942133367018343      12.860713987368767      36.091680192898934
   150   1      19.172542350399429      13.925047798798955       1.812107155007278
   151   1       17.85336781067091      15.437994002351376     0.10163135629766212
   152   1      19.133313256411419      16.511423523761092      1.8681342148915647
   153   1      17.766729466980191      17.889914851585022    0.041727176493009187
   154   1      19.132808797197423      19.076779132919818      1.9086769979717921
   155   1      17.948441018645131      20.455694628775777     0.16219577883456415
   156   1      19.125091617520855      21.916868859113407      1.8729896797504912
   157   1      17.749610217710568      22.988710773210961       36.09464758470822
   158   1      19.005861579465197      24.357317711831456      1.7209940925353984
   159   1      20.357542010800277      25.398012117591463      35.956539942704929
   160   1      21.768881498163161      1.1047494510140476      1.8565653758565308
   161   1      20.453135747182383      2.6414363225849504     0.09013581085597494
   162   1      21.838449671330203      3.8939628923019391      1.8611115291027189
   163   1      20.315482052258002      5.2021689799300459    0.016293341710445466
   164   1      21.652229895959273      6.3838289102681696      1.9311257738776932
   165   1      20.338840457188073      7.7293439899103547       0.143475286027376
   166   1      21.797999087833993      9.0378856452577683      1.8524752561389948
   167   1      20.511086675917973      10.047159985239794        36.0746105567653
   168   1      21.684472630176881      11.405859964951926      1.7858077812044366
   169   1       20.49551311238325      12.653924396479345    0.088373944006730029
   170   1      21.757753957008898      13.947030660975457      1.8189144069341749
   171   1       20.45206551005619      15.293990931510741    0.095837656890228148
   172   1      21.714880957314531      16.559861944907791      1.9460010845925357
   173   1      20.449062401500047      17.760015007116099      0.0590763572312882
   174   1       21.89093591244767      19.066048415476295      1.9600596520171165
   175   1       20.46254111167438      20.342700503356248     0.25496015591079424
   176   1      21.913219245554057      21.743317231280965      1.7134884369066201
   177   1      20.278463484811411      23.053329668814769      36.089016543849951
   178   1      21.666948789719051        24.1922891353396      1.7765051208904994
   179   1      22.850402800643021      25.477442026226381      35.982068393889172
   180   1      24.263221349176767      1.1532151729750917      1.7557196477525856
   181   1      23.052706056831443      2.7478807123823166      36.085467074279713
   182   1      24.351152164238229      3.7907088407068152      1.9024051609923947
   183   1      23.028430888686884       5.171246687896808       0.294986026587651
   184   1      24.264169378091172      6.5186292361173441      1.8285131689902625
   185   1      22.914081566706876      7.7328422232380705     0.22796500863837521
   186   1       24.24347708084327      9.0804697092266586      1.9282449010889209
   187   1      22.973475276600293      10.207206528807676     0.13783906771598148
   188   1      24.378321241732724      11.541058736333078      1.7942913675865275
   189   1      23.061989391470618      12.673383978970769      36.069958982217692
   190   1      24.180567655671876      14.077715643946828      1.7589981811515025
   191   1      22.868132934723221      15.313432110064436      36.052125650868824
   192   1      24.210790815670329      16.717978995439115      1.8503271856543495
   193   1       22.98311592623913      17.790847370538263    0.052700523432542744
   194   1      24.292490246643954      19.216878019908947      1.8017534921812179
   195   1      23.156556913506538      20.305049121589725      36.086747020665037
   196   1      24.373027348556665      21.721390196377921      1.7054545434646904
   197   1      22.966436516315078      23.020864583732543      36.099226923819195
   198   1      24.213394749819777      24.275162341872935      1.7749963952472299
   199   1      25.450797084960513     0.12822858225415243      3.6169718909755879
   200   1      1.2775217693721634      1.1918127836088992      5.4301141185575341
   201   1    0.094426551853876342      2.5272793192807406      3.6056185715985865
   202   1      1.1324313609720797      3.8494802299860149      5.2667950485256521
   203   1    0.039132176032894879      5.3263824340293748      3.5825542257742318
   204   1      1.3947613402224392       6.638627540322549      5.5452412473724717
   205   1    0.081030156664057995      7.7446196173167303      3.6676921994981919
   206   1      1.4141080701646895      9.0466021470489366      5.4431215785036891
   207   1     0.13139538469208162      10.205331480353445      3.6891870456888034
   208   1      1.1460609768196357      11.479001465308196      5.5516703085643782
   209   1    0.057673293073517859      12.809986218242237      3.5741152328737842
   210   1      1.2049363463425273      14.097987340825965      5.3410529428927802
   211   1      25.356354371630989      15.363284038810376       3.509334569100782
   212   1      1.2710354571563511       16.67405542699974       5.349518089482352
   213   1    0.099029929882590295      17.863769498281179      3.6604516933039379
   214   1      1.3140143444741774      19.263312864065778       5.388332894623951
   215   1   0.0098926736730304259      20.420093438840404      3.5090498528072085
   216   1      1.2276203476017755      21.747693935847849      5.4340826745303152
   217   1      25.492966562486945      23.036882952792219      3.5521884504458723
   218   1      1.2320658251893382      24.239274474961782      5.5055773938494426
   219   1      2.4592541657896456     0.10148159956258701      3.7590607627515142
   220   1      3.7769400185843969      1.3949694380629505      5.5064169677555501
   221   1      2.4613798126833348      2.5348591587717162      3.5791325011218995
   222   1      3.6969159068971731      3.8439766364473718      5.3215062561442972
   223   1      2.4873687026453863      5.2068578874325366      3.6103273458353224
   224   1      3.9356615787853801      6.4133695374365667      5.4389979918749995
   225   1      2.5704850349373056      7.7202128112364194      3.6579066961813775
   226   1      3.8176804424671449      8.9024657205930158      5.4148590372487568
   227   1      2.6697094655772569      10.394649259216218        3.71862061257267
   228   1      3.9906432432954402      11.442189570946358      5.3144951733251853
   229   1      2.5593445938852164      12.819118577921863      3.6755936488172045
   230   1      3.8649181314372112      14.185811695144363      5.3513095824338208
   231   1      2.5445816055433275      15.366086525863912      3.6922715134254247
   232   1      3.8779236424559245      16.834883920098235      5.3824931294852645
   233   1      2.6790671990519681      17.974458319189694      3.6101397502990267
   234   1      3.9557906412221731      19.248944635955592      5.4013872274208437
   235   1      2.6236683902516931      20.472349553272203      3.7131659561584276
   236   1      3.7287707977754221      21.737845521296748      5.5045885817863551
   237   1      2.5532715480334556      23.108873738059717      3.7233378795729419
   238   1      3.8722008988229364      24.302558111009436      5.5833915091869954
   239   1       5.016638396575436    0.099975564201267325      3.7177023942651726
   240   1      6.3298150877473436      1.3426557374179029      5.3125632464194963
   241   1      5.0701260228458533      2.6999867337704919       3.617863420272228
   242   1      6.2436626178861809      3.8669457424122764      5.4030257370728165
   243   1       4.975864263001867       5.294428651736049      3.7676104558125236
   244   1      6.5172577973283321      6.4206353713765401      5.4910171820710296
   245   1      5.1100737464792525      7.7451321132969255       3.634675364678043
   246   1       6.417375752522239      8.9935655960093595      5.4833114004067234
   247   1      5.1889886913258136      10.272605715009249      3.5781000216579639
   248   1      6.5431341941864298       11.69321811589972      5.4751554341481059
   249   1      5.0864208295681195      12.886783411191562      3.6504329391454715
   250   1      6.4230013591169062      14.161629265177481      5.4140090459063748
   251   1      5.1341279501987209       15.55912531457583      3.7029295482248963
   252   1       5.146906010861156      17.912194603215919      3.6139703896995732
   253   1      6.4326237903188686      19.175026447907793      5.5407162605070157
   254   1      5.0367975650625612       20.43437854598147      3.5841655576135629
   255   1       6.327909182431565      21.565328852835297      5.5514760320131744
   256   1      5.1032751497893845      22.999898181976761       3.709732795031297
   257   1      6.4369543321204308      24.224640437900966      5.4026711907177223
   258   1      7.4817629642728045      25.461188317881017      3.6802973056909178
   259   1      8.8659415186164114      1.2343440564202608      5.4312104366627088
   260   1      7.7268474855859832      2.6791671934433476      3.5496732221207838
   261   1      8.8560290085591191      3.7825788351487231      5.3801414511413048
   262   1      7.5877197651221184      5.1739010231819567        3.45641629881642
   263   1      8.8526718481453344      6.3741205695248881      5.4253186638965376
   264   1      7.6802153009958491      7.6378385407237612      3.6110390713223404
   265   1      9.0057307249970293      8.9752784505290837      5.3061151247973957
   266   1      7.7103063677112855      10.213179048899246        3.70345339708618
   267   1      9.1094933659630009      11.401004113515112      5.5203416126473535
   268   1      7.7345695181238492      12.884866819492293      3.7254805910741808
   269   1      8.9464788414318974      13.872234679824004      5.5422099876823383
   270   1      7.6105021170906273      15.525830250484921      3.8274296583306939
   271   1      8.9920641636451357      16.491552827381476      5.5430761310059609
   272   1      7.5302819486106269      17.862171206190293      3.6071436151927179
   273   1      8.8783121087279824      19.112982740374211      5.4592303641253332
   274   1      7.5921517425233525      20.386715692855109      3.5817935490119925
   275   1      9.0294269279112616      21.810574848722901      5.2485594441283547
   276   1       7.518758899832588      22.912263566820421      3.6400975786821941
   277   1        8.96025840287591      24.324415573637143      5.3136071223514847
   278   1      10.095935572286622     0.20681202191779727      3.5889381006644383
   279   1      11.622183720736633      1.3500956522278451      5.3609020883513816
   280   1      10.324402010328427      2.6362492208853139      3.7490008181939962
   281   1      11.714470320013426      3.7927072120177256      5.3680369289930985
   282   1      10.196732340647916      5.0098459077938058      3.6304823160430222
   283   1      11.625536945253231      6.4371888783529663      5.2931158471728397
   284   1      10.361808884444256      7.5942344484873594        3.81089709118916
   285   1      11.533928242853779      9.0775261221250965      5.4245263925645597
   286   1       10.30040217825443      10.198499046263217      3.6184528423786371
   287   1      11.651523660852336      11.539021346389392      5.3867124314280401
   288   1      10.228345723729291      12.769617764622756      3.6835738033356749
   289   1      11.409715431280889      14.129561571727757      5.4540769840971128
   290   1       10.06576936679266      15.246730275882665      3.7553590307455078
   291   1      11.483117156764706      16.661452854078632       5.585990707887647
   292   1      10.072771448676662      17.891581440838426      3.6358944878688817
   293   1      11.399968981793505      19.196022661517375      5.3955688669302546
   294   1      10.163236562841305      20.378366846498629       3.648066921512751
   295   1      11.486518634343676      21.794245668293208       5.359392252886976
   296   1      10.132957667378136      22.995191205428274       3.505247802153757
   297   1      11.427853758544314      24.256211087772034      5.2909175297995024
   298   1      12.709192437519224     0.11678371378037791      3.6494697219087038
   299   1       13.93473846968242      1.2438046529958049      5.2983267175668045
   300   1       12.85919736252522      2.5658849681288727      3.2652764720595755
   301   1      14.165247328812805      3.8073655404988815      5.4831937860857627
   302   1      12.822742420930012      5.0687445117768686      3.5164704647985898
   303   1      14.095220869873792      6.3703957914436016      5.4323168390131436
   304   1      12.797273773696789      7.7512238076782909      3.5430368230424296
   305   1      14.179387376961172      8.8294463817751208      5.4631144193749801
   306   1      12.906399117157966      10.339162497516783      3.4961454502736395
   307   1      14.103145011156933      11.514975447326535      5.4435445070284842
   308   1       12.80082001823439      12.821390126303726      3.5286801726649526
   309   1      14.004509715751755      14.065579262098813      5.4683141833372746
   310   1      12.715558728219843      15.413294263881266      3.7768158544714834
   311   1      14.031284718222791      16.538993090584274      5.5131650132961614
   312   1      12.782410451027516      17.964162841496634      3.5711782984531748
   313   1      13.992375847760689      19.173021133482237       5.467303915259258
   314   1      12.802985844359441      20.541851102372114      3.6226411004925025
   315   1      14.012221760982683      21.737960636260098      5.3801649681423811
   316   1      12.789309427606701      23.047587192716605      3.6884197129548189
   317   1      14.036001111915891      24.290367092931771      5.3224757904900288
   318   1       15.49072698755497      25.501592958147821      3.6089003227761305
   319   1      16.558839431375262      1.1342015127463758       5.442400785142218
   320   1      15.286376313089805      2.4240565914552281      3.5475072671769019
   321   1      16.579410931246443      3.7270119430428519      5.3402763885654885
   322   1      15.301317258231212      5.1706490698359104      3.5752285243291109
   323   1      16.534311576975728      6.2877293437053403       5.634759656668864
   324   1        15.3378091851728      7.6682948698533453      3.5389689813777196
   325   1      16.586363269229771      8.9662989429773248      5.3794235589070212
   326   1      15.377256709814812      10.139639983499475      3.6885535777388632
   327   1      16.762935060168505      11.532096126296775      5.5397416086382076
   328   1      15.430750393307786      12.639840695173353      3.7586749757596958
   329   1      16.597981926934054      14.085927508771537      5.5935251044023282
   330   1      15.303225070484684      15.166234974047557      3.6279736905745144
   331   1      16.333928618246762      16.488205152347781      5.2981828185581277
   332   1      15.213278845444794      17.919970569618616      3.6923587584172024
   333   1      16.591855316033747      19.055299507072416      5.4032746954058641
   334   1       15.31625469228382      20.491198090517035      3.7131644154812191
   335   1      16.667017564356371      21.790520655669567      5.4369726137201519
   336   1      15.472701130126968      22.974665623536744       3.620060068703109
   337   1      16.675506290859534       24.22660508151975      5.4076925503708244
   338   1      17.954405273325293     0.08543108246006681      3.6126461785624064
   339   1      19.075649347837405      1.2837137364667028      5.3882754433332796
   340   1      17.914469189465894      2.6416925741880766      3.6059212010472281
   341   1        19.2142895025892      3.8087490302957696      5.3227282827401261
   342   1      17.830491785702204      5.2158600486102289      3.6836307177204302
   343   1      18.998316779437367      6.2047455092454786      5.5881202662122655
   344   1      17.831493769344402        7.81400767862627      3.6317589218387898
   345   1      19.282920827076026      8.9921850750709194      5.4615557669747288
   346   1      18.038055022503421      10.264262717726996      3.7075364489326814
   347   1      19.308369604859234      11.629798183609354      5.4347071939405964
   348   1      17.732845599312284      12.795275466430459       3.605486319855117
   349   1        19.1724401827009      14.155423817295576      5.5393697369288093
   350   1      17.889371859107662      15.374686590908416      3.6669230823530117
   351   1      18.842154275864143      16.637322622360674      5.4539572605587097
   352   1      17.806040905417049      17.884745075000939      3.7160497944799604
   353   1      19.137597415284723      19.309849361112061      5.3555943667488526
   354   1      17.895631749079197      20.493385899947583      3.7146914846103347
   355   1      19.241135086508926      21.707671413329134      5.3758062510540618
   356   1      17.901676773266054      23.156382952105108      3.6213734546088334
   357   1       19.27959087745262      24.258073899399495      5.5331101328812631
   358   1      20.435861082973183      25.496765144756449      3.5936397404863443
   359   1      21.597159551464074      1.3140255717363727      5.3617340529824515