dump/Cu_400_20/steps_61 (written by ASE) 

1980 	 atoms 
1  atom types
0.0      25.526554800834361  xlo xhi
0.0              25.5265548  ylo yhi
0.0      36.100000000000001  zlo zhi


Atoms 

     1   1     0.10093572309574091     0.25036500814936524      36.067535089049933
     2   1      1.3995179709234706      1.3018301057035839      1.8385237611054999
     3   1    0.058386860214706196      2.6199269449384084      36.031331355882593
     4   1      1.3851298688501237      3.9504013798479019       1.732369776783232
     5   1       25.46692558952153      5.2348162629854418     0.15038696461189163
     6   1       1.407761065976858      6.6982482739453229       1.750576975004104
     7   1       25.51269284474068      7.8782296328277264      36.075789682995072
     8   1      1.4325860181184482      9.0779045481400189      1.7334878082587903
     9   1    0.045694209799086678      10.336576838776978     0.14143240082586311
    10   1      1.2338196917214144      11.715999703762128      1.7789401343289557
    11   1      25.506360789162855      12.756219596999118      36.052335967341058
    12   1      1.2505509948906728      14.171235657157446       1.601283565587881
    13   1   0.0036501847748471139      15.359242835828368       36.01740292882527
    14   1       1.192710066699757      16.715052354636178      1.7696364124580537
    15   1    0.047885086121709455      17.970176015156891      35.916079946775341
    16   1      1.3878845179772779      19.232609723322366       1.808026633433746
    17   1      25.523821503705925      20.478321886800757    0.096922523417515491
    18   1      1.2831305609707166      21.707657445459816      1.8779693556431079
    19   1     0.21956729982927248      23.171351497883972    0.039488454063803122
    20   1      1.3434912967525883      24.402585399911622       1.848780965468473
    21   1       2.609928860479374    0.018310177061234691      36.033993660401386
    22   1      3.8621148881659328      1.3063082101432191      1.6750442472848597
    23   1       2.525612990486132      2.7671870496277111    0.060343191251104308
    24   1       2.449162812910155       5.280512691053751      36.002619885047089
    25   1      4.1345453382174133      6.2137665267153146      1.6703104771077377
    26   1      2.5796096096865826      7.7240496943269417      36.004420554824371
    27   1      3.8647549180202465      8.7283472848094039      1.8541445504216894
    28   1      2.5229537263991744      10.092596380788002      35.976432177260449
    29   1       3.696896365855733      11.359995158485848      1.6617485582518829
    30   1      2.5136163444312403      12.924983440402812    0.046937571423484419
    31   1      3.7730344493049324      14.105481220541098      1.8941749170605715
    32   1      2.5736604138980503       15.42539004370647    0.011574963641430704
    33   1      3.7548649397575917      16.622491648842733      1.8359300367297353
    34   1      2.4948645782399796      17.975914560009841    0.013307911893377884
    35   1       3.828606779666305      19.195302334138997      1.7527706750532399
    36   1      2.6069149788095158      20.478114916087591      35.923034638465388
    37   1      3.9939512522412435      21.728337151060263       1.774457776594047
    38   1       2.875784118913788      23.097539104466868     0.12988562601620957
    39   1      3.9324905978880373      24.223674955276145      1.9693543382020029
    40   1       5.022348445968996     0.10863503691733091      36.057112623881054
    41   1      6.4275485543991966      1.1722739268021833      1.9239931509656918
    42   1        5.13557828986771      2.6633644585484255     0.02256173436518338
    43   1      6.3888226678447406      4.0125525497033641      1.8938157235732191
    44   1      6.6134642297061337      6.3410192932517262       1.782630536997543
    45   1      5.0390519075764004      7.5295311308487589    0.021415114413400708
    46   1      6.2735863298873831      8.7115660311152414      1.6829798753415504
    47   1      5.0074045180800137      10.003644696948877      36.055067431466178
    48   1      6.3207262444455319       11.52577785746532      1.9142060844730187
    49   1      5.0307557333270916      12.770185547221798    0.065931377341871503
    50   1      6.3072298562364741      14.025195287180626      1.8255512789807296
    51   1      4.9796183618782281      15.344550153297634      36.094274179210345
    52   1      6.2831294189332176      16.720029174019608       1.797962123308765
    53   1      5.0931978053060991      17.882219013658904      36.078871790251263
    54   1      6.3817172799193287      19.422626311958854      1.7995467468767403
    55   1      5.1108724877955565      20.564907153379281      36.079362006935654
    56   1      6.3363662181710882      21.859102134148337       1.762355336046856
    57   1      5.2397111954110844      23.119218503241967      36.027492921271019
    58   1      6.2612939654239428      24.311899242198045      1.8286921273727688
    59   1       7.706797438896217    0.017152708438918182     0.11958263121643989
    60   1      9.0985662382703296      1.2619072341965756      1.9183605967409223
    61   1      7.6292121906256707      2.5028452423524579     0.15944229791714423
    62   1      8.9768131280538928      3.9576128399629673      1.7451068759849688
    63   1      7.6754930269997619      5.0464630201216254    0.081433316926586674
    64   1      9.0947167394663193      6.3917471247603803      1.9410963855344097
    65   1      7.5960862381446743      7.7303949958422962      36.078983655763409
    66   1      8.9369513016691009      8.9489363751326234      1.8288904936422012
    67   1      7.5144154356018102      10.297573871314398     0.27689136239288242
    68   1      8.9532661536900946      11.585540326986157      1.7915220470751261
    69   1      7.5839306681218179      12.854279888167625    0.082415964569452035
    70   1      8.9472752959546735       14.01018064040027      1.9227996399943081
    71   1      7.4441536036046916       15.20647948183959    0.015960177512999954
    72   1      8.8479182666542187      16.611874299611298      1.7455122499910192
    73   1      7.6199420908602322      17.831362771236982      36.013315083798197
    74   1      8.9725393232726169      19.037408257467312      1.6742897047531176
    75   1      7.6373389439304846      20.459188280831825      36.099161706778744
    76   1      8.8524503411996545      21.730100184125853      1.8606531970962685
    77   1      7.6054096519966299      23.029606578159459     0.15335198272557599
    78   1      8.7181842528576841      24.212371520061875      2.0229271581659991
    79   1      10.109371563135021      25.442814551834829      36.025272303502156
    80   1      11.518852788547559      1.1713372605466921      1.8691341939586792
    81   1       10.13302644210504      2.5601983137496869    0.055646062752850702
    82   1      11.594537612999201       4.014569661956406      1.7771791406833464
    83   1      10.182467168208627      5.1222223923763872      35.928383928025191
    84   1      11.497406262168099      6.4462946813837165      1.8317778880880256
    85   1      10.174798443462755      7.7734041392151694      0.1402727902073026
    86   1      11.413697563018374      9.0509425381423867      1.7881280741028034
    87   1      10.189822784210122      10.283656036203014      36.052186249296369
    88   1      11.644429295406578      11.492433445798618       1.840530196679266
    89   1      10.161504225786127      12.753462784745784    0.092418169031145525
    90   1      11.438070593825636      14.004677042505673      1.7059064400698514
    91   1      10.102766679108925      15.265853052116301    0.029595297675723487
    92   1      11.530634336100812      16.683072848449864      1.8478291097287853
    93   1      10.190256601578316      17.771739489573818    0.016628967375709174
    94   1      11.710598816115372      19.227572032014585      1.8603111092710161
    95   1      10.199729047173518      20.404960307069913      36.029731664877353
    96   1      11.443637445151976       21.66671145246314      1.9040716139979184
    97   1      10.158955006398267       22.95413731512398    0.097898379715047543
    98   1      11.295924109058639      24.309262535531783      1.7936382062811385
    99   1      12.713620503737012    0.042693202894055059     0.01590419456487098
   100   1      13.968023385851511      1.2823832895845533      1.8105017719302947
   101   1      12.692663245672247      2.6993072849641524    0.092945727128210476
   102   1      14.215202611502743       3.874860906562771      1.7784032545068837
   103   1      12.816125399680741      5.1770331181912237      36.069009116184226
   104   1      14.093440556224307      6.4717468337171598       1.837553252279382
   105   1      12.697965541488346      7.6713460050782931      35.973056675948946
   106   1      14.064224975684727      8.8796409329643566      1.7167441520348103
   107   1      12.702186971606121      10.131617681369965      36.056666270861477
   108   1      14.041550278759193      11.499496802388698      1.7425482007884625
   109   1      12.600787367815583      12.796240447316936      36.084189670438604
   110   1      14.060092683463921      14.059811160477897      1.7292081842315037
   111   1      12.774542237857698      15.399506980945501    0.020121113456798418
   112   1      14.076781210618895       16.71264672033946      1.9816151831762792
   113   1      12.810506662277223      17.825264005871585     0.11355161955509613
   114   1      14.181524175869653      19.196893194859708      1.8490085051297247
   115   1      12.714747988043532      20.591489157541456    0.033712364120731309
   116   1      14.106102719474245      21.678186090644495      1.9584784657352758
   117   1      12.776854556902487      22.901080307341196     0.16754212783298486
   118   1      14.115694498471937      24.399519897526595       1.886075319280542
   119   1      15.377982734221208      25.504549679624279      36.024603722447587
   120   1      16.441208494958804      1.4383824315637033      1.6805980482307059
   121   1      15.290792971873227      2.5831176686487982      35.986757085552455
   122   1      16.583773688600825      3.8713892986243912      1.9662083191922097
   123   1      15.377723413981965      5.2128555492373261       35.90285796471656
   124   1      16.536820460735843      6.2364567432324165      2.0973457537307132
   125   1      15.205963091050002      7.6415614560102005    0.081554256889978555
   126   1      16.735628320003162      8.8754520905504979      1.8499680246057677
   127   1      15.341472871558876      10.246965349060408      36.011647052959049
   128   1      16.523981146107964      11.416830353971351      1.7586374691039179
   129   1      15.258523569844371      12.708668101707094      36.046693861346505
   130   1      16.605772626164882      14.017125401386297      1.7802559582599307
   131   1      15.294606154916981      15.279569134213695      36.009319806068014
   132   1      16.511470444775551      16.560091128843002      1.5788446828734677
   133   1      15.337176917342223       17.99132749818942    0.051331173789935611
   134   1      16.625525959855437      19.317110931999959      1.7519065282937851
   135   1      15.287440692107749      20.612425012970736     0.10274093266888246
   136   1      16.665015749495588      21.874461635508599      1.8383006404052495
   137   1      15.273714438336784      23.024676611859796   0.0037197046170717759
   138   1      16.544911708966307      24.295104812761977      1.8479578776374734
   139   1      17.952383625968984     0.19509899379709164      35.989508148954862
   140   1      19.090316023849493      1.3262606150288461      1.7373218770984402
   141   1      17.824571889419332      2.6554599995808723        36.0850684002639
   142   1       19.12491593902643      3.9324148173471762      1.8008564286809376
   143   1      18.098532069504504      5.1082907275295453    0.034817317385068235
   144   1       19.08062481769425      6.5383691455033031      1.8153379773022611
   145   1      17.640362565580809      7.5878534885745488    0.025318559816196285
   146   1      19.220482908556704       8.895501975050772        1.81038964738615
   147   1      17.849114561998423      10.197694550925917    0.013835490650456006
   148   1      19.103403822129632      11.568588024031111      1.6848500493316476
   149   1      17.725546085125316      12.679869230736971    0.026650966182319276
   150   1      19.178017713747714       14.11077864880272      1.8498786843996862
   151   1      17.892997097557405      15.307242338867711  0.00065698282919583978
   152   1       19.00781938801498      16.906677111278832      1.8275021623147052
   153   1      17.948634223580783      18.145527629185832     0.14086604966699967
   154   1      19.070287591402142      19.385500810442952      1.8805585913210967
   155   1       18.01760074468363      20.680887901678549    0.098310731096842185
   156   1      19.321981742767264      21.927515287205946      1.8347915787678419
   157   1      17.756511592315317      23.169510923939793    0.014434143937319283
   158   1      18.989407899853607      24.407288101561932       1.726306496766483
   159   1      20.359104604143852    0.078112166306046546      36.028879633543362
   160   1      21.654775915695826      1.3257713499296342      1.6840827331535599
   161   1      20.520545568013588      2.6889303381219118    0.028833250946104269
   162   1      21.729356399797329      3.9675152803068428      1.9306538469298504
   163   1      20.501318155338506      5.1419553253816703    0.086063433994092969
   164   1      21.693548613446097      6.4456584701542523       1.784253510545136
   165   1      20.403473688037469      7.7204989333695542    0.063980670135128939
   166   1      21.666378634559766      8.9950147728800101      2.0666950802727566
   167   1      20.355628468186033       10.30832135910917      36.069442073538788
   168   1      21.671263482312455      11.595023877548078      1.6415407889994658
   169   1      20.442664011705183      12.775166220673752   0.0068238487797316399
   170   1      21.798285908103477      14.278961558111947      1.9261153560041071
   171   1      20.510571879632359      15.407956360775565     0.20968143099628367
   172   1       21.66160119873803      16.982522034386822      2.0137469496819098
   173   1      20.513228404051887       17.91831636669022      36.053138853834319
   174   1      21.688840156076949      19.443508443537407      1.9304514401626296
   175   1      20.382639111369709      20.483980984435263     0.11267214248289299
   176   1      21.561892958760527      22.004467478145248       1.951860476624985
   177   1      20.394365713232052      23.020347692506821    0.051182260090377005
   178   1      21.520677387169286      24.398837412659446         1.8233606603804
   179   1      22.869242509816129       25.41323388608938       36.09678419993773
   180   1      24.173577838241982      1.3587120737762501      1.7741913149367539
   181   1      23.108010111084344      2.3221474216647935      36.034684675981502
   182   1      24.170985918745437      3.8076535473633641      1.7344058940286473
   183   1      23.087656512843921      5.2324360761630535      35.987162326208257
   184   1      24.346366268438079      6.5610934888871899      1.8432165396366931
   185   1      22.986143190383064      7.7894242472022137       36.01944837706889
   186   1      24.169823545988624      8.9966603914488097       1.743426088135424
   187   1      23.123260546601859      10.325258508795576      36.071038416296226
   188   1      24.147419212488003      11.556597130607559      1.8387455445274909
   189   1       22.89147145079156      12.774362873653629      36.053292669534521
   190   1       24.33186775329024      14.211607735967899      1.7856284693444522
   191   1      23.042729190172377      15.447689299238585     0.05275657971263855
   192   1      24.291949563231764       16.68483846141724      1.8171620469046179
   193   1      23.048756364396446      17.966401944223442      35.992630450936161
   194   1      24.252976435516075      19.025500556069183      1.8993875621102903
   195   1      22.960678825689065      20.475490662821056    0.014306565744163911
   196   1      24.353518472663975      21.772031877670624      1.9026372050701053
   197   1      23.080789846278773      22.901840541917249    0.072803035452943851
   198   1      24.393751361171642      24.323871645206189      1.8199236645717398
   199   1      25.481337497181475     0.18869262753756655      3.4784424485708181
   200   1      1.2702796360389514      1.2156799073276356      5.3986830729709077
   201   1   0.0046344055877974326      2.6752457793814637       3.487503057213917
   202   1      1.3998868649285716      3.9604053050302568      5.2649536261454672
   203   1     0.20202218930438831      5.3362358786196271       3.540693405379534
   204   1      1.3693146704878281      6.4346864045315106      5.3821721733118908
   205   1      25.471595769630198      7.7118036975913187       3.533402319963399
   206   1      1.3394945166363739      9.0776418454213683      5.2434493351685321
   207   1      25.431351285888883      10.249803821039482      3.4183346455780681
   208   1      1.3035385880992476      11.593378577875027      5.3138098950521284
   209   1      25.517286349487684      12.865293815858578      3.5321499121816955
   210   1      1.1221740208135385      14.116263366173198      5.5355337434164351
   211   1     0.01666817196843853       15.46501246068083      3.4681156279245227
   212   1      1.2515413824257045      16.583750358433196      5.2340431600283548
   213   1      0.2196060611968057      17.949477509694347      3.6975089078045467
   214   1      1.4610076076771306      19.194898122496106      5.3828945675084059
   215   1      25.523650627057961       20.45142911257609      3.6917065307810808
   216   1      1.4458361820561665      21.614634506850575      5.5563693215809131
   217   1     0.13254671891230035      23.035167219140178      3.6947754256693424
   218   1      1.2947956499685329      24.166578644550913      5.3981115491545371
   219   1      2.7433659355687059    0.043517565142081063      3.6693601642470624
   220   1      3.8701613485997806       1.253474434721634      5.4221952469783545
   221   1      2.7175398871309504      2.7250921611142278       3.378682132994733
   222   1      3.8835872330562862      3.6835584545695159      5.4224343765993392
   223   1      2.7129492515067244      5.2038891310107154      3.4247284891463785
   224   1       3.983771646404997      6.3698353501210558      5.5208086346026626
   225   1      2.7502442267679741        7.90718492309054      3.7073666155454181
   226   1      3.8020795404090522      9.0057651608594806      5.5526422142807377
   227   1      2.5354544046628873      10.397566873395528       3.544751086113922
   228   1      3.9080770918797589      11.444604235250496       5.372727386453457
   229   1      2.3520729978774746      13.006767244547056      3.6036501464972948
   230   1      3.7621233890387997      14.031900072924863      5.2343119418330692
   231   1       2.561260317043724      15.365776407920249       3.436484218457724
   232   1      3.8239432677699159      16.746088158201314      5.3092643787080993
   233   1       2.601151550164277      17.941715101933632      3.6164829017336118
   234   1      3.8907517697512639      19.311937804673093      5.5096526121567697
   235   1      2.6751209740359987       20.49606680286578      3.5987459323133519
   236   1      3.8011382935696663      21.668941038990376      5.6062638814688501
   237   1      2.4766979315368842      22.948224817447475      3.5942588157901807
   238   1      3.7978885084951277      24.254813359015319      5.3853645558214787
   239   1      5.2110916367270583      25.489765597750853      3.7819713199708933
   240   1      6.3731565269231902      1.3637430066867131        5.58788019977007
   241   1      5.0505531648790623      2.4125867987640426       3.674762153107697
   242   1      6.3225006186572941      3.7988304971064242       5.479641204762105
   243   1      5.2536991032654923      5.1160095230405815      3.6920864399457023
   244   1      6.5174858267940756      6.4567018459900938      5.5274512082424359
   245   1      5.0438838179845504       7.582955145177376      3.5419273785398788
   246   1       6.318038911358582       8.981986074638904      5.4707237129200124
   247   1      5.1591750973784052      9.9951559355809536       3.545299998670103
   248   1      6.3522066759095264      11.611621835786828      5.2537407158723983
   249   1      5.0155147385824144      12.754123141626472      3.5986295218506474
   250   1      6.3782474045614599      14.211154045017215      5.1791897338062522
   251   1      5.1988554448790607      15.450209433670945      3.6315071502226348
   252   1      5.0965706476954677      18.046593257847633       3.615910130231387
   253   1      6.2538492621572681      18.998854044628711      5.5059410328020402
   254   1      5.1605124042232928      20.452846767862894       3.709915721946285
   255   1      6.2805129237737631      21.517069358663974      5.6099029927401798
   256   1      5.0028256393559118      22.889369741526099      3.8676296213741059
   257   1      6.4201069184336985       24.03382074465409      5.5169915975513986
   258   1      7.7972014377168337     0.08173429534597805      3.7525051526939124
   259   1      8.9419127421074105      1.2839616785763344      5.5316772055275942
   260   1      7.7821646218683425      2.6147126403564185      3.6799628661419144
   261   1      9.0847074332203341      3.8557920289780201      5.4790769565947866
   262   1      7.8286656097238154      5.0937224419095841      3.5965850871768557
   263   1      8.8958445500550614      6.4910305866255715       5.269166834003995
   264   1      7.5809666718470634      7.7543734580997521      3.5575927900499535
   265   1       9.112037797460264      9.1006731311409457      5.2902221651921488
   266   1      7.7885743254750777      10.246166804798005      3.5674184179487969
   267   1       8.927055041161255      11.445431353655307        5.26324804774905
   268   1      7.4943886550208312      12.740721804770649      3.4544250808200228
   269   1       8.920398202349455      13.998357439119047      5.2670634641137717
   270   1      7.6639328605339214       15.32654127280272       3.437144236511303
   271   1      8.7444136135866088      16.562343835808552      5.2987894122465935
   272   1      7.6255519197354582      17.917777084548071      3.6121271158677861
   273   1      9.0799424032340124      19.097083795083414      5.5008457128864396
   274   1      7.7592220703402202      20.215771773716149      3.7219418474121668
   275   1      9.0580706584025297      21.561466838481795      5.4715738056827821
   276   1      7.3982735362436713      22.628376231985424      3.8619240833823127
   277   1      8.7568338091370741      24.226350401428597      5.4457013568573664
   278   1      10.132756161768274     0.14947937103768169        3.73754787347427
   279   1       11.47338236912424      1.2124626849501567      5.4876519519381466
   280   1       10.33455515126357      2.6047422983043025      3.6747646713515696
   281   1      11.494036987605202      3.8796447534692313       5.489437622402022
   282   1      10.232971184678789      5.0878434702774342      3.6274433389062639
   283   1      11.386114344751107      6.4965834907739293      5.3910635604349109
   284   1      10.132419551725643      7.7147277204032783      3.6370227601855816
   285   1      11.617733867210783      9.0430223689624611      5.3443028513998572
   286   1      10.363361258921888      10.229371098188711      3.5668353098158363
   287   1      11.577178320411907      11.619429303276265      5.3655925791205599
   288   1      10.265838948994988      12.829262902903221      3.6574931516858453
   289   1      11.374182751545131      14.143605496993509      5.3606089371661083
   290   1      10.148890837880346      15.449505793108777      3.5354838310628245
   291   1      11.439553815661945      16.683533551717069      5.4487760829831053
   292   1       10.02850213232303      17.923426716159156      3.6995491835076524
   293   1      11.623994666844993      19.071754868446558      5.5444747780620407
   294   1      10.245502773096932      20.423452879178488      3.6597767927641236
   295   1      11.447169411938274      21.913420038494738      5.3830465575717783
   296   1      10.101797567445026      23.034043651528098      3.8101717396516945
   297   1      11.637354302533375       24.31837101139617      5.4476899605207159
   298   1      12.617878475450214    0.065394927235540051       3.554279507600131
   299   1      14.136044568408675      1.4820291621361097      5.4589481439052978
   300   1      12.709925604456396      2.4922597494660077      3.5983188890928441
   301   1      14.044271490226341      3.8253334471538163      5.3638709324787284
   302   1       12.68825580137268      5.2043072607240317      3.6830318077511568
   303   1      13.953655644136129      6.4167569732284262      5.4109318229026933
   304   1      12.763478677294588      7.6834279340906333      3.6567172842362856
   305   1      14.169035267782847      8.9253811654810864      5.4940733451090562
   306   1      12.926246690125359      10.337760836252476      3.5339809987027477
   307   1      14.120956959844362      11.524940017193799       5.466401795259662
   308   1      12.769079672389152      12.843675569332678      3.6070053513935472
   309   1      13.959351058195612      13.961700423966938      5.4023407092972988
   310   1      12.656063285677496       15.48035631585917      3.5647980623478488
   311   1      14.065356910413085      16.520558943565177      5.3415966177333827
   312   1      12.834307296919956      17.840573472649012      3.6855960158954568
   313   1      14.073654083379759      19.186986298986412      5.3207494632224481
   314   1      12.724264229549394       20.44378349077531      3.7360512397543761
   315   1      13.941866677645056      21.559592368246076      5.2772461704752223
   316   1      12.662868333854377      23.082229130669422      3.5336095023333551
   317   1       13.95945805015884      24.530459019174184      5.4591418201628867
   318   1      15.355053471120948     0.16921480751102413      3.7560863079653086
   319   1      16.554093378910597      1.3480042856431287      5.5398610667894443
   320   1      15.211446368602941      2.5732682686832575      3.5001477546081783
   321   1      16.635505888621051      3.7862793441988636      5.3848954922061925
   322   1       15.14884197722184      5.1485511282372753      3.6780812243750627
   323   1      16.526469212727196      6.3446947851294428      5.3889000724131959
   324   1      15.314969111042375      7.6133057471224017      3.6390317379711541
   325   1      16.610698423424001      9.0064666461482599      5.3581283861933908
   326   1       15.43132710830438      10.288169409511774      3.6542723812548901
   327   1      16.540595930623589      11.662097746550437       5.521614577425602
   328   1      15.237041112125427      12.891338488306163      3.6264343251750568
   329   1      16.592838317461638      14.214984136862306      5.4842596812171198
   330   1      15.243050736657201      15.186629847732732      3.4977454704724309
   331   1      16.592187460630683      16.620961735989685      5.4393626346030075
   332   1      15.529001624813466      17.893113215813056      3.6389318785349332
   333   1      16.653556154958192       19.11010912037538       5.363556157367718
   334   1      15.370961239960325      20.531658575587041      3.6561391977424331
   335   1      16.600321622060342      21.752508192023587      5.3266755706039284
   336   1      15.329754617244369      23.080637149877024      3.7110400220081123
   337   1      16.410932255395871       24.33577523269933      5.3873556758613192
   338   1       17.80751105455975      25.446211047214518      3.6149902258919449
   339   1      19.143617258566426       1.331916005440609      5.2430003602356585
   340   1      17.717230913759757      2.5062326347472963      3.5682422341129825
   341   1      19.179292441846062      3.7455113466683958       5.409203990409079
   342   1       17.93116909791372      5.0182906025609997       3.816389280892786
   343   1        19.1646099612678      6.5068832748638155      5.4213877975011551
   344   1      17.935939464318505      7.5889166299855324      3.5447970431564513
   345   1      19.008305973434702      9.0720302933131638      5.4144305653107372
   346   1      17.932373320141039      10.217244157180284      3.6060558590502296
   347   1       19.03155520523045       11.61563820083469      5.3568615146744669
   348   1      17.887648712466891      12.903336108204684      3.6086514996442931
   349   1      19.091680167247265      14.116051093802159      5.4781423474723141
   350   1      17.859153158750846      15.370016881914546      3.5769765824464579
   351   1      19.086659561840239       16.50595536061585      5.5083604875061498
   352   1      17.910232505500829      17.887780127354738      3.8581439602139951
   353   1      19.112290875645787      19.197728464774233      5.5789011985904624
   354   1      17.901466956404054      20.426976173458709      3.7642891291685601
   355   1      19.096204687997371      21.797332031819785      5.4709686927968573
   356   1      17.988232809732278      23.018559159614217      3.6804302451575599
   357   1      19.110775072176732      24.352431317184898      5.3485435836003195
   358   1       20.48363608988771    0.076365366846126936       3.602659513455535
   359   1      21.829147781113363      1.2657152263413394      5.3138702754311682