dump/Cu_400_20/steps_31 (written by ASE) 

1980 	 atoms 
1  atom types
0.0      25.526554800834361  xlo xhi
0.0              25.5265548  ylo yhi
0.0      36.100000000000001  zlo zhi


Atoms 

     1   1      25.435563429479803  0.00099123322812980975     0.10920489626532794
     2   1      1.2716076681073192      1.4304085462814824      1.8874169303844488
     3   1    0.070849452155752918      2.5591068438156936      36.049756564840379
     4   1      1.3688867636763362      4.0993032260533973      1.7099549602388264
     5   1      25.488372111449273      5.2252578738864202     0.03670531515946323
     6   1      1.1953668851358865      6.5071968885445592        1.69133633340084
     7   1      25.369915689718212      7.6950575138435067      36.042850026930147
     8   1      1.1427251821239235      8.9496921200483968      1.7775116156760427
     9   1      25.435333518183299      10.243522769284665    0.040499818534351521
    10   1       1.218634947561092      11.631927264743064      1.7276000750218377
    11   1      25.473128512047015      12.865434129777727      36.011353962335882
    12   1      1.4025953199221648       14.20380639512638      1.7906776204790742
    13   1     0.15941149997380105      15.428690395509616    0.048877312587308021
    14   1      1.3356664647319323      16.705976852405399      1.8752903621181405
    15   1      25.484084314208307      17.830858019637351    0.084231498179860947
    16   1      1.3820999769789015      19.143364913490096      1.7195905507634488
    17   1    0.088200248132246875       20.33511564405287      36.077041317163108
    18   1      1.1837923078198711      21.683866098830574      1.9676053790798853
    19   1     0.19271026746655523      22.867447729082119      35.941845058122077
    20   1      1.2101032874080999      24.265678824321647      1.9863285294854782
    21   1      2.4498260412164194      25.337454895082551     0.12652310762294983
    22   1      3.8852343987774463      1.1660566631147036      1.7832532753209411
    23   1      2.5530353423471697      2.5399476802083538      35.995916423706717
    24   1      2.7212696133503496      5.1289022034890728       35.98255372335791
    25   1      3.7898455160577877      6.3037611124191191      1.6161405018802255
    26   1      2.4721098153418875      7.7066377694051846    0.013868516576621925
    27   1      3.6765085799828365      8.7711531980100972      1.7545348960605347
    28   1       2.479759306786661      10.161412649068421      36.072960112060791
    29   1      3.8683087462325174      11.347667025237808      1.7376462849263581
    30   1      2.5962725416798489      12.742435379118367    0.092135438938896627
    31   1      3.8860539651194923       14.01039753035897      1.8054872606899715
    32   1      2.5523698091880194      15.444729410882013     0.18264914604051227
    33   1      3.7874284981494393      16.455598306259109      1.9410879793960234
    34   1       2.474989560180743      17.848225799972074    0.021179624525348106
    35   1      3.7830671175138333      19.087387063677625      1.9249345209564706
    36   1      2.6802805586764187      20.315914292418046    0.040188964323692643
    37   1      3.7414084742894831      21.552047756923194      1.9532896824223949
    38   1      2.6692769290533986       22.93670603857359     0.16051789124213672
    39   1      3.9504101459429526      24.194904563807295      1.8705641386901548
    40   1      5.0759769577604379    0.027105038327812841     0.11327367058969469
    41   1      6.3972704231516824      1.2619560220891348      1.9005812526973827
    42   1      5.0520737514677743       2.540663613861899    0.033032932061018969
    43   1      6.3601425127495688      3.6529380640517788      1.7967979905317419
    44   1      6.1966414943636989      6.2131955070751461      1.8690632066162838
    45   1       5.151008063987911       7.502834143368168    0.040762832399025214
    46   1      6.4053284846696519      8.8167020217756917      1.7685827025443355
    47   1      5.2234580106079465      10.126927771493552     0.13535746782280278
    48   1      6.4324564909290212      11.787620901287665      2.0579788968723629
    49   1      5.1175670484897946       12.78314220635191      0.1307151601079341
    50   1      6.6014943897530847      14.135615672554602      2.0040220966663469
    51   1      5.0867065246670951      15.206247642007025     0.13024366245662117
    52   1      6.2668458466086383      16.782151191882683      1.7790224649421471
    53   1      4.9330377620094605      17.824634169799804     0.05246265155657269
    54   1      6.3523151734389067      19.267935215120808      1.6172384199503309
    55   1       5.113240893181211      20.443183655494224    0.070590201559605326
    56   1      6.3205244239621461      21.795630637999356      1.8208088216701648
    57   1      5.2833844812582083      23.076330534106742    0.099979630081327278
    58   1      6.2979618513589104      24.275637819548376       1.966785461083477
    59   1      7.6220731335073175    0.056342238950626192      36.095619480923595
    60   1      8.9333836867614682      1.2753163246120951      1.7387195506139626
    61   1      7.7669449905781454       2.631398398373284      36.043935036934542
    62   1      8.8909311317817075       3.926677271249293       1.847487525254349
    63   1      7.5434715150634668      5.1723146827321322    0.098339995739104374
    64   1      8.8113941014687942      6.3601443651184786      1.8597165654758796
    65   1      7.6357090800389384      7.5848657224329932      36.037551961117757
    66   1      8.8694444757550439      8.9267366366340664      1.6799314514895729
    67   1      7.7137027462262004      10.205852642341917     0.14809174335804304
    68   1      8.9733216436482603      11.599749513813688      1.7725561677081259
    69   1      7.7038808178390621      12.862607354853047   0.0020081612758758621
    70   1      9.0683165408663982      14.150066869285899      1.8000615215063593
    71   1      7.5180639863926109      15.354313771091769     0.13343183467378597
    72   1      8.8769202360799824      16.685518576298282      1.8395166641549516
    73   1       7.586208759573128       17.99850847290616     0.11815371491367173
    74   1      8.9361522805619789      19.173312353196483       1.731098150789445
    75   1      7.8010360074023186      20.724620980426195    0.072365817733975782
    76   1      9.0010254250139781      21.740412028175218      1.7917784055097747
    77   1      7.8024445438853576      23.052213115556459      35.918745808690709
    78   1      8.9622824414118671      24.304949789898178      1.6519794336101079
    79   1      10.285455434479038      25.424086932562133      35.971084277482596
    80   1      11.431875571971178      1.3220142234520111      1.7524854631779034
    81   1      10.209422344954744      2.7749001795949071     0.17171815182891798
    82   1      11.583393804442185      3.9819418274227054      1.9004181345080606
    83   1      10.132697220169062      5.1285941446337997      36.093980935951784
    84   1      11.468713322809508        6.47451973526098       1.830395410849623
    85   1      10.071596692235712      7.6275153497416435     0.11883332665476018
    86   1      11.478773596122581      8.9170691159984425      1.7598645647903941
    87   1       10.36664797413744       10.23276326576033     0.06281099486831189
    88   1      11.612953132261859      11.508917615744339      1.8047521067312922
    89   1      10.269170635038391      12.854934163872379    0.039942826665276411
    90   1      11.513725899386639       14.12033005217363      1.8092679789438195
    91   1      10.268838372024007      15.276509770665111      36.094237132274685
    92   1      11.413774257820767      16.685560309516205      1.8517089580308841
    93   1      10.281456277466983      17.873772429731858    0.024566326991055109
    94   1      11.621799923168345      19.163812988767354      1.8796682707706627
    95   1       10.25828776424146      20.486491075679126      35.907085558305816
    96   1      11.448503538662527      21.769117601154612      1.6536744835503911
    97   1      10.316421153973092      22.936485882184869      35.978274131603172
    98   1      11.661104330988465      24.285134422216888      1.7356128388680065
    99   1      12.779883380651343     0.14580614465548766      36.083240478921333
   100   1      13.827028383076254      1.2298977382763157       2.025734979367587
   101   1      12.845346514273025      2.5775778864589651     0.19415108462773115
   102   1      14.056210303351614      3.9053656005206738      1.9072464289582405
   103   1      12.814987707138393      5.2005657760897837     0.13245748006866062
   104   1      13.968011424500251      6.4435061092199799      1.7713910869836935
   105   1      12.654770081946699      7.6142569145683732      36.082344275191986
   106   1      13.902460016072425      9.0688664537829702      1.7843474278019491
   107   1      12.689719560603708      10.231424981217577      35.928734020411355
   108   1      14.012866242693649      11.574147437930566      1.9617201332075869
   109   1       12.79910782065183      12.766512851517032      36.054199217961198
   110   1      14.142646284618753      14.078735172861446      1.7861922238999688
   111   1      12.722561247251662      15.300251165074119      36.082484343838686
   112   1      13.961557163828882      16.672052687887877      1.8190994600288488
   113   1      12.727439039032511      17.989276217843305    0.046152514326877184
   114   1      14.097737478216834      19.321755768946279      1.7754659523388563
   115   1      12.897940220492501      20.349133352671966       36.03135053627134
   116   1      14.102541531659122      21.906370784228081      1.8391488321471563
   117   1      12.902661440121872      23.106832480492095      36.046354906755525
   118   1      14.148508157412902      24.317770697627825      1.8010340912980942
   119   1      15.298824938783758    0.061734183258870298    0.052360072915405474
   120   1       16.56531894714227      1.3589170438798892      1.7904511945583514
   121   1      15.341395209413019       2.699342163881278     0.10962258134519529
   122   1      16.685050893394099      3.9624163506552295      1.6983694014127981
   123   1      15.301983490812312      5.1223330505885354    0.084131884689759295
   124   1      16.510492257446533      6.3452560677165906      1.7586787496042458
   125   1      15.115160908440458       7.832025637792797      36.045374881818049
   126   1      16.474335680345419      9.1115306761396582       1.687814251990416
   127   1      15.302083255310949      10.329713466800486      36.023408914654048
   128   1      16.499534393611125      11.609200594076471      1.6929521989352463
   129   1      15.362606746754635      12.938595641528297      35.976765988296073
   130   1      16.657408771033506      14.198459973514046      1.5882682339837417
   131   1      15.452170369817541      15.451313080600508      35.944300239880832
   132   1      16.603841543504718      16.690872832483443      1.7137480332340602
   133   1      15.225315460440992      17.942496895085274    0.058706361930478422
   134   1      16.606916825463447      19.208105771599193      1.7207157200602421
   135   1      15.376029696471939      20.603198198468654    0.030222368884938067
   136   1      16.588936253876117      21.664008300183873      1.9212779791264782
   137   1      15.457152653607924      23.096250830356229      36.074172566561295
   138   1      16.504152998190651      24.230059879795935      1.8111257942936398
   139   1      17.871483427744874       25.50458596072988      36.004941145442729
   140   1      19.274420913112614      1.3243072025894176      1.7610105381502414
   141   1      17.920964770732525      2.4849430366285268    0.072885815694348752
   142   1      19.089979329793003      3.9162446336858676        1.71825471695281
   143   1      17.856448348763323      5.3029208520830684      36.010898754386936
   144   1      18.963576374187859      6.4395864542371983      1.8267470696454677
   145   1      17.779648182312691      7.7271933628626481      36.085572745485621
   146   1      19.093945141313647      8.8894906988994915      1.7213984759935341
   147   1      17.914380783757736      10.326938094381374    0.049716156485749077
   148   1      19.204327515229423      11.750418092132495      1.6616426657757528
   149   1      17.800535875792548      12.922324049003731       36.01531573539107
   150   1      19.131948341360083      14.292443331457431      1.7524247567818756
   151   1      17.940165038258332      15.304329948032006       35.93261181829741
   152   1      19.160613859586014      16.685379213297093      1.8682633222950824
   153   1      17.863783664835882      17.862001195178255      36.036427111080556
   154   1      19.231318483776562      19.330689130294456      1.7566095197295564
   155   1      18.058560733027395      20.490833948121342      36.063335018608271
   156   1      19.250808257647439      21.670838660858372      1.9324950628494668
   157   1       17.89708930031545      22.938384777790095      36.003810263951813
   158   1      19.041657769796338      24.352845381518115      1.6550555926066992
   159   1      20.535665701661625    0.091917687325415484      36.005110399216896
   160   1      21.843976654006592      1.2784987556355103      1.7426665493155611
   161   1      20.568652667427749      2.6578213734065286      35.885932226040254
   162   1      21.740405962579899      3.7884263345113172      1.7814468126589307
   163   1      20.525250064827006      5.1306139906167036      35.995764117268919
   164   1      21.725336263385874      6.3488964442514302      1.7096329477330292
   165   1      20.405823503572439      7.5612904503781557    0.064847706899672744
   166   1      21.704731796912718      9.1451719730499192      1.6227340217696691
   167   1      20.287824095138465      10.038537321240774        35.8855612136011
   168   1      21.771892756267221      11.547030539613713       1.824536838606013
   169   1      20.431461706761496      12.830714010325391      36.079671952979893
   170   1      21.686624477872112      14.187422628736023      1.6681219729411756
   171   1      20.500108664260804       15.31811253115387      36.008164813413906
   172   1      21.727414625872413      16.733578501035403      1.9168430723902821
   173   1      20.399042181267671      17.780970322277618      35.978767595993254
   174   1      21.605886722488073      19.080401457443603      1.7917040194679423
   175   1      20.660506014867195      20.286084200609697      35.981803257140392
   176   1      21.690137129926242      21.660484602132136      1.7204108680882886
   177   1      20.413015019934061      22.960826235115565      36.000028118254797
   178   1      21.797338082343028         24.253370593987      1.6686506309397611
   179   1      23.044844822868853         25.497254092913      36.041020993367631
   180   1      24.279435602677989      1.4115515836214265      1.8821940887562396
   181   1      23.042530840494699      2.5139353126730262      35.915205094997503
   182   1      24.393889993545336      3.9313733172197267      1.6392626908295949
   183   1      22.890179189362591      5.1192047548864164      36.060249044824822
   184   1      24.233829295316443      6.4388539265425218      1.8080093486730553
   185   1      22.832436425120591      7.7644946546622311      35.975788457728946
   186   1      24.088314805570963      9.0135593779260912      1.6873197567563685
   187   1      22.896163674970037      10.300819133645412      35.958807022108623
   188   1      24.174873847043337      11.543271938763898      1.7066954697414749
   189   1      22.983228740191883      12.753771940206894      36.044919022920688
   190   1       24.07396095198574      14.182419435383819      1.9416112257228415
   191   1      23.113140183450792      15.198163259598727      36.063654668704736
   192   1      24.305113026336244      16.544402548045294      1.9012922771065195
   193   1      22.926680255628298      17.746643511468136    0.063970477595069214
   194   1      24.396094753511544       19.09328239156704      1.7200670820747743
   195   1      23.108926199033416      20.209735273822801    0.050532546200031545
   196   1      24.279997376895722      21.633129303881343      1.7834340091553953
   197   1      23.015324154572777      22.886765010992072      36.024131978162742
   198   1      24.295693050547698      24.170330002088161      1.8869235422340935
   199   1      25.515800976472768    0.037809232672867198      3.6099290769695922
   200   1      1.1415553380678933      1.3023233241643966       5.367111200372614
   201   1     0.12180143380978811      2.7007246448849305      3.4819942725822921
   202   1      1.3523854684079168      3.9031010053902588      5.4310726227585127
   203   1       25.42744082479846      5.1438328921043297      3.4723371685936044
   204   1      1.3503541835064241      6.3221134576492251      5.4075319742003822
   205   1      25.439358005386925      7.6914465295487648      3.6164026463272307
   206   1      1.2089432721644717      9.0078933145584656      5.4035251192619134
   207   1      25.412104411241188      10.190623911253811      3.5686817621705824
   208   1      1.1766472804354928      11.423652763283576      5.2330847567347814
   209   1     0.13910221398539302      12.730976493710623      3.3868340060261515
   210   1      1.1948134702424673      13.957254652693781      5.3587913304994466
   211   1      25.463859750223399      15.222468325995614      3.5498339051002872
   212   1      1.2980575152093878      16.600725948255278      5.4994536706281663
   213   1     0.01718282764182915      17.779503881158664      3.7352452492008106
   214   1        1.40048685947326      19.016655442459886      5.3837904676291162
   215   1      25.513866669076123      20.289540512731524      3.5815955120099847
   216   1      1.2841001687343205      21.573907536476256      5.4796902048883371
   217   1      25.480689532553168      22.964726084980637       3.654410902750167
   218   1      1.5069363016734449      24.242054091012569      5.3942469312714989
   219   1      2.6351939375759339    0.059163370291170331      3.5243778148948754
   220   1      3.7107897445898677      1.1918077430324476      5.5083072565670266
   221   1      2.6591198278962254      2.8264023921835633      3.6406668683278296
   222   1      3.8677569517503136      3.6111884174670772      5.5636036085201264
   223   1       2.535280896503374      5.2551467391530648      3.5044753720231498
   224   1      3.8346584595010786      6.1366490530235929      5.3934617456182439
   225   1      2.4989993279461062      7.6422246654938775       3.638305674069537
   226   1      3.9407696552775358      8.6679764721832253       5.280601315554275
   227   1       2.549484481214372      10.239140303798608      3.5403295590962789
   228   1      3.9073838982282334      11.407718968975322       5.334627770938126
   229   1      2.6454893573998652      12.765171747364507       3.596953004910985
   230   1      3.6734221578960429      14.085054768116564      5.4201801880446796
   231   1      2.3556032011184351      15.359829314509945       3.616968612210091
   232   1      3.7400292168266311      16.555499888678966      5.4659851322143336
   233   1      2.5736600298371468      17.808559404673957      3.7559701754278363
   234   1        4.05469834441862      19.203881018194934      5.4390289988327414
   235   1      2.6540800522609165      20.369952755291845      3.6257568862977494
   236   1      3.8352113991894559      21.588980735063412      5.4228234088959262
   237   1      2.6687388176233604      22.821435751720397       3.721271008588332
   238   1      3.9819900705857671      24.204912372627014      5.3758824664797329
   239   1      5.1078425851926141      25.424689464708553      3.5320780046684037
   240   1      6.2076753724862792      1.2362310881767407      5.5371426388721661
   241   1      5.0992478904968124      2.4187066269158688      3.5590358392260319
   242   1      6.4098611714715696      3.7614403810355332      5.5360750464349433
   243   1      5.1011545717901958      4.9202373614267705      3.6195385298233913
   244   1      6.2378760750333342      6.4759043329467749      5.2549149535219009
   245   1      5.0745973370994077      7.5835257438544064      3.4789271657537584
   246   1       6.401938610455832      8.7744346552751775      5.1898345738423357
   247   1      5.1267836297465799      10.109134217486925      3.4337415572968681
   248   1      6.3710907551315579      11.385730199553352      5.3715845408119849
   249   1      5.1020871189112702      12.928522055123317      3.7465245979278148
   250   1      6.3116576201320402      13.989177978458198        5.35988967391794
   251   1      5.0068925399821618      15.263577343829297      3.6802353492737812
   252   1      5.4080448259921994      18.007401883523265      3.7047841796425884
   253   1      6.6747112498076193      19.050845123350868      5.4044386922429624
   254   1      5.0958433419368907      20.504580461021117      3.5991658066569494
   255   1       6.162562503492933      21.387572701312816      5.6874057901043376
   256   1       5.276188653212242      22.823624782619667      3.7013573114882141
   257   1       6.434026012392466      24.306046747954408      5.4386944420297088
   258   1      7.6664996212794447      25.283238129543449      3.6883621305424148
   259   1      8.9153820469376903      1.3492160468305199      5.4364371764792025
   260   1      7.7288220472489648      2.4578533829862055      3.5938553523305719
   261   1      8.9475433545934369      3.8601705046471193      5.5017037919838003
   262   1      7.5897524371287757      5.1012289748526474      3.6163588770955823
   263   1      8.8658103661580689      6.5371181767839799      5.4247678287812198
   264   1      7.7036444191530551       7.791940620373075      3.6894489113098192
   265   1      8.7787206548293604      9.0370649158591867      5.4244693838635722
   266   1      7.7439217134220675      10.281706208172276       3.455928361375983
   267   1      8.9711653823405566      11.558932072386041      5.4872029758766416
   268   1      7.8571481776853851      12.719884133050254      3.7208798795137836
   269   1      8.9728070953065746      14.028781048676461      5.5816748493774675
   270   1      7.5799305671102264      15.378146175902794      3.7642612185656872
   271   1      8.9653479443338711      16.659567643330632      5.4181474876634033
   272   1      7.7247396288528725      17.842117951521043      3.4148264525477097
   273   1      9.1019854210934366      19.103451612093725      5.4389042203340772
   274   1      7.6938920014513776      20.528941084735596       3.575701429606978
   275   1      8.8580099622000041      21.666706871545546      5.5010434662380296
   276   1      7.7993897501568981      22.947941864198285      3.4314122908813145
   277   1      9.0671037292967274      24.181154436901011       5.463368991412068
   278   1      10.256308557244443      25.479187326562645      3.5833059470896167
   279   1      11.530315236413411      1.3090330087962148      5.4459809543473865
   280   1      10.175506967697155      2.5043710343298398      3.6246300097303319
   281   1      11.424326080736877      3.6743334482779852      5.2864337654681641
   282   1      10.202488088232045      5.2121479657347551      3.6489085186965688
   283   1      11.427900791075293      6.5051455266484073      5.2491919488800436
   284   1      10.186966183452439      7.7566480027439475      3.5961277158692373
   285   1      11.376511945878692      8.8812251590710645      5.4008389166604083
   286   1      10.205603187939056      10.341680516448145      3.6452988922768044
   287   1      11.569070193273824       11.57555435089715      5.3577194745766308
   288   1      10.249232767943035      12.862396770278462      3.6371875801747682
   289   1      11.447516239134682      14.111537485022417        5.49199472426504
   290   1      10.238215382110486      15.446282908202692      3.5828873160856562
   291   1      11.564719322836442      16.502670425069432      5.5105338273911082
   292   1      10.196287135422494      17.986631239772745      3.6010509126163477
   293   1      11.474983861179908       19.19306177511384      5.5532339177139391
   294   1      10.177711799996539      20.563070918961561      3.7024959983765475
   295   1      11.514633375885614      21.720870126677056      5.5261191637384703
   296   1      10.251482048300931      22.947043691301758      3.5190161251018495
   297   1       11.56905831521094      24.214570616660701      5.5595154675016474
   298   1      12.786951221556347      25.514133461230209      3.7085004028544963
   299   1      14.070519103522949      1.3966412811777289      5.4932727372769641
   300   1       12.97719116331384      2.5099083929445931      3.7639098680938456
   301   1      14.156395800496581      3.8018657921543508      5.4749812282212265
   302   1      12.744165557663013      5.1595051184818015      3.6339290064419161
   303   1      14.154775760318593      6.4603470970963617      5.5119318937711084
   304   1      12.875916104896319      7.7015585991033655      3.6360395895825586
   305   1      13.981208960908686      8.8786924569046946      5.4591046110354755
   306   1      12.828663661959993      10.263230253840533      3.8286415409009615
   307   1      14.152584862483197      11.622432392020125      5.5057691956150716
   308   1      12.907853617515627       13.01659532950463      3.6807930264487401
   309   1      14.002176670881452      14.194063329433344      5.5146401566457657
   310   1      12.771950120277058      15.290286791030246       3.615920760883542
   311   1      14.073829739424097      16.656895006738193      5.4430895893826694
   312   1      12.688198362127089      18.048782287438076      3.8541188520962035
   313   1      14.090262957422846      19.196346261361676      5.5264692327969502
   314   1      12.811400944684738      20.476631949903069      3.7128262418297298
   315   1      14.143708469702439       21.64271476106326      5.5336935903670863
   316   1      12.715163149089967      23.027817982614863      3.7083055747252192
   317   1      14.049310172285564      24.412907391111915      5.4664973267882884
   318   1      15.283256909841523    0.066150567753576014      3.7562512794161256
   319   1      16.621632895504195      1.3993210115032577      5.4628132969745922
   320   1      15.554624389934098      2.6862536939956074      3.5601308215755361
   321   1      16.639233783947674      3.8665104615109889      5.4340078854992173
   322   1      15.299774589174454       5.216389587756038      3.6099504863784313
   323   1      16.628535916519471      6.3711286689087219      5.4307925747127674
   324   1      15.217234856656788      7.6443264001119786      3.6434336094977251
   325   1      16.477051342155633      9.0503212836065376      5.3769106682209848
   326   1      15.211805799202255        10.1719364996103      3.5839443615121693
   327   1      16.615816808248901      11.516921220055947      5.3007754701686638
   328   1      15.388573179027347      12.940461920432595      3.5751263143177412
   329   1      16.504627697714891      14.065264281554581      5.5097326012402039
   330   1      15.376762788530868      15.475983188260175      3.5755048292228486
   331   1      16.528078554028401      16.654109178095766      5.3318651506036989
   332   1      15.358544874850031      18.045976982530551      3.5681193708065839
   333   1      16.661277884105914      19.053449065788438      5.5451644462554901
   334   1      15.508707132897433      20.395402113184861      3.6558593508465758
   335   1      16.587870285147563      21.668351404750997      5.4464546912461866
   336   1      15.280537099464453      22.942442625613314      3.7852340830078095
   337   1      16.661652333348577      24.363643237205881      5.4861734333727599
   338   1      17.749655985047898      25.479550971979339      3.6839543278764912
   339   1      19.042490020043669      1.2712917679049034      5.2521936018556961
   340   1      17.967486299321845      2.4945542092120938       3.460556454660968
   341   1      19.318126648959161       3.925999363498093      5.3960179116819713
   342   1      17.896664937713695      5.0525808072386171      3.7335035320782608
   343   1      19.244278786549202      6.4240160976471001      5.5206722184957018
   344   1      17.720827282019076      7.6606565873034542      3.6491754230338551
   345   1      18.963173381485991      9.0123446949831738       5.292379891261711
   346   1      17.728699298663347      10.194497376511226      3.4642316878070343
   347   1      19.064813706355402      11.507518647891972      5.2162080405232985
   348   1      17.833900026524898      12.855560301381058      3.5346896771907512
   349   1      19.015043562263173      14.169125128565884      5.3839254727687669
   350   1      17.821990270083408      15.487751487122702      3.8393723860202087
   351   1      19.078598536321852      16.722793055486751      5.5110469127629962
   352   1      17.897924796132965      17.985681542911831      3.4640111787475334
   353   1      19.167415095599718      19.171911865526049      5.4663640939322526
   354   1      17.855247869282529      20.432133936681304      3.8095699920907644
   355   1      19.104531435831998      21.608251793494411      5.4976595847219265
   356   1      17.916499563456892      23.024466479813771      3.6872210978478885
   357   1      19.146848186867082      24.257092985932353      5.5909776661107662
   358   1      20.305846133896921       25.37234930293652      3.5248487512989084
   359   1      21.663706986016706      1.1523587959688077      5.3148564012205499