dump/Cu_720_20/steps_51 (written by ASE) 

1980 	 atoms 
1  atom types
0.0      25.526554800834361  xlo xhi
0.0              25.5265548  ylo yhi
0.0      36.100000000000001  zlo zhi


Atoms 

     1   1     0.12942764406973079     0.19643448324648718      36.035817259528777
     2   1      1.2196500505325554      1.2527964567499188      1.8351156629837746
     3   1      25.292113280225728      2.6292091052317761    0.046165004926115104
     4   1      1.2599188457472588      3.8741398034853813      1.9371808506789177
     5   1      25.374899170787426      5.2538132057640636      35.859523767300821
     6   1     0.85011036893903957      6.3764737577767647      2.0608046887314897
     7   1      25.521327055261558      7.6932226052690256      36.088347824711057
     8   1      1.0774403719446419      8.8867566615828846      1.9770644594089724
     9   1      25.370023050918721      10.180517040076646    0.024873759334661825
    10   1      1.2527993951576175       11.52421017620156       1.708712856472606
    11   1      25.447187715066782       12.75151498646388     0.12721227706218788
    12   1      1.2132333885987172       13.95282574250391      1.9032890548134884
    13   1      25.483924751298204      15.227482838200498     0.48235331016438721
    14   1        1.35956005272279      16.479419977699777      1.9097478607077623
    15   1      25.478846154514905      17.761316964824463     0.10127720971834143
    16   1      1.3845750584298375        19.0682506502643      1.7337755154114791
    17   1      25.480388623625931      20.369956899958375      36.025836680901257
    18   1      1.2102360241589538      21.473580933499875       1.770512111296445
    19   1      25.425411309967512      23.082803166073543     0.10991577664125303
    20   1      1.2857611818468744      24.269405653327908       1.733571443711482
    21   1      2.5460337781075326      25.508187489397727    0.034208673631462724
    22   1      3.6511981412677184      1.2087898275469837      1.9142092841443763
    23   1      2.2393437610917872       2.539538799707552    0.044298189641051672
    24   1      3.7913316374896824      3.6632966565317466      1.7930367744646092
    25   1      2.3264502076571403      5.0332277433481476     0.12514406106308815
    26   1      3.7535976380756368      6.1664185255411965      1.9326234296936959
    27   1      2.4585245322434228      7.6644206751843509     0.34551688359970267
    28   1      3.7806156048392423      8.9273505576882588      1.7988056628703819
    29   1      2.5178818443071331      10.254776619092787    0.041107893813364271
    30   1      3.7908928396345427      11.425639849123877      1.7719941262797771
    31   1      2.4974762328862585       12.82298384622084      36.079351227230951
    32   1      3.6095471359773357      13.998636761735968      1.7006201276011998
    33   1      2.5233610467959107      15.433784818164202      35.939242627282574
    34   1      3.8219765316689891      16.399459912270608      1.6517971418694646
    35   1      2.5216619776956404      17.742478648419013    0.039620777743846175
    36   1      3.8876967338335939      19.208470674098379      1.6837525609520629
    37   1      2.3854254818846026      20.213105991401324      35.970448246903011
    38   1      3.6587101500257133      21.656937320399244      1.5927354485608363
    39   1      2.4068152515041628      22.978670110573923    0.020195317465606891
    40   1      3.7386377790918561      24.137929033708243      1.7363106155462802
    41   1      5.0657202432512713      25.415526251879143    0.082889058598743626
    42   1      6.2523318866887134      1.1788972245659324      1.7696985760622055
    43   1      5.0204837243479226      2.6274039975211232     0.16352115399973868
    44   1      6.3024653595074387      3.7185527151628017      2.0864001039482893
    45   1       4.942116658981039      5.0735939311760996      36.058789769600878
    46   1      6.5798157020189789      5.9284941901008876      1.8270580022976888
    47   1      5.0948675235492482      7.5153652132215472     0.39388873999091795
    48   1      6.4927154973325587      8.7489144067450404      1.7922456590345277
    49   1       5.050219335619877      10.086167046815499    0.081794166334122967
    50   1       6.187393614518224      11.311396187103648      1.9007721034785721
    51   1       5.195603740669557      12.738653943430959      35.974416800017273
    52   1      6.1564895733539391      14.153943762930012      1.9053067912996899
    53   1      5.0809686339322528      15.368473986487638      35.906678675634502
    54   1      6.3682176093451925      16.665038858712606       1.867523722247334
    55   1      5.1401695711914481      17.826172161521779      0.1198194672722252
    56   1      6.3236462521929582      19.065583033063476      1.8708474270049686
    57   1      5.0306642908558441      20.282113064052506    0.011244728142480656
    58   1      6.3216237582758286      21.549005799929926      1.7347776806601465
    59   1      5.1910838849002499      22.936128610622873      36.085136583715375
    60   1      6.5055943043298488      24.189354322730114      1.7726349439371472
    61   1       7.822701537271044    0.038369125342785207    0.019012378338834426
    62   1       9.063057190583935     0.98953210814525161      1.9707826715386199
    63   1      7.7887972213106726      2.6746557879540256    0.037348157810060741
    64   1      8.7547787934735375      3.7629098819800055      1.9538607702156117
    65   1      7.5033048301450576      5.1159477234609607      36.000878842933226
    66   1      8.8662959650606084      6.6281295238667646      1.8093336259189865
    67   1      7.7200484836358703      7.5676060660837106    0.037799091463239148
    68   1      9.0201477642107193      8.8786687087739917      1.8571432547980866
    69   1      7.5667802238109836      10.307535714997096    0.074887077449159178
    70   1      8.8072086075456273      11.218978466797656      1.9679756112936719
    71   1      7.4167048305007812      12.929237948635928    0.092090869494938818
    72   1      8.9101813167323716      13.837556910254255      1.8966558901804882
    73   1      7.5679081493455369      15.443933521660851     0.13499769761573349
    74   1      8.8948066902729792      16.451641538104099      1.8432037792178457
    75   1      7.7204535410647601      17.916452526712735    0.083542588997693262
    76   1      9.0143973042647492       18.96507222540431      1.7322490144245433
    77   1       7.641287856769047      20.308240021187402     0.19343438034422888
    78   1      8.9966320410918676      21.422424051981768      1.5936877139712695
    79   1      7.6585999783113099      22.935994830042581      36.080246538366872
    80   1       9.098352261427765      24.050177065766849      1.8836980007354005
    81   1      10.382237820090035      25.428175804134071       35.97442572928616
    82   1      11.505284292080754      1.0720375254572538      1.7230567811436672
    83   1      10.031181414757521      2.6532010836599622     0.10897002986315558
    84   1      11.498870942115637      3.8601085663967334      1.8089409875635734
    85   1      9.9200891563053482      5.1908803452625936    0.020259618322290861
    86   1      11.406015181617255      6.2715756355806249      2.0544791209670503
    87   1      10.008439762447788      7.6980775526383374      35.852793502993265
    88   1      11.367526910133151      8.7822319620844045      1.8550656055123702
    89   1      10.205532131146011      10.318855447159706    0.050192901743537348
    90   1      11.294467808607438      11.429603465511587      1.8255173862574228
    91   1      9.9565918967134444      12.715233725398543     0.13230693073135166
    92   1      11.458969740139246       13.86253647884598      1.8090951644610629
    93   1      10.160031277208628      15.137476399855624    0.095256436866623093
    94   1      11.561276532390359      16.414194508255886      1.8007698358995861
    95   1      10.385769228040466      17.458733077019442      36.076424877301719
    96   1      11.557804317308783      19.064130212817727      1.8919806569871751
    97   1       10.50423682235594      20.275350434176829      35.869995517383195
    98   1      11.455814293472088      21.713560356141649      1.6764184802216489
    99   1      10.092759834811599      22.808249030627486      36.049244456238981
   100   1      11.525151200674957      24.139907980677176      1.8033271143412886
   101   1       12.94639509485782    0.024187373862083129      36.039996505957376
   102   1      13.992963226153835      1.1748536749272505      1.8119663057268545
   103   1       13.06294261405022      2.6876986265613012      35.987604489219919
   104   1      13.963429332859633       3.876392432246933      1.6791191642900569
   105   1      12.725288608330498      5.1537033915089614      36.047004930870294
   106   1      13.983504664988688      6.4385265424409983      1.8673852761319611
   107   1      12.517028021603087      7.6132533107268339      36.043089196360846
   108   1      14.065232730420588      8.9311537659443179      1.9083611040886261
   109   1      12.664259595415412      10.089940736828044    0.086917888338484933
   110   1      13.782088781788643      11.359071343553966      1.8111431932138335
   111   1      12.872112223269738      12.785872989583771      35.884283731388194
   112   1      13.976583065507409      14.039493089884473      1.8262820676230371
   113   1      13.061793145431132      15.252290051329055      36.093877750895722
   114   1      14.187734228283201      16.673516097499295      1.9863105029137502
   115   1      12.854790830050332      17.843700563246969     0.25455962415387606
   116   1      14.131769359530828      19.183188479507269      1.8665002985261256
   117   1      12.808054395625348      20.377443907525183      36.076850665381265
   118   1      13.914949636512633      21.639692331579194      1.7470268561865856
   119   1      12.903768045183963      23.129146028703577      36.034863029650253
   120   1      14.162955818919642      24.277248025553863      1.8982024200654666
   121   1      15.444064096863974      25.482064239160565      36.079224670267934
   122   1      16.541465740332356      1.1769414143737325      2.0016440874512909
   123   1       15.31995969815944      2.5772850548799888     0.12549332094592969
   124   1      16.705631701075649       3.832072105474178      2.0050851762039641
   125   1      15.499679065184084      4.9899606076977667       0.199782788143409
   126   1      16.546746113663701      6.2799671296060238      1.9617678207211857
   127   1      15.313463603549252      7.6158963033249023   0.0036489577212819274
   128   1      16.494913179955677      8.8330539439167435      1.8201673803422309
   129   1      15.323333485340568      9.9885075359054127      36.042511742065884
   130   1      16.736147390365659      11.489141712590364      1.6934416573778539
   131   1      15.248440140693987      12.647962357272554     0.18933251377973204
   132   1      16.705555275285931      14.200407332506463      1.8791989636512405
   133   1      15.302271358834815      15.415422551570032     0.13973784078727933
   134   1      16.962046037701317      16.480490188220095      1.8645767536390625
   135   1      15.539357951983982      17.792089976860026     0.24893355987792351
   136   1      16.891717682638799      19.170930307142935      1.7547483089102243
   137   1      15.340721174724115      20.343914414311865     0.31603541509160793
   138   1      16.672351193742273      21.657437788252388      1.7050345801155897
   139   1      15.358318942132362      22.965263681262012      36.012899782038026
   140   1      16.661478168281896      24.257956759722358      1.8050780070256112
   141   1      17.876143134315264    0.072686641244333675    0.042695288462073377
   142   1      19.190699447216151      1.3846275570664863      2.1201895596081499
   143   1      17.782858931292935      2.6098179536575965      0.1754305227609394
   144   1      19.194005053362517      3.8388281113718237      1.9593127089926499
   145   1      18.018956632844308      5.0945043928012437      0.2356855470189318
   146   1      19.216533993004713       6.414003997561756      1.8739343485798716
   147   1       17.64395243927822       7.750794820753228   0.0073285045952502636
   148   1      19.091380835221084       8.958614213959196      1.9913987008212082
   149   1      18.003086541019012      10.180666616972653        35.9823315900762
   150   1      19.013441732451472      11.200895805359469      1.9223528973360766
   151   1      17.784422394474568      12.718075577317743     0.10759986928424044
   152   1      19.121284756745276        13.8164527665847      1.8710401858988697
   153   1      17.974427878394017      15.207719792072622      36.071200113459128
   154   1      19.232868407774369      16.658481277011028      1.5910598878957887
   155   1      17.953793981606086      17.999574150488197      35.959154369961389
   156   1      19.278411931064706      19.232134473656778      1.6443401483126436
   157   1      18.120510084726028      20.428076055435383      35.896555600108961
   158   1      19.019739852123525      21.618237886932953      2.0802849820725684
   159   1       18.21726016240374      23.162920532877152     0.13721114857614791
   160   1      19.146131998290198      24.266108670260163       1.814251210767849
   161   1      20.396819630186112      25.415250400600463     0.13521913745931902
   162   1      21.866698743776652      1.2151773995801365      1.6188537234658837
   163   1      20.286098506494731       2.473898415181957      0.2472614078729522
   164   1      21.660131273905108        3.78043890148134      1.8307191938332028
   165   1      20.377866085254329      5.1547536252214439      36.049601096669477
   166   1      21.583026957199841      6.3171725014104236      1.6140448733840351
   167   1      20.197537338558675       7.692879711816496      35.991040930881375
   168   1      21.599924952621691      8.8840848898166698      1.5186824188828061
   169   1      20.135991414242945      10.201216303306531    0.047891723412442522
   170   1      21.524533214623009      11.372722730956871      1.9139644102434668
   171   1      20.261986208230255      12.567947034500232      36.003980065134265
   172   1      21.591595156827918      14.053546192903047      1.8480775403203662
   173   1      20.537747523229633      15.513295296460189      35.892227402194401
   174   1      21.691126198220161      16.590371143268275      1.7041603235833576
   175   1      20.433448438518983      17.810288528774841      35.855895296248313
   176   1      21.994735716695292      19.100308283069808      1.6489053255035875
   177   1      20.503688950191624      20.347929158867231      35.998280898753826
   178   1      21.750689372748226      21.722077771370838      1.9321487500719847
   179   1      20.471328808659749      22.854681062780806     0.10803873712841335
   180   1       21.78936896315977       24.28793222848514      1.9051222310862832
   181   1      23.001105076825969      25.492301910492117    0.042672634342829988
   182   1      24.266266291613668        1.33269640142282      1.8471992416897471
   183   1      22.849948673571841      2.6661887197202749    0.040126314819338121
   184   1      24.337506187687545      3.8754125198245659      1.6953909996816714
   185   1      22.854683954109717       5.235337044746613    0.045353167166024437
   186   1      24.020783404095585      6.2127895044395007      1.8614081617300617
   187   1      22.724361883828021      7.6624629975569558      36.004112951988461
   188   1      24.171534114204274      9.0813024782385412      1.9197535670499419
   189   1      22.849943667497666      10.236877258594832    0.040007205159122497
   190   1      24.099197070498832      11.415392722320719      1.7800048810155678
   191   1      22.948326300046933      12.704769214362326    0.093241023630537365
   192   1      23.951890732992815      14.001451972905363      2.0587243651683251
   193   1      23.098419970380228      15.174886251018217    0.082370629510705964
   194   1      24.081373829869253      16.836412361565255      1.8355997902277055
   195   1      23.075723428074074      17.852287456885215      35.989413076731886
   196   1       24.35648047609795      19.304405828167617      1.8237220318944636
   197   1      22.945218907385836      20.519376159912266      36.041792831199373
   198   1      24.317810878129958       21.79837557833341      1.6990777471079594
   199   1      23.083983783832384      22.935081382984489    0.021307730845740024
   200   1      24.512679901851886      24.491251078708839      1.7608807801450912
   201   1   0.0072514568435769018     0.13463512440301179      3.6072994168397958
   202   1      1.3253862457583765      1.2567997702715947      5.3499570219947765
   203   1     0.10924421134850157      2.5655258797721583       3.632418876361005
   204   1      1.3394145759213647      3.8449307043159933      5.4992418880357707
   205   1    0.085923373309060164       5.025397396297854      3.8533479220245832
   206   1      1.4122116195166543      6.4115883087005816      5.4706169996741778
   207   1      25.239441999040377        7.69195011851843      3.6996615701105746
   208   1      1.0496667491980478      8.9858746427856975      5.5454194331016478
   209   1      25.494212773271936      10.247712442425836      3.4672956889684978
   210   1      1.2545250704125395      11.498275571826047      5.4215599856005205
   211   1      25.307827304400597      12.576780246189033      3.4647998396621333
   212   1      1.0246232230565202      13.856956409834831      5.4572606949087348
   213   1      25.472042645456064      15.329530470581163      3.6049291012019684
   214   1      1.3334490253788731      16.442432546985074      5.3168892039866593
   215   1     0.18444918645530617      17.897035705046356      3.6810381782214754
   216   1      1.3881553543523522      19.295648062846812      5.2969536679062088
   217   1    0.058585521326991401      20.462621113237862      3.6630510654928869
   218   1      1.3488325620207273      21.825684822615976      5.2578545303229625
   219   1      25.516002865046563      22.897514261061044      3.2903646424870194
   220   1      1.2818313621586093       24.20523035696722      5.2466696105718125
   221   1      2.5109128884627872      25.476893637611113      3.5584945124325142
   222   1      3.8649934216467652      1.2629429681841113      5.3155278207450882
   223   1      2.4449928914485355      2.6277666559911093      3.5130090575793571
   224   1      3.7712109301692509      3.8062967705362953      5.2162182854316086
   225   1      2.5442952038021649      5.0848454505151173      3.7412742878596035
   226   1      3.9552703411288466      6.2497811427455243      5.2356994893030864
   227   1      2.4716598336598641      7.7340912429808624      3.4270291546667173
   228   1      3.5464942365957435       8.681170924562732      5.3250285252801293
   229   1      2.2533495611219636       10.08466192428873      3.6211133488401104
   230   1      3.6769297370421592      11.522710477035242      5.4470200093017684
   231   1      2.5402716927961038      12.639227288742521       3.476856393478148
   232   1      3.6115788170092613      14.020742518730815      5.4707747145558736
   233   1      2.5498277332769894       15.18684190252961      3.6096325267237499
   234   1      3.9430876025982347      16.524552660486449      5.3355964819778015
   235   1      2.6771083125389974      17.809741821583138      3.4313075030961833
   236   1      3.7397680600414165      19.133625691215137      5.4187799780877244
   237   1      2.5950774799324852      20.436775138314353      3.5117046043919906
   238   1       3.912516409057166       21.60284172510314       5.261952770915558
   239   1      2.7120111276498431      23.069897636210978      3.7378270782393566
   240   1      4.0233470574381114      24.358139922233395      5.2414959718613705
   241   1      4.9491087832343048       25.42454431093789      3.4373807460576122
   242   1      6.1899273606244067     0.93075812077140863      5.2528985536860722
   243   1      6.1097830694178805      3.5120512209093473      5.1939894980300396
   244   1      5.0507568099636488      5.0841660466409513      3.4217774774465299
   245   1      6.3735282748400648      6.1548645680223872      5.2747628292720616
   246   1       5.050067851971936      7.4406359684668866      3.3397445037326414
   247   1      6.3183575387545607      8.7950638259706331       5.228906921811098
   248   1      4.8017403395111327       10.16917565884722      3.7868862741195772
   249   1      6.2194440450150212      11.427585249577563      5.4087643117599065
   250   1      5.0586083666173787       12.64895625021709      3.4806552371959913
   251   1      6.1753879518458792      13.864714572861066      5.2982950627284273
   252   1      4.8808125393227657      15.182575028239294      3.6085964340967966
   253   1      6.3596615260949969      16.360914209403784      5.6428662154533971
   254   1      5.1048967183928688      17.614738635408727      3.6944852118381122
   255   1      6.4434826315604496      19.126991019428136      5.5813679341949447
   256   1      5.0777183327020694      20.140472689357686      3.6236892231776636
   257   1       6.310690412822999       21.55977568168538        5.25995472610213
   258   1       5.135131721983865      22.877845177239916       3.381092377116818
   259   1      6.4493844191614143      23.860713071412892      5.2246957436860075
   260   1      7.6604113931212616       25.26045263113604       3.633499754262143
   261   1      8.9509982135164385      1.2732661745876286      5.5460737576060168
   262   1      7.6145502885366874      2.3306019845292294      3.5688121306967782
   263   1        8.80842514260973      3.7441040173384064      5.3114572096987427
   264   1      7.5409197390829359      4.9300665541369124      3.7633043278526555
   265   1      9.0808523895593787      6.1087383883577857      5.3654080883484454
   266   1      7.6758876890319776      7.5002831217393524      3.6755109517740019
   267   1      8.9317515153384708      8.9109090031437699      5.7167680144487258
   268   1      7.5880508552304251      9.9825003403118355      3.6795169714553295
   269   1      8.9098929433874936      11.321682941444225      5.4962130352741516
   270   1      7.3728504827075056      12.649488114263029      3.5385783818996872
   271   1      8.9830428611372728      13.990416434532801      5.2829180913870024
   272   1      7.6509954843814958       15.19481679977117      3.7306596912677774
   273   1      9.1553201975024834      16.346336307942956      5.4607506143788394
   274   1       7.837619747639871      17.628889624602312      3.7551721842065588
   275   1      8.9818148241253901      19.087013965755197      5.4080446502667883
   276   1      7.7499644486446737      20.219938607080465      3.7197830587760357
   277   1      8.8907950296821436      21.678865085715046      5.4651979225240765
   278   1      7.8323565660727397      22.759869302564361      3.3720064945014308
   279   1      9.1663799266009889      24.118389226064817      5.4684992892311168
   280   1       10.15503266443141      25.197335908221962      3.6914062229942659
   281   1      11.581037519059034       1.111573224351569      5.4294574629519436
   282   1      10.187649438301586      2.5206978296857474      3.6421611784816204
   283   1      11.315857669304425      3.9515286009254473      5.3582083955100437
   284   1      9.9130667657543867      5.2046551587184844      3.5049212858799477
   285   1      11.633715542880772      6.2511827001779876      5.3746681446078828
   286   1      10.158494806201391      7.7833290085298517      3.6844031621291822
   287   1      11.516018227571928      9.0234172838585653      5.5955645345469742
   288   1      10.187998558307443      10.116433227108752      3.6065707822686037
   289   1      11.506135268803607      11.482985625813527      5.4009435467580165
   290   1      10.273006171838093      12.752742500305873      3.7987544024446138
   291   1      11.629091720169708      14.010856719777651      5.5250677374908692
   292   1       10.42165226619576      15.146474287966305      3.7218776676590974
   293   1      11.621720673871462      16.481428190217667      5.5400314436984175
   294   1      10.277461636677463      17.829392773926855      3.6070292503586288
   295   1      11.681239312371718      18.983528906453625      5.6378921145222014
   296   1      10.215243190044289      20.494709576998382      3.6293062145886053
   297   1       11.60203401234117      21.596304835386498      5.3668740911565003
   298   1      10.217413968143809      22.881955166937146      3.7716433062888295
   299   1      11.566816528326724      24.046726881154797      5.3295546535969347
   300   1      12.770666221602596   0.0094126321987743847      3.5279177847455108
   301   1       13.99012685718535      1.1992402301201008       5.541866484354788
   302   1      12.714017284691755      2.5783385011607516      3.5271395203896296
   303   1      13.858268385327563      3.7355522461965274      5.4354135429156294
   304   1      12.629106392671787      5.0196222157384263       3.672518659939096
   305   1       14.16600933984823      6.4256145207328643      5.4051778696510198
   306   1      12.685668533220271      7.6536774070853077      3.7227393634695414
   307   1      14.257425460297355      8.9594979869317051      5.4743203339105637
   308   1      12.710581138929728      10.087421823797655       3.527216116342891
   309   1      14.011013652732569      11.427484099369652      5.3826362505217222
   310   1      12.786074037804198      12.797569691773509      3.6501634347943464
   311   1      13.923964423247631      13.918583522708843      5.5229701179341237
   312   1      12.833474601390416      15.322720532791838      3.6610198073398252
   313   1      14.102984572118626      16.802830174168747      5.4261552793125194
   314   1      12.870238223990437      17.856129184943526      3.4780626703596584
   315   1      14.205889068414992      19.199135182242426      5.3832191904565372
   316   1      12.725985694833323      20.406484464842681      3.4045978580022505
   317   1      14.219692039537147      21.820015643004396      5.2297561668894801
   318   1      12.667682008497625      22.810540116606056      3.4906112985642253
   319   1      14.203651772766817      24.154622534570475      5.1724147947190406
   320   1      15.247710371506722     0.28355642329171188      3.6465825973850734
   321   1      16.814495356435742      1.2601962638868496      5.4397953137266128
   322   1      15.345175283997639      2.5504126063746178      3.8271624550429189
   323   1       16.51451643468398      3.8168704738428385       5.687556041533627
   324   1      15.084796404422931      4.7981591631260985      3.6494464936512045
   325   1      16.610934485218756      6.3975201126566512      5.5114773868016007
   326   1      15.538460477038035      7.4941809361390641       3.872113822766917
   327   1      16.721871841999452      9.0244337154272589      5.7555365650789021
   328   1       15.23750477767217      10.276427869775876      3.5418790795489823
   329   1       16.67208120734373      11.406572200556051       5.531314212530817
   330   1      15.442281757592324      12.628774573911555       3.580737360163424
   331   1      16.678454046470868      14.232299113157367       5.419932637231498
   332   1      15.283065342224361      15.186378130962908      3.7143612399633499
   333   1      16.601163605222386      16.620268195138923      5.1680023910549773
   334   1      15.474171770026718      17.825936117092798      3.3219201566844601
   335   1      16.471048958954356       18.98939008223725      5.4857819845030411
   336   1      15.582679119705656      20.400599730001659      3.6306571237615222
   337   1      16.582248143603849      21.549340441862896      5.6226532694270812
   338   1      15.647967384389911       22.94953433721906      3.4014414790176377
   339   1      16.573917613537603       24.07829666039266       5.540281941190127
   340   1      17.882106403772511     0.02810801677536404      3.7712020742233738
   341   1      19.536099559093593      1.1452472198203845      5.6306180835285229
   342   1      18.019443924526048      2.6724204362532653      3.9305498175013764
   343   1      19.201671997078332       3.465130394424643      5.6486149943977422
   344   1      18.001252045049782      5.0790071705292084      3.6178834143059988
   345   1      19.372026508670004      6.2193378098729033      5.6284793560240045
   346   1      17.998471632953745      7.5051467271856644       3.610556119335234
   347   1      19.173350343371741      8.9637933019753877      5.5297101481241189
   348   1      17.718109301156321       10.28722955646098      3.7404810371018113
   349   1       19.25359292058091      11.463177782207838      5.4356858434235171
   350   1      17.953680502045884      12.601037886922287      3.7667070085897127
   351   1      19.239524231074771      14.085521275508418      5.4756673340357738
   352   1      18.046835075457651      15.273939033045805      3.5173390358543655
   353   1      19.167918802653116      16.662968747731195      5.1868115696785386
   354   1      17.950419262666212      17.940050502215598      3.5366470693728953
   355   1      19.078419552138683      19.282336968860353      5.1887039283040544
   356   1       19.20361416759512      21.741206147164771      5.4219584643045371
   357   1      17.928366906260962      23.056882163551293      3.7994862701068062
   358   1      19.151108787042837      24.156945935302097      5.6407092044567158
   359   1      20.458695357282686      25.425367143942058      3.7062262154191337