dump/Cu_720_20/steps_71 (written by ASE) 

1980 	 atoms 
1  atom types
0.0      25.526554800834361  xlo xhi
0.0              25.5265548  ylo yhi
0.0      36.100000000000001  zlo zhi


Atoms 

     1   1      25.475794287427522      25.497182774169374      35.947217044658132
     2   1       1.211774469178565      1.1577752807702129      1.7699842011460187
     3   1      0.1458612305570762      2.4869266826336323      36.089904266576063
     4   1      1.2812191165526798      3.6650796941341088      1.8039768393003774
     5   1      25.401322431092854      5.3272443116656403      36.045249624246331
     6   1      1.1777487286830852      6.1892294307828442      1.7738268777171908
     7   1      25.309082477286896      7.9916997348054162      36.015487656900767
     8   1      1.3640096077251689       8.747715247335405      1.8292568502320006
     9   1    0.012758037677433928       10.45395134929324     0.26786276884149612
    10   1      1.4469106186276812      11.590974643998594      1.9837992022033168
    11   1      25.367698348684595      12.849728922769868      36.039766257064102
    12   1      1.2674646913109286      14.114518749715593      1.8014047843688996
    13   1    0.010282012897360419      15.539494932430296      36.013518617892551
    14   1      1.3145734997403562      16.602493761135118      1.7691086027881835
    15   1      25.113780068242782      17.966902694180341    0.001404988243757543
    16   1     0.97257657965841382      19.054347446473447      1.7551687986669435
    17   1      25.472552888734388      20.398980019285759      36.018355985295877
    18   1      1.1774881584945576      21.668223605499286      1.8511821541022886
    19   1   0.0086605175150783181      23.135399528296038     0.17478609001573209
    20   1      1.4336158782774524       24.09943298543493      1.7941697969674018
    21   1      2.5081700270843577    0.012744866369416616      36.044429545110852
    22   1      3.9058434445111474      1.0645295240766421      1.6956015770368582
    23   1       2.633855416114034      2.6861648340205639     0.10024196713561635
    24   1      3.7250378600992198      4.0332521440697668      1.7165552095510166
    25   1       2.547549845960511      5.3090814520411262      35.885852648624201
    26   1      3.7777045208035549      6.4216869398125072      1.6702946900831064
    27   1      2.4174223589757946      7.7675352262886523   0.0078989558761918405
    28   1      3.9688299282663895      9.1181616247369224      1.7875366239086936
    29   1      2.6088796679554624      10.181055977930285      36.031159705905971
    30   1      3.7554178900877355      11.580547358016728      1.4681221020623649
    31   1      2.5316092512909947      12.958805338442415    0.033802230422520535
    32   1      3.7178059476663226      14.380065170850413      1.7675090561321676
    33   1       2.553887171101163       15.43853779444194      35.906621353721327
    34   1      3.9082509942891894      16.720907636274095      1.9614349301109075
    35   1      2.4331165386204145      18.072102348576344      35.827178766742442
    36   1      3.5971450706912367      19.067618268282256      1.8361503488583466
    37   1      2.4389539563688865      20.453815335555145      36.000799656752328
    38   1      3.6234272139760852      21.718631628269641      1.6983708365408912
    39   1      2.7643407055732361      22.946974131954974      35.967813089611091
    40   1      3.8676117790235813      24.224669987762102      1.8488650359182768
    41   1      5.1907420968989282      25.374249195108675     0.19428193809787894
    42   1      6.3945191211397674      1.2436474880807993      1.8246720218551773
    43   1      5.1232119658756616      2.4488260798486481    0.045498727873450537
    44   1      6.3141981090835708      3.9024854148978765      1.8111287101216931
    45   1      4.9174243173663497      4.9606797204606785      36.011468782545961
    46   1      6.2894448561784406      6.4753071203521717       2.077659360265387
    47   1      5.0978006370328464      7.8117065991739283     0.14144066500360872
    48   1      6.2378579934186531      9.0549394585834122      1.9261836592479555
    49   1      5.2637350338386781      10.405167806031091    0.057122665805855052
    50   1      6.2763701643889833      11.588491700124072      1.8076279012444387
    51   1      5.2123744360039188      12.675646275249708      36.038078602027603
    52   1       6.178205704189538      14.173741847554915       1.882657342840572
    53   1      4.9551737673275396      15.368733197743932      36.059465484512124
    54   1      6.2491889157349627      16.533619753054243      1.5420186446520225
    55   1      4.8671171340177084       17.91691237444314       35.98797632232619
    56   1      6.1134783829492498      19.294073367989615      1.8298839053039178
    57   1      4.8784591246744977      20.657779958714677      36.075695092621565
    58   1      6.4851595146154457      22.008180167133602      1.8247862295270569
    59   1       5.216792918834253      22.888868883964708     0.10825898915666113
    60   1      6.2500989599181809      24.402565576017729      1.9829532355620918
    61   1      7.5852797571783244      25.444751288057706    0.095271452723625208
    62   1       8.906085776488025      1.0934939700716728      1.8232175396558548
    63   1      7.7833443533114268      2.5186565849422151   0.0032606455825316531
    64   1      8.8763670940212158      3.8389306648811532      2.0075123379303141
    65   1      7.5462673098309683      5.0829634703337874      0.1950171322397522
    66   1      8.7816252927671261      6.3721845096513379      1.9488046142488558
    67   1       7.703888112523444      7.7140933248193058     0.26688135649013706
    68   1      8.8486632263896574      9.1466756751764837      1.8202166716334878
    69   1      7.7098805162880817      10.339799517693846     0.13260094903796457
    70   1      9.1969524324531253      11.558914072544859       1.789220636123934
    71   1      7.7597454828091044      13.025750892432093     0.14338992846365953
    72   1      9.0648407794479038      14.243096694568147      1.8758257919963399
    73   1      7.5079487200100674      15.505485335439293    0.094983333946640963
    74   1      9.2200987774322982      16.474300492023527      1.7481811556508664
    75   1      7.6332540734555527      17.821609469471817      35.956367834290646
    76   1      8.8756167091144729      19.199236831547832       1.652411629369839
    77   1      7.4691303312169204      20.526090385396198       35.93479192801405
    78   1      9.0445119396694462      21.773759420880154      1.6420180780292972
    79   1      7.6783455985599156      23.092153211905053      36.083763214850606
    80   1      8.7458645956526073      24.184054396688449      1.7075628158070237
    81   1      10.042057491795866      25.277506057627878      35.914599185348791
    82   1      11.289919525849109      1.1284451013977683      1.8178981991884697
    83   1      10.219762227126798      2.4530946040029464    0.043575852532524072
    84   1      11.259698606513492      3.8415893468143434      1.9430871246978547
    85   1      9.9626705586032536       5.007293658041907      35.981211195678291
    86   1      11.350670148686659      6.2729733233722209      1.8959077577770251
    87   1      10.176129176041426      7.8525164574202568     0.20303411975767183
    88   1      11.690184360832191      8.7389820767467636      1.8057257111078799
    89   1      10.242302236409577      10.568760896867872      36.096217374766177
    90   1      11.547957180615468      11.477273302859897         1.8609673471085
    91   1      10.095256275065063      12.819849271958082       35.82337960151596
    92   1      11.579170995870211       13.90721322967093      1.7593744481043252
    93   1      10.267201317239303      15.213703350526666      36.065543977599944
    94   1      11.744793943772828      16.681383720305323       1.835606845195469
    95   1      10.205366878673413      17.943789528688363    0.070455822101519044
    96   1      11.191465841251627       19.03358966647594      2.0170469794349168
    97   1      10.217792984165341      20.458371007238348      36.085080701227277
    98   1       11.58180210932589      21.424102349294031      1.8268136662302035
    99   1      10.156647074775121      22.961448618237682        35.9072767048958
   100   1      11.414646281304986      24.123689217370305      1.8972068850107462
   101   1      12.745061041262741      25.523203162617108    0.058906260242099343
   102   1      13.932239023447723      1.2048463212284841      1.8788010272705498
   103   1      12.609068205634415      2.4738276555716379     0.22234512697199302
   104   1      13.927499680904839       3.881118312376195      1.8714029569749415
   105   1      12.578492545158923      4.9771407967625692     0.19983201099888659
   106   1      13.953004143480385      6.2419757799789597      1.7431838534506823
   107   1      12.780855007208606      7.7076025511686277      35.962533528834015
   108   1      14.233348928385963      8.8146956428988243      1.8122079256879589
   109   1      12.821883363536109      10.174544268753136      36.042698974794028
   110   1      14.161273352105168      11.373740116354286      1.7298965153149768
   111   1      12.558785190250729      12.898727680211605     0.15923379694255574
   112   1      14.058127120312605      14.049133316621257      1.8573147683935856
   113   1      12.742576156946468      15.253833817708383    0.077721449567002387
   114   1      14.205708213470897      16.611375301675732      1.7049594926798475
   115   1      12.591510225947143      18.101185426447923      36.084916962271038
   116   1      13.742130042710127      19.242109279938632      1.7632343480963857
   117   1      12.786991006151792      20.476660290246084      35.975898011342913
   118   1      14.046071323448038      21.729517697536441      1.8765260422330943
   119   1       12.80442444664741      22.763472472313182    0.098227863155034456
   120   1      13.818092834671337      24.168892180815735      2.0036817317483155
   121   1      15.278017533905984     0.16670916305567376      35.930004764061685
   122   1      16.377634652767686      1.2687425865917989      1.8170975207167108
   123   1      15.096331518418889      2.5123195157610967     0.21990970197900872
   124   1      16.724720117772577      3.8285935090159429      1.6284605653766111
   125   1      15.179573269427538      5.2799037078788569    0.028839521383304138
   126   1      16.605259038770551       6.451405291783157      1.8424589729246905
   127   1      15.214132280543884      7.9562047101194349      36.023371121764271
   128   1      16.769313211841958       9.090299904653131      1.7596371060085394
   129   1      15.275326506722189      10.247236684773844      35.957083038837339
   130   1      16.556084879689664       11.50325553046077      1.8110449438181473
   131   1      15.103177806810482      12.739253354132943    0.017104776300675431
   132   1      16.630835179229404      13.987250462788808      1.6853318966072504
   133   1      15.136043025622721       15.26450610530016    0.034065459990210933
   134   1      16.682200944334685      16.448306829407386      1.9335602461009567
   135   1      15.386520318953533      17.650664566975962      35.753806099458807
   136   1      16.361362574645348      19.010226121848316      1.7440323576742689
   137   1      15.162657799905576      20.434628463705398      35.986075275822337
   138   1      16.489635193773079      21.788954277462278      1.4654998443119556
   139   1      15.542087673669572      23.343412178905492      35.887035365066893
   140   1      16.567180680797936       24.31111927168584      1.7108842606202057
   141   1      17.909589222039401     0.21566628382430059      36.048691102061042
   142   1      19.039169685111979      1.1739719717690422      1.7895912432303693
   143   1      17.826637495194333      2.5600260545759785     0.15556083717364119
   144   1      19.173721280701397      3.8796851488440134      1.5925794480129063
   145   1      17.613561003683664      5.3047710915770701      35.954600503555284
   146   1       19.10703429372894      6.4109029963678985      1.7062021050337086
   147   1      17.999967615610831      8.0084567665800108      35.957021502903196
   148   1      19.141730230983004      8.8954682507366325      1.9316624925073369
   149   1      17.741825173634329      10.349873276941043      35.927862120267747
   150   1      19.367812789986004      11.422425669110417      1.6117543476661356
   151   1      17.890098563199267      12.778312736162174      36.062172630635864
   152   1      19.091676458405182      13.900841753463629      1.8362478659111408
   153   1      17.936857165089975       15.32274104881488     0.22299510691028676
   154   1        19.2298165901855      16.388221669699096      1.8460159486299399
   155   1      17.974529783998317      17.802652834818343     0.16087767639631928
   156   1      19.253672933115418      18.975337432614928      1.9626350248219859
   157   1      17.769640277737174      20.213228962551852     0.14954684494736045
   158   1        19.2800583783585      21.781568798191884      1.7247027127761825
   159   1      17.763549962416359      23.085332700986918      35.970790918533702
   160   1       19.02565631245124      24.231140261803638      1.8760232834204986
   161   1      20.306499949266659      25.363035413659713     0.11603675409174898
   162   1      21.773204992289784      1.1070481656081681      1.7813615707814405
   163   1      20.460114185681704      2.4279399751601596     0.06557925475027554
   164   1      21.754887922611587      3.8352962442792191      1.7558278766899087
   165   1       20.45028646977827      5.1810098933584419      36.082496237973402
   166   1      21.766167616187381      6.3163794938647735      1.8627111967597656
   167   1      20.437234166531418      7.5739968744237665    0.035023858699514687
   168   1      21.768756573819417      8.7749475109305024      1.7458335603682709
   169   1      20.189833815264581      9.9541098300680364    0.054301609809510779
   170   1      21.654782985640949      11.153977092628757      1.7701266596215082
   171   1      20.325014890982708      12.618057797290408      35.952890289415492
   172   1      21.670278680506637      13.825796260382447      1.9796122856564911
   173   1      20.577610194259911      15.035489925589154     0.06973094874856553
   174   1      21.655065021589341      16.221851561843533      1.9266398834036074
   175   1       20.46364878245306      17.711096928483837    0.023140609928714171
   176   1        21.6329897341557      18.961000025305552      1.7680851118172782
   177   1       20.34779836795925      20.220465693982003    0.053509291658019702
   178   1      21.617606574528605      21.605387869264284      1.6194496122057316
   179   1        20.3261910912926      22.876354485509015      36.048977500588208
   180   1      21.612112906181608      24.003347667336072       1.769810974895323
   181   1      22.902087073568911      25.321764237692847    0.013094801893055331
   182   1      24.107976452833753      1.2022165727761707      1.8259437873635653
   183   1      22.840919108116232      2.3726265622956895      35.944419645758195
   184   1      24.437022565189711       3.699360179937031      1.7637484928705689
   185   1       23.00125806027086      5.0530476873153889    0.046956636392769799
   186   1      24.198094002488187      6.4622158302821582      1.8071177004643582
   187   1      22.959773946817478      7.6009835004573887     0.11691924457917367
   188   1      24.282203986319061      9.0737543122557316      1.7652902633721961
   189   1      22.782569041652753      10.122077384895944    0.003321543405854754
   190   1      24.152614571604346       11.72064716876077      1.9042292811900314
   191   1      22.963654001620476      12.589219384154877      35.741169010490019
   192   1       23.98763815162766      13.942946806871069      1.7137917204535811
   193   1      23.026149036812775       15.21553427434243       35.96809649965747
   194   1      23.953306884962604       16.58986465997895      1.8440247515315944
   195   1       22.80948160599543      17.788342534618412   0.0093894726110079329
   196   1      24.233745504404222      19.390193336354368      1.9633330723910392
   197   1      22.965519295510912      20.248553463668681  0.00074390515704863094
   198   1      24.256574203333173      21.831078848689096      1.6522019238516228
   199   1      22.968484010427762      22.798528673107008    0.023885323313368182
   200   1      24.239540662738083      24.203122244953907      2.0683659578413658
   201   1    0.044668230491481331      25.401954291156972       3.774785707937129
   202   1      1.2280376026045365      1.5416873343158115      5.1873224884536198
   203   1      25.436227912182705      2.6565117130110907      3.6551544448959046
   204   1       1.312700166721458      3.7338002734762945      5.4156293235069128
   205   1    0.069602715317728089      5.0555256715047259       3.586184293787495
   206   1      1.4191693041219735      6.4414569534118078      5.4019391562281873
   207   1    0.014041565727412003      7.4952043162318134      3.6793868254777675
   208   1      1.3562752322128555      9.0504653236406689      5.3432109291291212
   209   1    0.028397052350625968      10.184608574510804      3.4984089180348867
   210   1     0.92632369387555513      11.425717848567267      5.2765857081246335
   211   1      25.348988493639283      12.845251598591215      3.6504448968321093
   212   1      1.1537579485181788      14.226121132533054      5.3097627400569545
   213   1    0.021814888932307357       15.39111485360066      3.4887527656257347
   214   1      1.2830852345944486      16.689750659925224      5.4728756780716479
   215   1      25.461482732274742      18.030659677207385      3.6053427930016584
   216   1      1.2401275694282021      19.209043214412695      5.5144485363960269
   217   1      25.445381420611628       20.48423584937143      4.0211180376900799
   218   1      1.3465127004492219      21.706379577117719      5.6768491791111932
   219   1      25.456371722845564      22.892737353267339      3.8142651372646372
   220   1      1.2924418375066271       24.44546098523789      5.4392041111571565
   221   1      2.6233862181921364     0.05751906773932914      3.6933158463812106
   222   1      3.9182282542608298      1.1597178165890967      5.4834480193995825
   223   1       2.781502675175787      2.5060485044407419      3.3247715399922426
   224   1      3.8170535820416407      3.9122782466109038      5.1974575356484252
   225   1      2.5749291038053639      5.2615394495524805      3.4813509663044089
   226   1      3.8891406343782582      6.4830915332997678      5.5837913086256474
   227   1      2.8203602160052736      7.4990527858992273      3.5896185437597072
   228   1      3.8454685365219827      9.0003036108473946      5.3879409516951169
   229   1      2.5066927642019601      10.103857062002819      3.5633493292097245
   230   1      3.5813291865494614      11.805464021036254      5.3238529200148674
   231   1       2.470558544739704      12.967841643884594       3.718573011606229
   232   1      3.7566027561302349      14.312332699005616        5.51500303246653
   233   1      2.4708464840419495      15.474265961485878       3.745286999218298
   234   1       3.890349112051426      16.907425377213723       5.282376411957368
   235   1      2.3941874119543085      17.950957296350264      3.5205393760889132
   236   1      3.8177282376350661      19.185717658880911      5.1294276306490421
   237   1       2.399624348345081      20.349749627414472      3.6243466311664925
   238   1      3.7531168144079388      21.735215371600603       5.656276967234116
   239   1       2.473937755188417      22.988166961778369      3.7602902497955442
   240   1      3.7082828180045126      24.271109654445322      5.5083986252507193
   241   1      5.0368943946246496     0.21339231418609059      3.5488807167281715
   242   1      6.2306540474394723      1.3928839571558007      5.4917176595474109
   243   1      6.2928917096916868      3.7483994070368984      5.3900126102335681
   244   1      5.2026172060751827      5.3298351171179483      3.6307360923084246
   245   1      6.5489052974676332      6.2039129410920468        5.61127344045389
   246   1      5.1856320088478824      7.6874944716462554      3.8707132020434418
   247   1      6.4421277045677154      8.8457799873209506      5.4422721890719838
   248   1      5.2371578369517859      10.405978631460423      3.7316379191780742
   249   1      6.1126455335539065      11.694975982513172      5.4159295970368477
   250   1      5.0877477960592143      12.884243088259643      3.5253210648114428
   251   1      6.3895459987869661      14.099167385540589      5.5014898186050729
   252   1      5.1844389775400455      15.357467462170918      3.6020385155228047
   253   1      6.4078506765363352      16.660035446686376      5.5270670131797868
   254   1      5.0429195734309449      17.910349385632522      3.4926825583160164
   255   1      6.3619054021645818      19.084637838755519      5.4058849432737679
   256   1       4.750453879009684      20.455706744642875      3.5868561267462375
   257   1      6.3682678425606163      21.791295998199008       5.268104846570135
   258   1      5.0722450369683205      23.180534799641258      3.5867709103018219
   259   1      6.3282157960713636       24.32899398040054      5.2658623147488308
   260   1      7.6555169895765616      25.500478225422071      3.6566729615756439
   261   1      8.8538044192576955      1.1292354342263751      5.4747934944877752
   262   1       7.724144274372116      2.4327790404760798      3.6414532572360319
   263   1      8.9762364224134235      3.4375525772485118      5.5365530429081202
   264   1      7.8853794858312698      5.0035744149013386      3.7076049346117683
   265   1      8.8858871253649188      6.1570674419367917      5.5626405431471806
   266   1      7.6954451048065691      7.7981167724639526      3.5720162801633704
   267   1      8.8619117873602509      9.0143924560567434      5.4156619914041748
   268   1      7.6737970609305002      10.500309385038902       3.530577729249706
   269   1      8.7292705051068946      11.568156012119427      5.4318898121310495
   270   1      7.7426771588550372      12.944562809344719      3.4250530678893267
   271   1      8.9610069257916596      13.879761894159557       5.317629331624004
   272   1      7.9091007460501404      15.533278715880575       3.465217906467966
   273   1      9.0084240445578807      16.367652211089794      5.5539111455299599
   274   1        7.56488488061947      17.682278089548355      3.3087976653253688
   275   1      9.0677534077918871      19.180498474802757      5.3713302281249513
   276   1      7.7370662728851736      20.492471756241894      3.5966426871629773
   277   1      8.9349971658107403        21.6614896194293      5.3350503323146956
   278   1      7.6245124414487551      22.936022787990463      3.6658284528858776
   279   1      9.0028253773002778      24.222792860526258      5.4561290494569867
   280   1      10.260694447901859      25.518505138105677      3.9122827729837373
   281   1      11.382495681391777      1.1929957362450418      5.4992062873851939
   282   1      10.199468797163409      2.4216973651313087       3.582520170902241
   283   1      11.412157536944905      3.7551757357082711      5.3231671115256241
   284   1      10.173734155406143      5.1126527889791324      3.8930579698108754
   285   1      11.492993310056038       6.321924223864654      5.6259756381253778
   286   1      10.296494571445793      7.5521251866760153      3.6087981949246348
   287   1       11.48602689040016      8.8848778838997617      5.3750435126695368
   288   1      10.179433638917263      10.258481991898503      3.5556272766315842
   289   1      11.474706657999176      11.374432188668804      5.3745225795090814
   290   1      10.244195734482508      12.691025572209051      3.4877810352281022
   291   1      11.506875511043033      13.915597500030527      5.4903620207499255
   292   1      10.274112916049777      15.267112050100071      3.5881583968219157
   293   1      11.571400010261854      16.342180265104535      5.4073385148359989
   294   1      10.029212191408011       17.93014715828884      3.6956408457365382
   295   1      11.554734140215224      19.110204200873298       5.451402222702435
   296   1      10.125344471611509      20.381378271698807      3.5335509001354812
   297   1      11.518050889139992      21.677464980906951      5.3717258793169371
   298   1      10.135874834499296      23.099472974437091      3.6058158508451466
   299   1       11.52016424730404      24.062445701795273      5.6899087933405088
   300   1      12.601984824579112     0.17203934572547686      3.8367244568857011
   301   1      14.017476983204052      1.1938682729799492       5.690005673023272
   302   1      12.786547074091901      2.5316938245347669       3.468829344882534
   303   1      14.177051912984911      3.8410711274121638      5.3846254567523717
   304   1      12.684426773970049      5.1498025338374056      3.8548894983860862
   305   1      14.037758759452004      6.3947202309325402      5.3019784109710191
   306   1      12.640402561885743      7.6328395773752931      3.6445312193256627
   307   1       14.19980916151227       8.792875648974368      5.4230101203075565
   308   1      12.835758091767058      10.119740214811499      3.4066357630816682
   309   1      14.005271067288524      11.489532030920081      5.4584701908165218
   310   1      12.751332694632032      12.729865751710154      3.5796083654931863
   311   1      14.127760987918796      13.945660221543966      5.5783690743923922
   312   1      12.792448650372581      15.339438657798345       3.575029945738438
   313   1      13.981035370821884      16.509215047134802      5.5090656533486264
   314   1      12.810911733952205      17.748909435230662      3.7254712005522226
   315   1      14.005099091019515      19.158405720556718      5.4283856950578597
   316   1      12.694628807921019      20.359257214943561       3.598642169718802
   317   1      13.964997498980672      21.680802173070898      5.4987382773157014
   318   1      12.772171331636155      22.856419633121952      3.6488099043278317
   319   1      14.047679552869976      24.190892304402336      5.6714741347618025
   320   1      15.038876719391402      25.484330502456615      3.6956938565197044
   321   1      16.549141891265357      1.4070665886461797       5.170777180978674
   322   1      15.025240501789563      2.5178074919611437      3.5792505364285834
   323   1      16.613163805728277      3.7773014287286797      5.2922821701943699
   324   1      15.289270359247398      5.0668014082680353      3.3494034287574541
   325   1      16.662807885296917      6.2114072302347383      5.4350356199441272
   326   1      15.157774423327067      7.6924109370166924       3.563416621073269
   327   1      16.725394159539533      9.1001259788412021      5.5223371042212781
   328   1      15.288861257852506      10.255844609731747      3.5510959188812321
   329   1      16.492642608580976      11.574062416135419      5.4183562746359613
   330   1      15.382608128510991      12.836925202950511       3.442595579554347
   331   1      16.673526004848846      14.009593778165668      5.4771777365136769
   332   1      15.459649504824117       15.37958260641347      3.7324513045266481
   333   1       16.54022782149951      16.558676734797359      5.5145585842230496
   334   1      15.280650838480947      17.924482584323087      3.7743869582971978
   335   1      16.586379970289165      19.179026268440623      5.5749757138741325
   336   1       15.24298295140756      20.541410874075762      3.5456416482724187
   337   1      16.535377419808274      21.720715497959198       5.439803933680099
   338   1      15.249026809066981      22.927550677746659      3.6978043874644402
   339   1        16.5092949239672      24.192855848446527      5.3621864653081586
   340   1      17.562952865062293      25.473004851414256       3.455454195968628
   341   1      19.112108485607337      1.0724957147917062      5.1887384044901355
   342   1      17.674782785849221      2.6909504619077578      3.3226425736094249
   343   1      19.132953478496756      3.8635107785701805      5.5292205008028601
   344   1      18.112542960403378      4.9456009017523179      3.5589143280711366
   345   1      18.979708150834934      6.4807246533825085      5.2186428723350691
   346   1       17.57723071905335      7.7969797953366813      3.6540950628645654
   347   1      19.132874145914439      8.9792213831185013      5.3816950247775353
   348   1      17.898127964039116      10.248898438064447      3.5414634162365264
   349   1      19.033206895775802      11.275375218386161      5.4438346116292031
   350   1      18.077558295924703      12.718339092582525      3.5915948587576043
   351   1      19.252774179667099      13.891493557666726      5.5626136659595122
   352   1       17.78698467396994      15.081963484187645      3.5444516723713368
   353   1      19.014568445214707      16.521583496401512      5.3243348083068103
   354   1      17.979578398678555      17.701778304057974      3.6287928849081994
   355   1      17.881891039621653      20.356042596154275       3.274526508684473
   356   1      18.734831524335213      21.543093884009522       5.342157644613045
   357   1      17.646796430927616       22.92688692873147      3.4522068113978102
   358   1      19.100213066162198      24.122918950645118      5.2079751814294415
   359   1      20.383185765349737      25.290653548448525      3.5054407536733478