dump/Cu_720_20/steps_21 (written by ASE) 

1980 	 atoms 
1  atom types
0.0      25.526554800834361  xlo xhi
0.0              25.5265548  ylo yhi
0.0      36.100000000000001  zlo zhi


Atoms 

     1   1     0.32853840693042335    0.015992192606193216    0.026565258843015728
     2   1      1.1739180968420255      1.1961513216931601      2.0530907545618549
     3   1      25.459059607871669      2.5055975560682295      35.980435387278433
     4   1      1.2260008187678453      3.5388806443247249      1.9241623919925472
     5   1      0.1378945037056068      4.9665041274389248      0.1516354115111426
     6   1      1.2993204918953667      6.2659644716512943       1.748171545580361
     7   1     0.08057889770722082      7.6173103772008233      36.033784359029802
     8   1      1.4854990445014986      9.0780520546296977      1.9494912112865903
     9   1      25.434069717975731      10.323929927067637      36.093533575202507
    10   1      1.2518810654226771      11.462123198774044      1.9558179482132572
    11   1    0.025984289084272125      12.908520968428954     0.17074083005761606
    12   1      1.2992874118790398      14.004201316485826      1.7484316639404605
    13   1    0.010068431819582535      15.580762436053966     0.22372277749116173
    14   1      1.3744556894428179       16.78935227479101      1.8539424581471518
    15   1    0.068453076874547242      17.947577559887794    0.064174574284902516
    16   1      1.4933784851941125      19.254069734854923      1.8110901946034135
    17   1    0.024064844433720381      20.684586920023833    0.075543615074355044
    18   1      1.1636232585652397      21.760785806025595      1.9278576093923092
    19   1     0.17783534320819666      23.163265642606717      36.085901431229111
    20   1      1.3603771622643774      24.094546640488602      1.7437563651555019
    21   1      2.6081844834713848     0.13344870637636155     0.30253675643532468
    22   1      3.8627140957546473      1.4176611130200911      2.1529871147545365
    23   1      2.3821937549704941      2.3763149578090501      36.013110945269169
    24   1      3.8947111242942545      3.9037122065108529      1.8402144032068815
    25   1      2.6909914714320422      4.9634911994237392     0.12352337760041783
    26   1       3.706990566308964      6.4136266555404076      1.8570689234022792
    27   1      2.5925556569287531      7.5810194643819226     0.15959643381883099
    28   1      4.1305178819290171      9.1089647198930006       1.848371116903252
    29   1      2.6226372624932526      10.301549350056309     0.20530313682151013
    30   1      3.8021417271141202      11.529656309527429       1.767052263280299
    31   1      2.5057397602738432      12.835338089338075    0.023213326917255025
    32   1      3.8713755745508567      13.939862908195179      1.7215629065944069
    33   1      2.6830217916572354      15.302298707766759     0.17497147511936628
    34   1      3.8540637022322923      16.354652951695442      1.8931134090260131
    35   1       2.459181462867555      17.808263745893512     0.04667805575792261
    36   1      3.9469727952654075      18.992867044511197      1.7698301164511245
    37   1      2.6798494324159403      20.440760039929348      36.085097229474009
    38   1      3.9608094558308737      21.655971913894764      1.7291952845566141
    39   1      2.6635534904820868      22.787344161475879    0.030000403421718169
    40   1       3.766323278289168      24.317074703206586      1.9480433932343879
    41   1      5.2572623617916561      25.441068759188926     0.15848590939759774
    42   1      6.2695596565472522      1.2067651393648098      1.9912507003607305
    43   1      5.1422262805657599      2.5530508438111807    0.047328790295614515
    44   1      6.3559281109704706      3.8288921519165755      1.9701655793498289
    45   1      5.3173134004740099      5.0037529723056533    0.090281780478994586
    46   1      6.0615100277932497      6.4472801216107287      1.8055044744375079
    47   1      5.0417134435578577      7.6805208709063137      36.066379826656245
    48   1      6.4532433927935893      9.0762858060328551      1.4780370846301158
    49   1      4.9155208715499032      10.110636250599017      35.937517328320574
    50   1      6.7095309612309428      11.592033730955659      1.9055435229431952
    51   1      5.0524324689011211      12.600411177425753       36.03612016273901
    52   1      6.3934791925938912      13.964238296175303      1.8632629837377861
    53   1      5.2615545128095409      15.177535479125238     0.11825185740178781
    54   1      6.4976706272443492      16.644098329132117      2.0401036662713508
    55   1      5.0617198436436706      17.706026414764484     0.14250960888234654
    56   1      6.7625512885712036      19.018981170900808      1.8216465488526061
    57   1      5.2751878389472928      20.464168842987927      35.971706190357608
    58   1       6.533937127452262      21.660758931165226      1.7875228007632125
    59   1       5.208851428203614      22.978213357966524    0.031467173067585473
    60   1       6.359025889186575      24.078524745824115      1.7870724490132246
    61   1      7.6844920233740437       25.48948777215508    0.064530744618014182
    62   1       8.790550161735954      1.3102250067857331      1.8551126030619571
    63   1      7.6566432160286775       2.555990679445626   0.0062212534851482796
    64   1      9.0990198799618973      3.8046056584776404      1.9529534298935802
    65   1      7.6934998092061813      5.1458995990877501    0.021520441603820488
    66   1      8.9390589457237901       6.428257469124226      1.7135355994038839
    67   1      7.7974347961515189      7.5537328918659137    0.014008305728304991
    68   1      8.9952937139297813      8.8366810068369794      1.7005224559143226
    69   1      7.9552426084028509      10.190370711986077   0.0090552634207256271
    70   1       9.022032944351043      11.438278194916071      1.8180907037844476
    71   1      7.6581549344795681      12.660808404121006      36.074744405964076
    72   1      9.0163996161886821      13.880030698435158      1.7643104138478418
    73   1       7.702487546440012      15.510207861578383     0.14710252913059771
    74   1      8.8491133522679153      16.560872898462044      1.8078318343163242
    75   1      7.5163724437272919      17.860833070002393        35.9977806019672
    76   1      9.0435002122357346      19.148182807309421      1.7728529644089686
    77   1      7.6935070999699144      20.295301497751364    0.051555746986809772
    78   1       8.929734698532668      21.839636203937925      1.7635279942272646
    79   1      7.7639398926607841      23.128567841520006      36.074463426358562
    80   1      8.9658277097838148      24.390003339069679      1.8292352644784158
    81   1      10.184145820300335      25.402378727480521     0.17956504898576214
    82   1      11.340057099780696      1.2926694494784436      1.9346814884684704
    83   1      10.217354280362205      2.5591121418518337    0.041287645821102913
    84   1       11.52004941048898      3.8548168902959383      1.8482882682547932
    85   1      10.143535805293721      5.2290171624194812      35.895614683850496
    86   1      11.373047587390579      6.4882534456667305      1.6686798762722557
    87   1      10.112013191551155      7.5310257446573345       36.02369298983055
    88   1      11.527052718905768      8.9213546488218824      1.8612542612351501
    89   1      10.228995217756724      10.125557409958436    0.011034033184455453
    90   1      11.705167059746676      11.541500505455312      1.8364814995458238
    91   1      10.244005454024466       12.79631018338592      36.019398933265364
    92   1      11.507031587300903      14.185476586471566      2.0322511433033812
    93   1      10.007653861697268      15.227514282099786      0.1032975297979077
    94   1      11.177439315300157       16.48603135127281      1.8302826635952685
    95   1      10.103154847020388      17.642994816582128    0.070299286071815542
    96   1      11.467910722453516      19.075870260896906      1.6592583481236847
    97   1      10.262353684465081      20.366357623713817      36.043868951381434
    98   1       11.37263477038608      21.703542051648419      1.7271160480737746
    99   1      10.153100603719286      22.940486872504096    0.026599050301888371
   100   1      11.566190339745136      24.121561596699376      1.8706457052686365
   101   1      12.703144545331226      25.511693707268108     0.16108362622861694
   102   1      13.986155174117131      1.1767672167433514      1.7687655819913612
   103   1      12.614628040595896      2.5723551751363525    0.047971111365006862
   104   1      13.812342390532734        3.63819413840673      1.7085822386554816
   105   1      12.619940745546888       5.124020804396844     0.06026091427432919
   106   1      14.010629499670985      6.3319649063777108      1.8468400539358187
   107   1      12.522193893545092      7.8827844220054741      35.916002046725424
   108   1      14.139266876770842      8.6937676562886317      1.6759161668880318
   109   1      12.578712100638134      10.190801392813446      0.1348811553623363
   110   1      14.122113239613951      11.580877768640043      1.5768460459294507
   111   1      12.633546039096471      13.029583363555615     0.16070909321072105
   112   1      14.090007373943232      14.127773367249548       1.905962526664631
   113   1      12.560171894952038        15.5731892464678      0.0339940398012459
   114   1      13.843409929083736      16.519483596088989      1.8959987566571395
   115   1      12.746108400432941      17.947325726987309      36.097205356531887
   116   1      14.252293225483717      18.863065643012987      1.9304307483876069
   117   1      12.736571300768807      20.304652909360975      36.095099437243604
   118   1       13.97740063165203      21.422527119446986      1.5784958519957621
   119   1      12.839725454671164      22.917437805869824      36.043315309506447
   120   1      14.142375707165977      24.221782416470369      1.6990806869449673
   121   1      15.569456296206654      25.379163091589081      36.098524757524217
   122   1      16.442137246728176      1.3413949299786319      1.8126160812648087
   123   1      15.364077810722701      2.3254566655939484    0.072793511367330949
   124   1      16.578461904464984       3.826593957224631      1.8359064908153073
   125   1      15.072496230611137       4.873884524235546      36.000946197864401
   126   1      16.395712631012522      6.2088890514042481        1.69207541742843
   127   1      15.347079738929425      7.4014362800057558      35.958122008202899
   128   1      16.658692429370266      8.9384534168429521      2.0671573877968616
   129   1      15.242842084433388      10.034350681188707      36.065315193554561
   130   1       16.44022119819661       11.39498053327083      1.6471461934425617
   131   1      15.276935030392913       12.68263279038313      35.807354627866168
   132   1      16.556347174626229      13.959339193571397      1.5958716265421904
   133   1      15.120054875037603      15.243771814479089      36.072838317608436
   134   1      16.734249368223075      16.519628486685846      1.7226220823990965
   135   1      15.310468234327034      17.593778263500628      35.924938289124121
   136   1      16.507239683973602      18.775849712728935      2.0106496643030711
   137   1      15.320718944276845      20.198651545306877       36.05822416468753
   138   1      16.747399184501472      21.429585141441105        1.59050430377639
   139   1      15.496373186194338      22.834008760142517      35.987146730442653
   140   1      16.725924876565529      24.109556801842761      1.5743974059234467
   141   1      17.865931206575368   0.0025109253607909416      36.014532215041996
   142   1      18.985622446318384      1.0959642868655992      1.6997932962077811
   143   1      17.849457846650882       2.429765079595315      36.066078585858875
   144   1      19.196102760820395      3.5890881335764306      1.8979200842577155
   145   1      18.097385098534872      5.0101493129194665   0.0050015868957188937
   146   1      18.945834921629356       6.441736291502365      1.8466843710776648
   147   1      17.985507236555524      7.6011949717105107    0.060972061157860968
   148   1      19.019270757426781      9.1796311135797506      1.6780760506403116
   149   1      17.704916948182749      9.9924658181411683     0.01567396799787275
   150   1      19.072207446231882      11.702830827515683       1.657356375536982
   151   1      17.775521288808285      12.915343843630692      35.924858310233205
   152   1      19.382413899840451      14.210011517397243      1.8922401615675768
   153   1      17.802716672523562      15.215970928361083    0.028453721139385366
   154   1      19.281202862900816       16.74432542140141      1.8118954369312421
   155   1      17.953483140107132      17.808485630036767     0.14250692695896977
   156   1      19.042575623226366      19.279556710575076       1.973748509703809
   157   1      17.858740047274132      20.391133256135433      35.986566988320014
   158   1      19.259373614217346       21.64326796010052      1.6806738243089405
   159   1      18.068549753857504      22.797012088451275    0.019199362053075219
   160   1      19.168799647587242       24.08230149568255      1.7773152397941094
   161   1      20.625233678308412      0.1313164597772957    0.073313950402984968
   162   1      21.731199419517193      1.1607275458364572      1.8699763660810389
   163   1      20.411951398027593      2.5450177778312471     0.13624712479035003
   164   1       21.69539697192053      3.9477648933763314      1.7707847384287105
   165   1      20.423532377211622      4.9519632382379113     0.17302426396119003
   166   1      21.446635126391513       6.416618363142355      1.9142026628029605
   167   1      20.524336899742046       7.948428180939926     0.19468241929645258
   168   1      21.819503386020433      9.0762480561167997      1.7911667721734259
   169   1      20.472053498519717      10.290082681981458     0.06517297202375405
   170   1      21.666723439430754      11.593598414929795      1.8370551908167501
   171   1      20.461622579679325      12.743515727787527      35.932050601414545
   172   1      21.742961294212858      14.010985994980267       2.012018037212147
   173   1      20.365461457954574      15.255831999200209    0.024407220386171945
   174   1      21.695141216631832       16.66987437980718      1.9406746283880594
   175   1      20.362469324328245      17.818610087648889      36.045776256527326
   176   1      21.499829791721897      19.232248882471282      1.8965470959533477
   177   1      20.400739715880114      20.281481280490045     0.13976467498868037
   178   1      21.931701299330623      21.737298177332203      1.7975305402944959
   179   1      20.689166052815072      22.746226606658304      35.842270188907349
   180   1      21.608594958235944      24.277917949048248      1.7018611835714867
   181   1      23.117097122019143    0.076880275367857243    0.027012572512171585
   182   1      24.197964932331622      1.2227914250610346      1.9281169858551825
   183   1      22.878224335303443      2.6130750853018667      36.069477370084151
   184   1      24.199873242870002      3.6292144809794826       1.732822255254644
   185   1      22.907804726928124      5.1739974308290195      36.097674329450768
   186   1      24.159372945752921      6.3673498599386944      1.6409846608905028
   187   1      22.865329951984897       7.617047744084509     0.14598006137475761
   188   1      24.196671403364149      8.8229200408856538      1.7875036974739928
   189   1      23.030606141463476      10.444712099093872      36.030383344060709
   190   1      24.218961275552488      11.472557250216811      1.9101028021394415
   191   1      22.956524959909451      12.886251311619532      0.1389660858089998
   192   1      24.159043193255584      14.172760141606329      1.9803525070929253
   193   1      22.997953586027734      15.276688546209455     0.10387740242255182
   194   1      24.268531347572551      16.778443958821398      1.6884738885806889
   195   1      22.818754510018863      17.926463638977872     0.10480656433177273
   196   1      24.267369342134788      19.248216349704482      1.7322256909397418
   197   1       23.02124000857577      20.486576354295508     0.19785966006411401
   198   1      24.203353168799151      21.840661772964733      1.9853177739394838
   199   1      23.347166792512393      22.962694274930161      36.085031504502581
   200   1      24.180818581367753      24.222170809797248      1.6870905846175219
   201   1      25.411106566478889   0.0065866205959002515      3.8892151596062936
   202   1      1.2026746853563319      1.4200905059847686      5.5790428465851916
   203   1      25.344141206591541      2.6996443121044207      3.8705013739078984
   204   1      1.1069408076099536      3.9158934374725316       5.563065998390794
   205   1        25.3251131326187      5.0744347324270178      3.5773803341366492
   206   1      1.1648756790906061      6.4398913659273331      5.5669002725008498
   207   1       25.45183544294192      7.6183348528198351      3.5281919571844012
   208   1      1.1948991251829177      8.8778306298943761      5.5087248998507796
   209   1      25.458514535147192        10.0866108984194      3.6356876330426191
   210   1      1.3322980627553132      11.450193628720976      5.5485407214597551
   211   1    0.058912973411544174      13.023869330102928        3.91295673692396
   212   1      1.4077728321808816      14.247254686275708       5.524538759028137
   213   1     0.15984867691855839      15.467704676049825      3.5558248356255606
   214   1      1.2951888737472514      16.630820547408792      5.4148015277250696
   215   1    0.037776940678800074      18.087956683091637      3.6273693605529016
   216   1      1.0965501380792417      19.317168753614531      5.6133504667995693
   217   1    0.021434454216973313      20.519754630186124      3.8083055911260963
   218   1      1.5505023905287132      21.588915541660331      5.4165634811378762
   219   1      25.374585807292402      23.011096822873771      3.7824328496869324
   220   1      1.4021922926280666      24.406276127861698      5.5390147732981081
   221   1      2.4623461339435675     0.15784870896755371       3.639052241421556
   222   1      3.6786104143990386      1.1814411564896823      5.3628253059327635
   223   1      2.4228498633956073      2.7158453993905618      3.7534957178252362
   224   1      3.8692418656954786      3.9021340557934163      5.3764148154016382
   225   1      2.3727508742486525      5.2074554601636871      3.6637658529260575
   226   1      3.8230053209080634      6.4913115839159232      5.3583176562003914
   227   1       2.674607589679554      7.7201220966821724      3.5700924935287039
   228   1      3.7641004186111933      8.9033240708165238      5.2942711277784369
   229   1      2.5622931408374896      9.9960545914512853      3.7479542340600784
   230   1      4.0656955999547941      11.449680899051629      5.4150027813565567
   231   1      2.6649565000833384       12.73482356478951      3.8777520520314264
   232   1      3.9422265720828449      13.885071310090961      5.3488962973580483
   233   1      2.6215180969464358      15.188353792647346      3.5222029325720432
   234   1      3.7436845762867019      16.582074645935862      5.4524571220854421
   235   1      2.7000345323088704      17.861362339012409      3.4611814440475541
   236   1      3.7793640732008642      19.164745789508707      5.4442795703810489
   237   1      2.5019800841741189      20.469041456461657      3.5834548092950964
   238   1      3.8418810711958655      21.579639986394717      5.5815256123532322
   239   1      2.5974270849133525      22.966473520827424      3.6557986942291087
   240   1      3.8825983849454473        24.1891342112968      5.4512902710268598
   241   1      5.1917087885398567      25.485664756861581      3.8592467364735414
   242   1      6.3235027297451776      1.0392855198431949       5.589333342692453
   243   1      6.4875581767917643      4.1636664329266324      5.4194426744859125
   244   1      5.1106324157564229      5.1578776809339386      3.5962926865772022
   245   1      6.4434489795852965      6.6464043444841856      5.3130588650756172
   246   1      5.1724660378700822      7.8306168007897599      3.6253311811927524
   247   1      6.3854261068441609      9.0894418963559129      5.3774915752786301
   248   1       5.387132970545899      10.372982712240683       3.287011810492221
   249   1      6.4379425050529244      11.529721974243939      5.4380516764047728
   250   1       5.176554067663881      12.627891720639811      3.6672632995030869
   251   1      6.3012920069628304      13.949740499217334      5.5076912689543205
   252   1       5.210373513260107      15.201310535208011      3.6525301750760724
   253   1      6.3944466431107294      16.800550931933603      5.2721891439109312
   254   1      5.0117976288656889      17.689302497403997      3.7992707335809288
   255   1      6.6232658151968344      19.093621249919316      5.4614807836680859
   256   1      5.1053040753842573       20.16544554616743      3.3893690953302449
   257   1        6.28607843573627      21.494599041647639      5.5321614765461744
   258   1      5.0321363107652619      22.883097954376169      3.6553936048912865
   259   1      6.3824043824438235      24.107778511850785      5.6421898739453695
   260   1      7.5742059519646618      25.365370929090378      3.6163890603040652
   261   1      9.0677317676952836      1.3237582705161806      5.4367591211032824
   262   1       7.482344703550952      2.4933596809078238       3.753315349866726
   263   1      9.1871578361555706      4.0259847918062803      5.1361784623118805
   264   1      7.7622289742567654      5.2827821008054068      3.2273893045540718
   265   1       8.883932590627893      6.2679925508738661      5.3467175731427821
   266   1      7.5685019381793293      7.8839900056520094      3.5370452564070782
   267   1      8.9131210750334997      9.0136176083123658      5.4809201437562853
   268   1      7.9256913188613636      10.259080015898707      3.5081438635655102
   269   1      8.9601325559351572      11.610417665984786      5.5516248538671942
   270   1      7.6293364055644783      12.720760579555312      3.7525574306745506
   271   1      8.8595472653246503       13.83476878550861      5.4560434906284483
   272   1      7.6147481629222735      15.288024334242758      3.7696588029773768
   273   1      8.8869391758692444      16.570691729375245      5.3145489749345893
   274   1      7.8027411924391012      18.013210049243199      3.6624637971785412
   275   1      9.0948344432987529      19.043758086732119      5.5382018628138079
   276   1      7.6655337862577717      20.449764192189161      3.5329459919741439
   277   1      9.0320231805323896      21.623929276304494      5.5947563043108541
   278   1      7.5552818251504119      22.902446767913847       3.884936424201701
   279   1      8.8830387265049406      24.127017186672205      5.4332048732995819
   280   1       10.20367757031836     0.08838057503978608      3.5345278652116932
   281   1      11.544097579702996      1.3935555499461745      5.4156625009891037
   282   1      10.102376751276797       2.537122055472635      3.6406351973111297
   283   1      11.398171416943235      3.6900702985432114      5.4295348304791151
   284   1      10.246319974685209      5.1962656097460576      3.3177772759097239
   285   1      11.384652278415388      6.2971533831179025      5.3629441894122154
   286   1      10.101588113453255      7.6591786022211021      3.5734575256636392
   287   1      11.297528810588991       8.996848169695367      5.3532892097481657
   288   1      10.281751692227047      10.282681990592078      3.6612808817241804
   289   1      11.527018741351482      11.326775401360836      5.3531512461348161
   290   1      10.247820722344576       12.70922005689806      3.6290171638168509
   291   1      11.359256170139393      14.272006013289179      5.4113805302403835
   292   1      9.9460616356609126      15.151082807196421      3.6294073059550516
   293   1      11.230136944925077      16.629194082843036      5.3664495778313794
   294   1      10.189261604970175      17.916220181398202      3.5770812422618077
   295   1      11.591321440490209      19.365810166563275      5.5526686773447649
   296   1      10.111246335350586      20.391553060217468      3.6171241789634183
   297   1      11.775183074560955      21.880178162518884      5.2540272732095739
   298   1      10.240186425635606      23.116589479557959      3.7270213619988719
   299   1       11.47338381432232      24.251326247558978      5.4199073894720593
   300   1      12.873445782211192    0.087068342818935676      3.8086541661340196
   301   1      14.042417389132993       1.177208914739645      5.4650216943167846
   302   1      12.640407596869974      2.4274219738283689      3.4808641695027402
   303   1      13.988634639408591        3.76271240680685      5.1469669181453535
   304   1      12.562246817513417      5.0479586240517049       3.553680998691219
   305   1      13.963959483014053       6.422769420228251      5.3120045237263742
   306   1      12.607484065633882      7.5577860798507626      3.7079158873617502
   307   1      14.127566686072605      8.9126176780090045      5.2945154565611672
   308   1      12.767083873106783      10.246556146802478      3.4358154555671261
   309   1      13.960826613298178      11.583646979447563      5.3720356830886091
   310   1      12.684845525888022      12.555388979489546      3.6094414196377334
   311   1      14.101317524129158      14.074312670227622       5.413103771762164
   312   1       12.77737799473805      15.396253698459519      3.6613049401087254
   313   1      13.844580322883541      16.702787373138264      5.3602918041254055
   314   1      12.601863816262304      17.732105870150246      3.5502352974243294
   315   1      13.985763843294114      19.149474548244168      5.2060110308578214
   316   1      12.587778126195344       20.33599604838577      3.5335524212566729
   317   1      13.999399047700352      21.705527229828423      5.3822154188528275
   318   1      12.923106328160497      23.040028185692176      3.4635496443651284
   319   1      13.970836558255582      24.136061136612756      5.4374122873951425
   320   1      15.261808207981826      25.312132722971725      3.5817648563451154
   321   1       16.70252019129989      1.1528237366573604      5.3664606853013961
   322   1      15.284002291445553      2.6671388483573035      3.6318337759198158
   323   1      16.626399609363435      3.7516233442347686      5.2261666351030325
   324   1      15.040562896176837      5.1784747010965848      3.5123742771891457
   325   1      16.648981181384215      6.4609412023214174      5.2290885479660849
   326   1      15.378713993698343      7.6569201212192359      3.6505417688483881
   327   1      16.554218477646231      9.3245456270557128      5.2457026281850796
   328   1      15.205699482656071      10.377589810162258      3.3587196280698661
   329   1      16.514082544567618       11.70394143335276      5.4062837487786313
   330   1      15.218012246057096      12.838697760727348      3.6645607480263958
   331   1      16.717003897145474      13.977881163527686      5.4986957820566627
   332   1      15.608147405464509      15.133082928425742      3.6343481282299797
   333   1      16.756897584306632      16.461711954937343      5.5218078962247459
   334   1       15.30798538430127      17.562107198132299      3.7281709388689062
   335   1      16.508268354853232      19.019965824299515      5.3206442322894709
   336   1      15.377660307033414      20.444578260583548      3.4266272121313013
   337   1       16.68340606953835      21.474106609447336      5.3941927850535869
   338   1      15.574042010200071      22.851630160809684      3.4154911277475311
   339   1       16.70804749185341      24.081609309837578      5.3026125058583586
   340   1      18.117705431824017      25.079499973380429      3.5645212939376409
   341   1      18.920934409571931       1.252563123960525      5.3705494529290192
   342   1      17.917519929448535      2.2985477886336834      3.5736032371226778
   343   1      18.989560097979275      3.7854292506634368      5.5144278291731812
   344   1      18.163066777266778      4.8203178507908202      3.6303131381494871
   345   1      19.074515855573253      6.3436632134586084      5.2340478397799792
   346   1      17.829096450908178      7.5529118602495924      3.4226217575099787
   347   1      19.227187043903253      9.3480943620736312      5.0560470289783712
   348   1      17.664686888141809       10.43950331232482      3.4616395158256639
   349   1      18.882129715186615      11.723228033321252      5.1248483366358837
   350   1      17.546065120631948      12.984839130174681      3.5257047791696778
   351   1      19.226473330279031      14.063780118623761      5.5265544743871731
   352   1      17.894823092597619      15.392244662139783      3.4035086293720966
   353   1      19.261164979865974      16.645398435322928      5.4474002132224948
   354   1      17.944704963056278      17.785238705187041      3.6247534968140185
   355   1      19.159195297352799      19.055046814299434      5.2660185572865021
   356   1      19.169136950945941      21.717924748954175      5.2602170660867493
   357   1      17.964773595501942      22.559712382710234      3.4444699789727458
   358   1      19.219334972118315      24.117306472866641      5.4287365825426166
   359   1      20.593784154891981    0.087401580620507999      3.7998943951368758