dump/Cu_720_20/steps_91 (written by ASE) 

1980 	 atoms 
1  atom types
0.0      25.526554800834361  xlo xhi
0.0              25.5265548  ylo yhi
0.0      36.100000000000001  zlo zhi


Atoms 

     1   1     0.18646020958670625      25.262036952828485      36.084701170386325
     2   1      1.3697981938996733      1.2908231838082926      1.6440941969883394
     3   1      25.506723457073182       2.197038400985031     0.09552265685429108
     4   1      1.4217907562328858      4.0005408456452463      2.0664985299791061
     5   1    0.052521982254789983       4.773246979164135    0.029689359934309337
     6   1      1.2574877220446696      6.4268248463569195      1.6424466159939815
     7   1    0.063448749567188489      7.6560835193468764      35.985204636329435
     8   1      1.1813028597892696      9.0576378245043632      1.8568796000707959
     9   1      25.352293302301113       10.22037211878871      35.977286845801657
    10   1      1.0590046521099756      11.389411631614601      1.6182576961553763
    11   1      25.466494114876308      12.875791783699524      36.076471627893561
    12   1       1.318924114444773      13.888421493767023      1.8396744758768695
    13   1      25.348031808416636      15.425550855818566    0.082885295484413715
    14   1      1.1157663259594339       16.50012095814402      1.8410768284586077
    15   1    0.098711504688676607      17.702182248589001    0.049143065163718976
    16   1      1.2768619053582702      19.042302364543026      1.9227307173563633
    17   1    0.092872157639451031      20.416548609917655    0.059197610644923952
    18   1      1.3311984679986575      21.611836157521903      1.9541354653315002
    19   1     0.22244323417362585      22.935292255818052     0.17266348300585135
    20   1      1.4000765747162636      24.002456059114539       1.719075563549926
    21   1      2.6542810502035836      25.452648478285074    0.046557413041807619
    22   1      4.0906662123966555      1.2061328422382205      1.8909725165416822
    23   1      2.4688964132705804       2.364666858243166      35.992685396449133
    24   1      3.8926941207281094      3.5829850042813622      1.5965362229228739
    25   1      2.5773117398104279      4.9395866206065051      35.974734444413862
    26   1       3.598618399902318      6.1256872637909447      1.7927400966019378
    27   1       2.515670778831999       7.597454370693173      36.018994525361187
    28   1      3.7730457245806908      8.7738094726776445      1.8897634388575846
    29   1      2.4895420827398742      10.152308557230281      35.961864782811247
    30   1      3.6256805006460637      11.208250323463481      1.6734438337783437
    31   1      2.5014748572069019      12.865557193958766      35.892534295298937
    32   1      3.7349642689284064      13.958668352515023      1.5861636871334999
    33   1      2.3964523641887001      15.391223609962385    0.081471820662011418
    34   1      3.7764691158744559      16.728093990652454      1.6730298561161365
    35   1      2.6274464555061798      17.803486994737053      35.849271798461864
    36   1      3.8582992191069647      19.166876234986916      1.8297787797312599
    37   1      2.6024174870548156      20.106925096551596      35.894645640173927
    38   1      3.7646068478443802      21.546188514012751      1.8487584400084989
    39   1      2.6656763163498445      22.832494548682568     0.15257633724186245
    40   1      3.9992700355822306        24.1126774294762      1.8403645778813724
    41   1      5.2162637737497421      25.285761300181719     0.14332549641958389
    42   1      6.5435941710457062      1.2442476822389261      2.1443062746082111
    43   1      5.2442928732420695      2.3909003686292762     0.17632739858917143
    44   1      6.3781869127396034      3.6129805365821519      1.8537347562562441
    45   1      5.2589943255989269      4.9972398402761193      35.894567676561842
    46   1      6.1934416423211296      6.4676236716966162      1.8423565346887134
    47   1      5.0403863571199583      7.4784882217228779      35.958714419331827
    48   1      6.4697158398573809      8.8694390215114431      1.9482906298134475
    49   1      5.3771024208067875      9.8816083694631622    0.044532489280038626
    50   1      6.1530043288741956       11.37409187162692      1.8969594068810818
    51   1      4.9123495233247709      12.660016206036607      36.033894942623824
    52   1      6.2720916878477686      13.989449639324137      1.7296164200351993
    53   1      4.9763576229019977      15.188992555689842      35.942532781965724
    54   1      6.3146793171052433      16.686226464514327      1.7770658845171294
    55   1      5.0981050991371069      17.921836682160979      35.967473745851372
    56   1      6.4009751763617917      19.337942139522447      1.7346890387411811
    57   1      5.1146733316172082      20.541058080087051      36.028790833333559
    58   1      6.3999848789726075      21.714101364944305      1.7810460358711333
    59   1      5.1161362425171619      22.887723630958181      36.068779340343291
    60   1      6.4933559910113363      24.164379165844256       1.936418003367623
    61   1      7.5243707675835383   0.0038355328905311748      35.992237267891426
    62   1      8.8690767494700911      1.3803440861522243       1.594153173555128
    63   1      7.7546845655768326      2.5767784453260907      35.821697567137896
    64   1      8.9312419574783242      3.7666747767683693      1.8037363931924788
    65   1       7.876919922896688      5.1838507274039767      35.952417222902106
    66   1      9.0219787541290657      6.4663753768265986      1.7953207964152056
    67   1      7.5403852083266818      7.6022863061485833    0.053700774088133653
    68   1      9.0255042158045917      9.0480334033096934       1.659620167246749
    69   1      7.6954979256838252      10.370565699622819    0.038605627081642536
    70   1      8.6511596956787766      11.646963196895792      1.8459006211106379
    71   1      7.5456128012206074      12.678820950899668   0.0019824265368583822
    72   1      8.9456283998498076      14.148886913361896      1.7170335872822975
    73   1      7.6336236405756717      15.330080773110607    0.062846642096269473
    74   1      8.7404652888276608      16.698484838654135      1.6328475415793371
    75   1       7.716254192942027      17.690274530196572      35.942440234005275
    76   1      9.1018315077616414      19.184593435467391      1.8130108956030988
    77   1      7.5787207741920692      20.347493983919165      36.045272052679351
    78   1      8.9711811325284341      21.717794810477315      1.9464129873516207
    79   1      7.6073610518876595        22.9958101861485      36.065136667595908
    80   1      8.9113727892855721      24.339640869216993      1.7991689916560076
    81   1      9.9343261409557364      25.200826130585437      35.879372398419868
    82   1      11.230209434510012      1.1308983983352294      1.8889383803510571
    83   1      10.116926207242839      2.4028365860653107    0.053061595614451597
    84   1       11.55096837676405      3.8283984896216969      1.8724459278350214
    85   1      10.207876224443043      5.1120768228522389     0.14638398967235849
    86   1      11.563481506805237      6.3804768806522629      1.7844006248412496
    87   1      10.203758577072078      7.7377052132327897       35.97756980039815
    88   1      11.444868873549641      8.8443300405408891      1.5527253691112044
    89   1      10.283937147449912      10.291079312112197      36.024203050695881
    90   1      11.338160370377841      11.555956264899736      1.7844819537105523
    91   1      9.9697410116313172       12.64736984376343  0.00034941917507467227
    92   1      11.295918759232789      14.022878181876258      1.6890697667155554
    93   1      10.291863499261149      15.460555214544549     0.04087298639897214
    94   1      11.513647824670338      16.550331671548896      1.6961756058942121
    95   1      10.089239646217658       17.97336207117684    0.061457113440144387
    96   1      11.391246545088579      19.306950208609344        2.01426603697647
    97   1      10.073534914205377      20.554416313379033     0.05947513708144931
    98   1      11.693603877441394      21.751670282985469      1.8951689188295622
    99   1      10.232341325878275      22.729074278754297    0.026498723557040183
   100   1      11.167527696529863      24.230657182127199      2.0021527693797467
   101   1      12.550835209080335       25.32553970667794    0.092947792115842379
   102   1      13.943871841455145      1.3152422581618062      1.6336355018880104
   103   1       12.68563861555252      2.3428179545125949    0.040085325631764722
   104   1      14.008519352162764      3.8243568899433438       1.718795496067185
   105   1      12.761653587978962      5.0799599262086481     0.14183713739211051
   106   1      14.107732169396545      6.4894262967254628      1.7298793364317235
   107   1       12.75251557899499       7.549498235952119      36.074274979682258
   108   1      13.962625769167863      9.0346996292307562      1.7915428101177542
   109   1      12.928425639291385       10.33063176827832      35.853309484419661
   110   1      13.898194164069615      11.440291956844229       1.842250789130969
   111   1      12.699025390278511      12.892352459626808    0.026027375569753996
   112   1      13.864868232416345      14.329178023219121      1.6469131136759987
   113   1      12.681490835444125      15.426849348885165      36.087497366296034
   114   1       13.92927063401986      16.834156658859776      1.7578422003503753
   115   1      12.588470696307262      17.942582468905183      36.088004138377798
   116   1      13.857258356819605      19.050891466605385      1.7936330619542096
   117   1      12.765850238423814      20.474646865679297      36.076856516618015
   118   1      14.212093985155354      21.835271583719173      1.7875947224520459
   119   1      12.766731111548275      23.074091371702529     0.18100892423815379
   120   1      14.167772743605122      24.290992152181293      1.9617556523918891
   121   1      15.249387185705945      25.439964304578535      36.071572841477646
   122   1      16.671777055365254      1.3349975425956075      1.8110037785320745
   123   1      15.277544450593721      2.6123361833926584    0.037822671728940639
   124   1      16.571774467148099      3.9828010146622761      1.9019679245054026
   125   1      15.407424888859751      5.1305381426363574      36.078468892996675
   126   1      16.510757131629024      6.3333999397189551      1.9094454762735855
   127   1       15.29031773665394      7.7795815219857998    0.093010999715534018
   128   1       16.52842141241279       8.876528432576718      1.8280257740701262
   129   1      15.703404880152478      10.182233467900845     0.15326001823813168
   130   1      16.556235515151663       11.61319445728925      1.9206481864960769
   131   1      15.276291186705569      12.552602714021468    0.048432083786019701
   132   1      16.563015131252392      14.115243747370972      1.6653945030463335
   133   1      15.147455242748588       15.59290385382063      36.058236830264853
   134   1      16.621637901839559      16.574564754608975      1.6605762983000074
   135   1      15.354912320586221      17.951191822200368      36.000664985006765
   136   1      16.588300217032693      19.135969390677147      1.7912909019747632
   137   1      15.374008733676291      20.569610562281198     0.21822411643848916
   138   1      16.658115504965849      21.668116798256303      1.8492199685630897
   139   1      15.417489784470519      23.042638221459388   0.0093970172875742723
   140   1      16.553765969340837      24.166089616150245      1.7878365869679542
   141   1      17.691734730067072     0.11029640277778019    0.081637697710073093
   142   1      19.132196726674053      1.4017298968753082      1.8756000551777667
   143   1      17.810624273104949      2.5571692662309626      36.016419736335081
   144   1      18.906543803888326      3.7818892227804271      1.9062628966449002
   145   1      17.732457194594929      5.3359379615059055     0.10379679937062747
   146   1      19.042126945366952      6.6286405454950552      1.7505071468222575
   147   1       18.01283405350668      7.5920108561911608      36.054935605559486
   148   1      19.124212149488343      9.0526492420133629      1.8029461000998817
   149   1      18.026676988468374      10.149488725008174      35.920469874669756
   150   1      19.125815207272247      11.509771359483342      1.5959468692194274
   151   1      17.752469065686761      12.661060822196191      36.023230061519008
   152   1      18.882503433853962      14.122800348772317      1.7142612316080765
   153   1      17.805429024323928      15.428009996864869      35.954804194069006
   154   1      18.990129311945307      16.779436964016561      1.8648964531344614
   155   1      17.819620137541037      17.893956668260024     0.16554244600283699
   156   1      19.214842982798665      19.188813043108091      1.9515438111186323
   157   1      17.902972408537995      20.510620276876367      36.054193166692919
   158   1      19.162052642856391      21.789391503596502      2.0888141697049956
   159   1      17.996185396252393      22.911059988179979    0.072232930163613845
   160   1      19.158183934748205      24.420580271238393       1.993981320608019
   161   1      20.207227611666667     0.29679195476214554      35.942681759728153
   162   1      21.623043080164777      1.1891273955256954      1.8594453332187415
   163   1      20.512990804193979      2.6263076306670992     0.18686362996886596
   164   1      21.779991619554949      3.8549212268841826      2.1113678706164385
   165   1      20.519568186733018      4.9635056310437546     0.12186855063372383
   166   1      21.600331070082099      6.5188997619719542      1.8422620458340917
   167   1      20.452992106993289      7.6003939533486609    0.068671472807318265
   168   1      21.526999576369349      8.9738753157109361      1.6615507480052205
   169   1      20.422968570261776      10.208516948145748      35.932469650802247
   170   1      21.569771599153604      11.442164371012581      1.7133366506074363
   171   1      20.265064856286422      12.674191572103805      35.849694528793762
   172   1      21.500432115246969      14.201208978171833      1.7286955405833615
   173   1      20.460740364471842      15.321814051745461    0.089067145185617688
   174   1       21.44947795066318      16.636108051125717      1.8393369053754545
   175   1      20.420052659520806       17.83198275816471        35.9988128250627
   176   1      21.901778164137589      19.176355080505484      1.9743061239219275
   177   1      20.383121263887158      20.475109466342321    0.082633182752294795
   178   1      21.801260957062226      21.526478588013958      1.8191290759898378
   179   1      20.408450538734005      22.982415035443861     0.14521091208218892
   180   1       21.61117150223194      24.079118211995318      1.9885350214729094
   181   1      23.134990018702823      25.502116297900447     0.17731886167180178
   182   1      24.269898238345537      1.1147278036676453      1.8670532553681718
   183   1      22.949200513657974      2.4719393297636878     0.25644288066860116
   184   1      24.309651550470736      3.8510134879170672       1.746278177088961
   185   1      22.851762753989355      5.0043478310581673    0.048915854917640965
   186   1      24.165321979935889      6.2983076068055874      1.6801797564425003
   187   1      23.057692445446346      7.6745701771522477   0.0098933834471267856
   188   1      24.319848837356876      8.6598952338377995      1.8036854619049218
   189   1      22.958274361259924      10.248539788370373    0.030090083508412135
   190   1      24.154443603094208      11.396938229146215      1.7666431098584539
   191   1      23.144372435825073      12.787875814096687     0.16095083239988531
   192   1      24.388844583786486      13.922644651977196      1.8816811460303944
   193   1      22.925450727101875      15.350747666425605    0.067230699593972057
   194   1      24.262157158666181      16.656098882864409       1.968161334340788
   195   1       22.77176814038809      18.011129404818295      35.968628368582898
   196   1      24.312175206578637      18.938940669899011      1.8003474670625219
   197   1        23.0893505534547      20.359892669694215      36.091016619753233
   198   1        24.2713331972497      21.742343603121714      1.9346945524343806
   199   1      23.216839254869601      22.784703415736473     0.28223718163884526
   200   1      24.498884699171068      24.241100446361976      1.8475033617251144
   201   1    0.072922410235021412      25.496705361384766      3.6249926688097629
   202   1       1.315819144145671      1.0734623050558856       5.608047695277163
   203   1    0.032429701142722631      2.5883218574479039      3.6087196742165575
   204   1      1.2079253255689397       3.878864545773824      5.4285631511610557
   205   1      25.457670768555094      5.1639990220724377      3.8502246786152385
   206   1      1.0436469888129374      6.6195384558712727      5.4422736750785221
   207   1       25.29501383922365      7.5147505221331503      3.5952766596168781
   208   1       1.211409305275841      8.9372526944794313      5.3059505146300729
   209   1       25.34325922138904      9.9513686505892078      3.6318427316129052
   210   1      1.0693387554776286      11.363424901845736      5.3011282221436939
   211   1      25.458247237676929      12.639047451799788      3.6278730725415214
   212   1      1.3202543108756881      14.168310131565267      5.4350169523086853
   213   1    0.085472875845757815      15.254834827518122      3.6140496011637722
   214   1       1.273430381873625      16.564910645734727      5.3725879785393591
   215   1    0.025061533687616239      17.923207592714366      3.6880474463330084
   216   1      1.2310840585795069      19.030667984821278       5.419561267678624
   217   1     0.21022986396477789      20.412134813470754      3.6891580403022033
   218   1      1.3057099403921653      21.516496265880885       5.629378638674031
   219   1      25.455666005016646      22.863113386029191       3.549933747767148
   220   1      1.3107595008624866      24.173616497782181      5.4449072181663203
   221   1      2.4274453331195125      25.454930743764166      3.4651285798012976
   222   1      3.8345631574735575     0.91620658855773496       5.367043710667077
   223   1      2.4957943163669465      2.5959675913193969      3.6714547049200763
   224   1      3.6537628408063538      3.7374334224972268      5.3647002503585552
   225   1      2.3161630215604117      5.3540548152865917      3.6958840315575676
   226   1      3.7589649585648108       6.321857497389936      5.2796341215029532
   227   1      2.5490029394327425      7.8605415064867872      3.5469186117605669
   228   1      3.7142994529607245      8.7932732089538064      5.6684803734844831
   229   1      2.4456791340106121       10.21202078860226      3.8107926709011033
   230   1      3.6585002796589299      11.355310390484251      5.5088452914496457
   231   1       2.396721167866477      12.722736524002247      3.6451199919713755
   232   1      3.8100555504413331      13.850693234483197      5.5241429384232559
   233   1      2.7724577763687375      15.055870590730695      3.6522204161005658
   234   1      3.7662278242589515      16.625402181756073      5.3935310858601415
   235   1      2.6447202409042485      17.723196145094196      3.7183899605300561
   236   1      3.8045601586464177      19.083124451142179      5.4531255637403255
   237   1       2.570935833263102      20.403994019090227      3.5790533865184666
   238   1      3.7738760117476113      21.532897984118591      5.2902478877214962
   239   1      2.4969667470168599        22.8801624074739      3.4879517360076191
   240   1      3.7642334959852981      23.893791417661777      5.4650321676590368
   241   1      5.1099272872318231      25.273042801279072      3.4631571935093932
   242   1      6.2570652193179628      1.2004653626696604      5.1894232801966051
   243   1      6.1757652763099466      3.6639113017680449      5.3311346848141072
   244   1      4.7859455909706927       4.772083896683208      3.4328621619495054
   245   1      6.3965650433254746      6.4819044310462059      5.4362354483487003
   246   1      5.0289466657077675      7.5410596813997985      3.5887730527666593
   247   1      6.3164647286086444      8.8630391110571356      5.2303220467012403
   248   1      4.9064224466337656      10.215679116421466      3.7322094503489529
   249   1       6.128674480023415      11.528945028091526      5.3675692578151351
   250   1      4.7881900975795721       12.94467298742417      3.5853425553161071
   251   1      6.4783924917344073      13.913626154714326      5.5226735310838384
   252   1      5.3549797561821668      15.219555033379196      3.4522023523480114
   253   1      6.4874392941214865      16.315598213711741      5.4328589582170936
   254   1      5.1522698313675921      17.699815354553333      3.6555164698311131
   255   1      6.5007744837749888      19.098169277832525      5.5294328041925933
   256   1      5.0732852803934918      20.097003003937175      3.5645628727646219
   257   1      6.3793896134830712      21.536003750500445      5.3099371023908741
   258   1      5.0083057326209044      22.657252914411014      3.5034789387010861
   259   1      6.2671872202286378      23.961931044272632      5.5439619793776176
   260   1      7.9440300737221801     0.23006413332785466       3.731350324108206
   261   1       8.899928812109998      1.3699563539786936      5.3044964517789346
   262   1      7.5761300801109854      2.7285663599560319      3.8714607888649484
   263   1      9.1087474053133999       4.093454345862706      5.2906071920645337
   264   1      7.4526750360434102      5.1684753212819325      3.5551681828928166
   265   1      8.8063158562450727      6.6260070996752942      5.3506516932440125
   266   1      7.7146110235006322      7.5563353640956947      3.5227130993989468
   267   1       8.889450767705295      9.0054048858990772      5.4064141864629285
   268   1       7.670375430712423      10.109475673129989      3.5791374593117093
   269   1      8.7511024644113675      11.638914542243537      5.4303159643196341
   270   1      7.3987914672853217      12.906456988907014      3.6542017525159811
   271   1       8.881000258603807      14.049590048911536      5.5060531049902428
   272   1       7.677516120523415      15.219244300721021      3.5119228671859899
   273   1      8.7170844798958633      16.752339199095417      5.4802615213371038
   274   1      7.4204635518083393      17.795845737626252      3.6274192016040869
   275   1      8.9722358639630588      19.288345996368228      5.5501668587883959
   276   1      7.5404801565266961      20.488847311234291      3.5912720386275057
   277   1       8.750589677107639      21.798028923601937      5.5169643356786997
   278   1      7.6181333864594025      22.962505557846786      3.6956583183785887
   279   1      8.8229258405538413      24.091877297782293      5.4005252230358316
   280   1      10.373365231648568    0.024588778574212232      3.9291258818336878
   281   1      11.728020715767268      1.3494010717642906      5.5381601075723168
   282   1      10.006676291767132      2.3656168898536141      3.5175182972709211
   283   1      11.567055662959749      3.8544726919992658      5.6364312578140199
   284   1      10.208070703403243      5.3579655032418785      3.5534048685293222
   285   1      11.331559082040663      6.2176880470728868      5.4664082827542373
   286   1      10.389124363099102      7.6421665551966118      3.7041879902941832
   287   1      11.550709110897284      8.7860310010907963      5.4076737557382559
   288   1      10.320394276075458       10.22054329405298      3.4982349810698778
   289   1      11.491030123614843      11.363703081592599      5.5871086833792525
   290   1      10.087240087229247      12.459865177272322      3.6465606612895662
   291   1      11.510466782368411      14.059018713323601      5.5381572348905923
   292   1      10.222014157781084      15.087360540996348      3.7345597901957399
   293   1      11.347148365817166      16.874634142984462       5.619051135746572
   294   1      9.9208572309042822      17.715201377117033      3.5805789203221012
   295   1        11.6755550908162      19.369803058929826      5.6244522070670451
   296   1      10.205558752031392      20.524233433702342      3.8300889029061267
   297   1       11.61714408411159      21.913083029730139       5.380420061789378
   298   1      10.196016143083435      23.010380688860963      3.7372595931683179
   299   1      11.464739355478367      24.151493585443639      5.7477030903642365
   300   1      12.767377479136885    0.011921027236106373      3.7335162774597141
   301   1      14.338791991428566      1.1957507600507207      5.3177738102827288
   302   1      12.937359735498543      2.4368342799488794      3.5001976941822601
   303   1      14.008161005745665      3.8468238167289552      5.5996809838674446
   304   1      12.727481981620587      4.9695405895511602      3.4074936493030026
   305   1      13.916236248382164      6.4782573000143726      5.5248624733378957
   306   1      12.747098586447869      7.6166081873128597      3.6189017669501351
   307   1      13.880288250245947      9.0977550442523381      5.4124331017069123
   308   1      12.749171449151802      10.134786606034423      3.4023409037227004
   309   1       13.98019390610229      11.482702806847216      5.1840067531997081
   310   1      12.633335561148387      12.753886114104695      3.4964694780993102
   311   1      14.238193543138433      14.077074707562867      5.2613969839430608
   312   1      12.633241519970175      15.258055799241363      3.5697497092919082
   313   1      13.986934595558861       16.63734694262142      5.4994141240135166
   314   1      12.540865944947521      18.016454901258612      3.7450501328045398
   315   1      14.106339583399738      19.201843908593474       5.496313620802705
   316   1      12.865037033786697       20.74031171219066      3.6736042923151038
   317   1      14.263197342922505      21.607664230186611      5.4237575244681535
   318   1      12.773828856945807      23.318130558768974      3.6839283064213095
   319   1      14.146810770661981       24.17627338245423      5.4819808350144124
   320   1       15.39328935146362      25.354583561474296      3.7212200448414778
   321   1      16.718608308942645      1.1713133162298444      5.3214375819066815
   322   1      15.463693930653545      2.5653219637973024      3.6098454510260924
   323   1      16.568016323406109      3.6549692434874999      5.6366250585241913
   324   1      15.151121942388361      5.3484425689423514        3.77068454431378
   325   1      16.466065193911014      6.5743721046549046      5.6764407996846771
   326   1      15.459164535778902      7.7771247971520934      3.5726707388346997
   327   1      16.593603026697352      9.3346742922968797      5.4529328779772808
   328   1      15.237592866051678      10.359917697525436      3.7027465144885281
   329   1      16.549153640684011       11.72645353365003      5.4322751172077233
   330   1      15.338931835655321      12.919302367472328      3.5842816785323759
   331   1      16.662477477178033      14.160116114587721      5.4770073056071178
   332   1      15.202003914175277      15.442304536925858      3.5977291247788132
   333   1      16.542292478051358      16.642852592799127      5.3901231031250374
   334   1       15.33536627124024      17.943889766636296      3.4845556396833337
   335   1      16.478452723887418      19.186231557741745      5.3257392344414276
   336   1      15.372697968433217      20.308224870498655      3.5534298009957768
   337   1      16.603378547494778      22.073341513937624      5.4687079608047151
   338   1      15.579839188740861       22.78961453100538      3.6768154036932055
   339   1       16.89257336978245      24.462998435273633      5.3325696562860898
   340   1      17.939932001218029    0.050659786286148568      3.5249772629314977
   341   1      19.144626886660536      1.3317564023097812      5.4638260265491949
   342   1      18.041581820208314      2.6311003807737405      3.9082924940410764
   343   1      19.199491197671652      3.8676893378089616      5.4951385958523797
   344   1      17.755374787600712      5.2984901527548676      3.7413289402519685
   345   1      19.093205171537392      6.5737389256207122       5.082853417421112
   346   1      17.734868252379822      7.8160489322964501      3.4896274611442659
   347   1      18.962650528076409      9.0596412959878627      5.3236907245245968
   348   1      17.764912668904262      10.301527493650843      3.5688497545019575
   349   1      19.069314503694315      11.527606849072486      5.2688444939791435
   350   1       17.83730640837469      12.891135082590013      3.5108216256568188
   351   1      19.243095057355021      13.925680261582322      5.5436823480247179
   352   1      17.840964034456267      15.540877733757494      3.7094545815610918
   353   1      19.081881584089935       16.60120363950012      5.4988820808467009
   354   1      17.828109668093177      18.043156575601341      3.6936628869911958
   355   1      17.784871274463512      20.459238301209233      3.5969163011576835
   356   1      19.235560413930077      21.719113748899527      5.4559449433862914
   357   1      17.953746666245848      23.014163729410534      3.6007454822337865
   358   1      19.283047401959884      24.252214179861994      5.5635183304363087
   359   1      20.466355872080619      25.360579800235115      3.7573986921559221