dump/Cu_720_20/steps_31 (written by ASE) 

1980 	 atoms 
1  atom types
0.0      25.526554800834361  xlo xhi
0.0              25.5265548  ylo yhi
0.0      36.100000000000001  zlo zhi


Atoms 

     1   1    0.018322971630374694      25.431085023839625    0.018899885480902857
     2   1       1.355458579570294      1.2050529347564793      1.9472774951647125
     3   1     0.12409227730324369      2.4979844144334966      36.079361969613011
     4   1      1.5168864610971389      3.8500624630857376      1.6837395998347673
     5   1    0.025628428711413572      5.2396895518436031      36.094897904533667
     6   1       1.100236843709717      6.5348728284926549      1.8671005307731883
     7   1     0.11598451849993385      7.9006340455008752    0.051624848604330822
     8   1      1.4901805590511223       8.884133625330433      2.1007026861595022
     9   1    0.030075130974436707       10.15145129627046       36.02167973997777
    10   1       1.255157403924841      11.400706687782359      1.8522280330459933
    11   1      25.387597821239574      12.833638582126603     0.17656515719212393
    12   1      1.3557605297296667      13.763482239260567      1.7712331619189847
    13   1      25.373685509435649      15.440560643054209    0.096373356173523828
    14   1      1.2865868740213324      16.650228666138521      1.6343109169171499
    15   1    0.095730970141184063      18.167202921636058      35.992833087739939
    16   1      1.2223143938162269      19.088923273310304      1.8127652576756887
    17   1    0.023423263676489055       20.52113245191148      35.944737021777762
    18   1      1.5582280290954336      21.653859729873119      1.7507351290896171
    19   1    0.067146333942495723        23.0691501745282       35.90526798948504
    20   1      1.4257117640972989      24.088051723308961       1.689443588021847
    21   1      2.5764049857987441    0.075763438345844952      35.895363522320331
    22   1      3.7659507636405838      1.2194503627803277       1.730448996746885
    23   1      2.7069585633457938      2.4888578489390323      36.018400001713054
    24   1      3.8960929520444672      3.7063051758426409      1.5475802027721539
    25   1      2.4857969225381344      5.0977295207324111      36.062800403462667
    26   1      3.6675531177703071      6.1372004835095382      1.8088326720996186
    27   1      2.5165096962860733      7.6339053875831659     0.11658252119166247
    28   1      3.8817131013891277      8.8645669617311409      2.2978596581709425
    29   1      2.3905542779193687      10.139259286295259     0.10705067609416111
    30   1      3.7188104222919929      11.434552568962198      1.9811075386029433
    31   1      2.6423168913927828       12.66247426319088     0.28366679696746372
    32   1      3.8534279765826138      14.069291290961655      1.9626805155900922
    33   1      2.6531707692258792      15.184377705334551     0.19193253837200944
    34   1      3.8203688765652282       16.59124477324557      1.8116976766847652
    35   1       2.452913042908921      17.761127571973642      35.955243311581683
    36   1      3.5551267158927016       19.25984445450473      1.6689308295606442
    37   1       2.512124777568947      20.439042783618167      35.969093281066279
    38   1      3.8636431495966672       21.75893888196536      1.5060427314925509
    39   1      2.4577188618467134      23.091864994233987      35.921084675909718
    40   1      3.8847292344245172      24.285030389767535      1.7901126463548389
    41   1      5.3073917478336394      25.454569204646138     0.25023750549956975
    42   1      6.4577361172359744      1.3544413099835637      1.8243941237436159
    43   1      5.1028346213560249       2.368981319201926      35.969761219111795
    44   1      6.2619948498177473      3.6076034522079459      1.7596820689613175
    45   1      5.1094358102666622       5.066213962141445      36.000804955208537
    46   1      6.3394659782002343      6.2017549347685508        1.94722538629743
    47   1      5.1319729217560228      7.6055101056769212      35.897244884897894
    48   1      6.3106970552550745       8.741432629782711      1.8235514173419818
    49   1      4.8895993921646976      10.006737230401377     0.30069112178043744
    50   1      6.3266799706272518      11.395126616725253      1.8852543030119349
    51   1      5.0393184227687753      12.493007757535281     0.20368470113464821
    52   1      6.4129201947887786      13.881089739383366      1.6849993981432365
    53   1      5.1008252381114163      15.327148176757833     0.15014597407529212
    54   1      6.3635299569168016       16.48015476511781      1.8424089192444613
    55   1      4.9562841009423231      18.016477983961785    0.054829440664718725
    56   1      6.2982152587836868      19.192995319079589      2.0375029169574885
    57   1      5.0030549421613317      20.377227978818578       35.87730076580285
    58   1      6.2847510297061353      21.526108800876216       1.661522210908164
    59   1      5.3023473836947836      22.893516369535863      36.028118746255416
    60   1       6.394290278161515      24.174244555235472      1.6995889228691221
    61   1      7.7519719304596633      25.511931829719803      35.986397639837698
    62   1      9.1061352942730576      1.3034885683612223      1.8340235375357339
    63   1       7.554021195533184      2.4570993681814164    0.029513999673315541
    64   1      8.6823846446713251      3.7966425486626751      1.8503029897046543
    65   1      7.9070014264721342      4.9652738355240009      36.004872915877634
    66   1      8.8805206900916343      6.2447325640042095      1.9148322827125295
    67   1          7.738520039989      7.5634817557140854     0.19101638670199453
    68   1      8.8667413093079368      8.6878299428796808      2.0025129662608272
    69   1      7.6676699125271801      10.041634380672463     0.13503006299604295
    70   1      8.9143861941339591      11.261800688360411      1.8984768704049331
    71   1      7.8988566996562968      12.626206838936117     0.31980256524894912
    72   1      9.1474655895406851      13.917705960836315      1.9389123194662381
    73   1       7.744392788747831      15.189627163220901     0.15279952857769116
    74   1      8.9750795262868088      16.680642714108544      1.9715142381038957
    75   1      7.7210427740313179      17.713253177454916    0.057525288767362667
    76   1      8.8838474716349545      19.431408460436181       1.958848780814844
    77   1      7.8386422325772829      20.232153339903824      35.985109707610242
    78   1      8.9372125339158952      21.819319181059782      1.7850637952418658
    79   1      7.6835154654902791      23.029532694391321       36.07801179721131
    80   1      8.8582337578603667      24.276203288367888      1.7744218858496208
    81   1      10.391002881262125      25.250822201425677    0.075341310897192773
    82   1      11.487730716101314      1.1154586616136133      1.8191020662357793
    83   1      10.087415181378971      2.4846641561218852      36.054269089311966
    84   1      11.266809237107152      3.8809487904235089      1.9717225248324206
    85   1      10.288102642089008      5.0849274240464082      35.982937234887679
    86   1      11.442943812669489      6.4650179299345645      1.9241724112125786
    87   1       10.08646560196912      7.5695403341664633    0.095806378787244878
    88   1      11.487736213945338      9.0196135241958668      1.7815526984700119
    89   1      10.021486020326883      10.242585512032983     0.28826057039957498
    90   1      11.445152427769299      11.549024537014889      1.8374292224086497
    91   1      10.366876575901571      12.814582844858668     0.10485801843586828
    92   1      11.670896720312907       14.05172416740043      1.8760005295101907
    93   1      10.309174706987944      15.384294762931786      36.063602772692228
    94   1      11.578323027490848         16.659448773142      1.9526156401267938
    95   1      10.108947575612348      17.761748554995268       36.06651570810223
    96   1      11.451072730066969      19.073495835666954      1.8780696773152949
    97   1      10.200127707490815      20.223795992098857      35.876797939656427
    98   1      11.392899132684365      21.615525312015656      1.6047274309289836
    99   1      10.294083354600444      22.847444691037353    0.016193879095078502
   100   1      11.598919265138319      23.916075276630362      1.7399541062849033
   101   1      12.788114194430422      25.321524887814562      0.2089615550231429
   102   1      13.971470175821837      1.3168316825153477      1.8932184010432125
   103   1      12.502525754671785      2.4528033255167307     0.13953882750729474
   104   1      13.741488318371886      3.6624721214676357      1.8875109411530635
   105   1      12.722908742687661      4.6397411695308994      0.1839819527364624
   106   1      14.165455450205375      6.2538046629480126      1.5239259245916046
   107   1      12.622078231598822       7.704635827336741     0.14823237880281123
   108   1      14.149660856917903      8.8809541629942128      1.6913672346042743
   109   1       12.56875276379532      10.151554158686736    0.032371453725352238
   110   1      14.211899243044599      11.393177330019498      1.7920533237283629
   111   1      12.705830028206538      12.681590780313304    0.095816405427478879
   112   1      14.220510475128016      13.929121549039115      2.1254983062822248
   113   1      12.735925412012799      15.265497217594758      0.1725693424288238
   114   1      14.127129143509384      16.475668415827467      1.9251659978523779
   115   1      12.539339075041761      17.605654513079827      36.020267201319925
   116   1      14.031368562410547      19.101662210105989      1.9498239730693292
   117   1      12.879825464498248      20.025870080776979      36.036269075236071
   118   1      14.031181924967777      21.633298296442206      1.9108968285137047
   119   1      12.735906862773202      22.501180950715025       36.01090653271168
   120   1      14.103879878647888      24.004597121783149      1.8786884203228846
   121   1      15.186680461143679    0.045864852889905661    0.089287495941971426
   122   1      16.433498975135294      1.3108561349559014      2.1207000696769227
   123   1      15.162025431484718      2.4819276874643643     0.11164109877497588
   124   1      16.492629383977544      3.6207822874287676      1.9553514072455527
   125   1       15.50522140878703      4.9093143716015266      36.080663528621429
   126   1      16.566799511534445      6.3905575640551238      1.8957177179526652
   127   1      15.654473043219626      7.5799139365053012    0.044037519304822727
   128   1      16.864473601072344      8.9976428003627245       1.980200369495537
   129   1      15.340415536324205      10.148416231162239      36.035977741766736
   130   1      16.634885124668102      11.510729113195435      1.6433596254745899
   131   1      15.132547074430663      12.988117693230373    0.086738464892266776
   132   1      16.593077480015122       14.18950680537656       1.814638508854536
   133   1      15.224469950707787      15.412029190606859    0.055614848940513023
   134   1      16.751963804021152      16.619716687691056      1.8814208397807299
   135   1      15.395515479115494      17.971955927736637     0.16259327913465985
   136   1      16.732436490025105       19.15573309428099      1.7445560831582605
   137   1      15.296530006728803      20.486168751385851      35.894566030713101
   138   1      16.365558020406844      21.607044518780864      1.7039231227392069
   139   1      15.425033091492175       23.17987345987672    0.098384238000517293
   140   1      16.427167341787339      24.349486818003282       1.904174866732558
   141   1      17.821500314668835      25.430009056136516     0.19601232820594972
   142   1      19.332648663693064      1.4067505717597417      2.0462585035918797
   143   1      17.961670214083487       2.508340321101965     0.11583961563616203
   144   1      19.090461058172473        3.78373525833966      1.7776215123123049
   145   1      17.784974769293779      5.0766520253085901     0.22020322027143482
   146   1      19.183419082716888       6.316765994047346      1.9969094958929412
   147   1      18.055268793208754       7.786065319929091    0.063231828026960035
   148   1       19.18591772681506      9.1086103376330918       1.908037391986865
   149   1       18.03228762409142      10.298893171048478      35.927306864677035
   150   1      19.172048079791903      11.476498648782735      1.5247580281052595
   151   1      17.540429219465956      12.643245900889886    0.074233509054499949
   152   1      19.238360691741207       14.02668974693187      1.7586865670635814
   153   1      17.979918660111718      15.382396292346733    0.030239436715487497
   154   1       19.42369495017428      16.491577239625069      1.7059672684847202
   155   1      18.082417541742338      17.811538342067024    0.026480506785139815
   156   1      19.150765986185455      19.187411709828694       1.805923844272934
   157   1      17.924217067531426      20.141141662514546      36.037800067799807
   158   1      19.009461684960065      21.568277843746337      1.9302352485821741
   159   1      17.854697957323218      22.817802451930131     0.17061966691354655
   160   1      19.005179327068305      24.264513114551622      1.8959719420322698
   161   1      20.377978970750917     0.19802801249710095   0.0094772628605255833
   162   1      21.889930261366739      1.2407290708653584      1.8335918352893019
   163   1      20.341649246114354      2.5139735914585355      0.1421673158482463
   164   1      21.605305060630375      4.0329666233801191      1.7151599079889039
   165   1      20.379221779884219      5.1885906632151846      36.025860513297921
   166   1      21.756224191140884      6.5789076030422731      1.6981033312245946
   167   1      20.510633261481686      7.5563049232871125      35.998976634631944
   168   1       21.64550410727994      9.0463392346206266      1.7551053922443776
   169   1      20.368593581290718       10.24416911547654      36.029930564775562
   170   1      21.786113002543857      11.608472121450978      1.8828485691997896
   171   1       20.50941456266445      12.920989826335409    0.050896301479088017
   172   1      21.669108840110066      14.227524294163091      1.6311785233832083
   173   1      20.606157922332425      15.341651727487255      35.818853507474508
   174   1      21.910173665253112       16.70697686482691      1.4507375648917691
   175   1      20.529274939147339       17.70665922830791   0.0027463479800644568
   176   1      21.968483012094708      19.113854357506991      1.5579391542538459
   177   1      20.426276224976672      20.371113777520659      36.075214331135548
   178   1       21.78159056902026      21.712724917494189      1.5343779435198139
   179   1      20.317719445910708      23.036480442208049     0.46043943911624891
   180   1      21.797788261296553      24.283515703723548      1.8173057187064974
   181   1      23.049923424473892   0.0067326337050575748      35.898622233788664
   182   1      24.266056906252118      1.1784645109600027      1.9634791191300003
   183   1      22.964081049888641      2.6615249402275807     0.18583046472709855
   184   1      24.501613648271519      3.8242768333153383      1.7509990774648956
   185   1      22.874918637365727      5.2906862363848788       35.99091674035585
   186   1      24.213853364769356      6.4595396234777622      1.9239566670482313
   187   1      23.285590882426916      7.8352491328136562     0.10708857584636475
   188   1      24.165648036066983      9.1470930052228905      1.7504254768246952
   189   1      23.153601999780548      10.507650338563375      36.080141167519137
   190   1      24.393411597660659      11.618671361303628      1.8217658385184226
   191   1      23.013774924738442      12.972413714955001      36.025904409436393
   192   1      24.322986874415818       14.21212918562045      1.7951912035793491
   193   1      23.106513142412112      15.316742723167099      35.691247884993182
   194   1      24.453325304538762       17.06730370651124      1.6809748042685091
   195   1      23.215284802440404      17.813802857432147       35.89851393030866
   196   1      24.207735510710979      19.317922674587891       1.633427628129926
   197   1      23.046659693759597      20.467387269326135      35.884374342813025
   198   1      24.435781739982133      21.791920685500717      1.5936123389000372
   199   1      23.143745358341988      23.133937271885891      35.931833229886301
   200   1      24.399661660346268       24.08440846019128       1.672911720415083
   201   1    0.022766563070417165      25.054157533815875      3.6991870151384454
   202   1      1.2650542482637233      1.2085720823909767      5.4687978004873505
   203   1    0.084552223648395361      2.3937567686213019      3.5966901628806562
   204   1      1.5277859729539542      3.8380382671730833       5.419855906713158
   205   1   0.0024199497252060842      5.0303971870566651      3.4256817707553173
   206   1      1.1765321360600378      6.3685946597681173      5.3806493078265563
   207   1      25.469561792267193       7.701464208813448       3.598542257019663
   208   1      1.3192764556669603      8.8449134077493987      5.2661480919057633
   209   1       25.52097524698182      10.292871690164096      3.5821645597643612
   210   1       1.242113017639574      11.561150975695837        5.61366639422139
   211   1    0.031369040732198067      12.776410275551235      3.6850903576752967
   212   1      1.3169879523905674      14.001431759959079      5.7645505909650669
   213   1    0.022625080728813095      15.148113968060851      3.5303344394391174
   214   1      1.2071342121833137      16.454635404165842      5.4297126543051428
   215   1      25.485723133368293       17.89900097094813      3.7721425315045121
   216   1      1.2474483013759869      19.270147038981332      5.4605835990969931
   217   1      25.341913478236155      20.436215600165525       3.692309521353347
   218   1      1.1803248971124458      21.704965645868032      5.4056157252612378
   219   1     0.20356872174811028      22.819701265857631        3.42819851009732
   220   1      1.2769497469982214      23.979011488582692      5.4192383818173298
   221   1      2.5786355525197204      25.379787552463991      3.5430640895158261
   222   1      3.8507790036135474      1.1168107357856998       5.469644282602883
   223   1      2.7395135299111386      2.4334095756070373      3.7733773047622612
   224   1      3.8589553781065531      3.7609630464766837        5.59566374135819
   225   1      2.6650955796864819      4.9073138313602627      3.6156166947390482
   226   1      3.6678357871165046      6.1042631281719606      5.3709919337309833
   227   1      2.6448385492418249       7.560650296364976      3.7217740042153755
   228   1      3.7467344059943417       8.780702973836588      5.4559532295127546
   229   1       2.534011143473887        10.2652671045226      3.7953126529778118
   230   1      3.8226298267505849      11.599304472004663      5.5913451768541389
   231   1      2.6197046776585555      12.657409147758443      3.6572324550710933
   232   1      3.8217756549123143      14.193866267939223      5.4486077049530097
   233   1       2.689451695243966      15.381670619280843      3.6821042369338448
   234   1         3.7823935251964      16.710384889491536      5.4033336484053445
   235   1      2.4643678113475214       17.82934522808134      3.5584977383495571
   236   1      3.8860729041457045      19.097464283965191      5.2551487140675377
   237   1      2.4703419270555464      20.582735611626138      3.6574778953412026
   238   1      3.6532044270241903      21.975103793945248      5.2998285331579167
   239   1      2.7000436730346666      22.846146835701305      3.4298461697261344
   240   1      3.6011726045074575      24.270527702477182      5.3948887226459163
   241   1       5.043800725916741     0.15980397034462918       3.659271610803648
   242   1      6.3351854702734274      1.3974835508313785      5.2454722005092362
   243   1      6.4721601162132893      3.7482488415893727      5.4172718757497691
   244   1      5.0528706349778059      4.8723485814883887      3.6775889530187005
   245   1       6.268698851125178      6.3409296222135172      5.4749131554346269
   246   1      5.0668573696127162      7.4643358229101553      3.7412280314192525
   247   1      6.3388038234518547      8.8195721242896212      5.5616679107392653
   248   1      5.0971728608910443      10.095730460457217      3.8034237729959006
   249   1      6.2812102377582653      11.458293176725752      5.5124890659659105
   250   1      5.1150282401695675       12.64115959281618      3.6695500366284466
   251   1       6.309871671949824      14.126375522852612      5.4267079405571312
   252   1      5.1293105844158049      15.414641080253901      3.4508614843192054
   253   1      6.3080497563384563      16.722401341067172      5.4745778473113917
   254   1      5.0254508678562528      17.915280335518329      3.5369161937587119
   255   1      6.4520390303632542      19.230590328091967      5.5150490997778627
   256   1      5.0390875120772955      20.591265773810218      3.4937299266357389
   257   1       6.273710395516547      21.666926011497111      5.4612561479206816
   258   1      5.0989089529683449      23.073829148544856      3.7442531253471052
   259   1      6.3102060966278994      24.254922836860224      5.5885330224466081
   260   1      7.4653654384801813      25.477439985374367      3.7498139441473914
   261   1      8.7611624516536022      1.3338978593879163      5.4638042762624446
   262   1      7.8254678695286088      2.3483631972001793      3.7081688543817184
   263   1      8.6256668313143621      3.8321722235362401       5.340029971721898
   264   1      7.6213714420203384      5.2334127646092687      3.6061471681260411
   265   1      8.8861586501429066      6.5432473085904501      5.4183391408525896
   266   1      7.5327958896106901      7.6707059727618896      3.6673106758072782
   267   1      8.9950073023101105      8.9843402312238378       5.268481801463639
   268   1       7.559052003694104      10.366484090917382      3.7255552137827248
   269   1      8.8988310629101388      11.541513987393655      5.5493524602660296
   270   1      7.6873322893321427      12.796742363177332      3.7483587940394498
   271   1      9.2522075517674551      14.175728265765049      5.3162526334518203
   272   1       7.540029381190803      15.346540621890153      3.6302189921755752
   273   1      9.0687407476115585      16.548766135561007      5.4377168480543281
   274   1      7.8722838501342851       17.90664225990292      3.7111327831619447
   275   1      8.9004793277357734      19.134742714901737      5.2961088967673229
   276   1      7.5840567542742612      20.410558224639246      3.6045342716867363
   277   1      8.8574477098664754      21.603273695684067      5.4565430382372035
   278   1      7.5651084578118848      23.040643509391931      3.7991602035925611
   279   1      8.9461919548828686      24.353753994203736      5.3044816322166772
   280   1      10.128926197902707   0.0096288345178008935      3.5937308647670752
   281   1      11.392210571014617      1.1029451836567759      5.6196113791750824
   282   1      10.223823515406368      2.7206561114262175      3.6645321562094466
   283   1      11.713137412360801      3.8403550588895445      5.5863520088112919
   284   1      10.262525583882438        5.20533750828994      3.7318805110093418
   285   1      11.467114494164555      6.5064812083604044      5.5597398288451529
   286   1      10.482453912986042      7.7342747517502346        3.61495113601381
   287   1      11.625630926568332      8.9251749951893498      5.4560059226430679
   288   1      10.341713179066419      10.071542294316838       3.591836754435906
   289   1      11.434539268777593      11.313319643086762      5.3223514249207469
   290   1      10.198583067512345      12.719514318569532      3.6994838302584538
   291   1      11.744421116270535      13.856610613133041      5.3030923288096998
   292   1      10.390166846563138      15.319946737047413      3.6585889646959564
   293   1       11.70508813924436      16.790256060562388      5.2480044265669257
   294   1      10.191081001605035      17.965447689135932      3.6031377562811162
   295   1      11.220953582779062      19.209533062304025      5.2929387315535434
   296   1      10.087555396527408      20.448791478626042      3.7041622793712392
   297   1      11.565502778017395       21.71751889133315      5.2984352539664981
   298   1      10.271399931344956      22.941332498965771      3.7225877285211806
   299   1      11.687952472023222      24.226254599749268      5.5520926205187209
   300   1      12.889545110936707      25.214986833506934      3.6147148618947744
   301   1      14.064478582490809     0.92504401005500081      5.4465214262168953
   302   1      12.649968428744225      2.2815613535388408      3.7975168935737367
   303   1      14.078164871638691      3.9076963943765675      5.3085935479570194
   304   1      12.622948232963667      5.1469351516720812      3.5240585690373902
   305   1      13.783068183502538      6.4844036612476517      5.5416476218376118
   306   1       12.81063474560319      7.4367148551833262      3.6758187405048997
   307   1       14.09330883226564      8.9818030819003738      5.3449288416233411
   308   1      13.016211407220311      10.035752586801287      3.5996772798336578
   309   1      14.182837231655665      11.604697813183416       5.301629272146652
   310   1      12.735545960465714      12.484290607685281      3.5748519063899953
   311   1      14.280763619345962        14.0951059467936      5.2155524127923591
   312   1      12.794251272404722      15.272589911268893      3.7686887436768872
   313   1      14.168352534371044        16.6675868005876      5.3257646399130296
   314   1      12.971184504726827      17.950532972917237      3.5950129748065698
   315   1      14.062071818757481       19.10771835937075      5.4618911978719691
   316   1      12.583742172254313      20.544306483448306      3.4842476931746198
   317   1      13.939555545601561      21.447371856980396        5.36917877554606
   318   1      12.732596498580714      22.921052930547681      3.7468395241023451
   319   1      14.162200230562725      23.967172208989417      5.4906541461330853
   320   1      15.259337744286892      25.118345559656859      3.7304113473095466
   321   1      16.523023100007279      1.2906925033047401      5.5188086473088465
   322   1      15.137924213482266      2.3453704148040977      3.8301839284491388
   323   1      16.466480750275327      3.8148837748900197      5.3709459111296463
   324   1      14.839458915348841      5.0145255738670445      3.5424913130271198
   325   1      16.285033056657547      6.3644013875687797      5.4327072193489263
   326   1      15.195597164661438      7.7625963294922897      3.6175333394771152
   327   1      16.673086320701128      8.9242975230737969      5.2844318530788899
   328   1      15.598172339566419      10.194345886609389      3.7402745131353696
   329   1      16.686407479804295        11.6443711310643      5.4522108363923216
   330   1      15.728667344211823        12.7218961732978      3.5419967873160654
   331   1       16.87408615292588      14.195185030141261      5.3907034013648447
   332   1      15.521648077764352      15.182416541839887      3.6861957306982376
   333   1      16.823431029204379      16.737448685904031      5.4561610011116937
   334   1      15.516908371390643      17.700806517822159      3.5476476429637942
   335   1       16.95367400881727      19.210706315117339      5.2525859899926512
   336   1      15.412772020022308      20.332639845640188      3.4751113683156185
   337   1      16.591515406416981      21.634711881778259      5.3676501781464419
   338   1      15.263528029260993      22.795315494080278      3.7200819811969024
   339   1      16.612400141018512      24.420907737423924      5.6245635979508846
   340   1       17.73461701315118      25.477597800444951       3.611934391505756
   341   1      19.300228803763119      1.1322432005574656      5.3016951168119766
   342   1      17.754520809966504       2.439984520017084      3.7595154264974751
   343   1      19.235911432344537      3.6670615235273072      5.4227710720954283
   344   1      17.810050912054948      4.8403470736353285      3.8393242204821507
   345   1      19.096172074558343      6.2334160329526398      5.4033885044059682
   346   1      17.766449129278438      7.3918198897520551      3.6411275368611502
   347   1      19.123182354509016      8.9107511721163721      5.3032500111787622
   348   1      18.027296787039621      10.258756132546072      3.6777235302941493
   349   1      19.326322956738199      11.492353987250645      5.5292289648377038
   350   1       18.12520065081036      12.704560001634038      3.5097970852770679
   351   1      19.370480622848632      14.157000973779308      5.2406083310591578
   352   1      18.164377043322371       15.46651643201159      3.4901498521695089
   353   1      19.189381423329049      16.779995040663675      5.2464088116378944
   354   1      17.836961195387879      17.859602721288834      3.5779920015123583
   355   1      19.309528534576987      19.095775930097627      5.5235923029967839
   356   1      18.947386544721205      21.652873520369358      5.3068230880852969
   357   1      17.602828539296997      22.952237781268767       3.468059020665589
   358   1      19.134037681208351      23.932985235184752      5.2736623932002127
   359   1      20.407593639413935      25.289435919525388      3.5363426269444638