dump/Mg_900_5/steps_51 (written by ASE) 

3995 	 atoms 
1  atom types
0.0      32.100000000000001  xlo xhi
0.0      55.598830921999998  ylo yhi
0.0      52.130399999999995  zlo zhi


Atoms 

     1   1     0.57523657416889939    0.088600392318059357     0.16095032780745333
     2   1      1.7992649140683514      3.2082870734256534     0.10209526482581047
     3   1      1.2813348704979264      1.1950502182158511      2.8398749299740857
     4   1      31.564340102262712      4.1514345182196299      2.6976789755775554
     5   1     0.16364646319513021      5.5423769374131417     0.16420970397375123
     6   1      2.1660278809603382      8.1583073715036925    0.059519522941179771
     7   1      1.5807465728372456        6.55575071002146      2.7446571590624074
     8   1     0.14116758402813134       9.214501106430415      2.6850641271317288
     9   1     0.25951852729107655      10.867593003471205      52.075704725575541
    10   1      1.6078508208097486      13.787809169497493      51.967944388532217
    11   1       1.347636525607232      12.134739876871743      2.4531843426452697
    12   1    0.076875482637025067      15.219557672060352      2.5480545245804853
    13   1      0.2574588722796689      16.870286328359068      52.039925211094285
    14   1      1.1436878904406089      19.556849489343755      51.916463059096095
    15   1        1.80303243470047      17.757726127457403      2.8087040179263112
    16   1    0.026212529526277714      20.263177128130863      3.0910026930341878
    17   1      32.092134662231857       22.15441291344121      52.110573055900325
    18   1      2.8747997273859052      25.889287009403336      2.9382917881175157
    19   1      1.4531872196099045      22.987493011706871      2.9495231439171365
    20   1      31.854173788802207      25.806238464719257      2.7579994756768147
    21   1      31.988862716424507      27.694017417385162     0.44419051783691482
    22   1       1.648134391688497      30.745763495586615    0.054338853190135247
    23   1      6.4832270305287949      27.953329681814377     0.31986684894973116
    24   1      32.002070431765148      31.611133535481741      2.4335778498262499
    25   1    0.083509584645084747      33.776745767585425    0.044015755068793336
    26   1      1.7905842473824189       36.33992647026357      51.895408252184964
    27   1      1.5714761703742552      34.298646373176645      2.6944686403471385
    28   1    0.050328562122890802      36.954335640014989      2.6500519774113931
    29   1     0.20567442760839422      38.875766699460698    0.040495371897461607
    30   1      1.6301269550320701      41.483044688414346       51.98344177854046
    31   1      1.8598917005442468      40.042007206544532      2.7915149253881624
    32   1   0.0038594926152341392      42.383787420791549      2.6084689751246919
    33   1       31.95782327559894      44.541467509170261      52.014544685630057
    34   1       1.956255417207633       47.07011316545276      51.850603015537985
    35   1      1.7724809209238319      45.141825371928341      2.5640300505092437
    36   1     0.23207971495386676      48.021551960054239      2.6728492467576461
    37   1    0.069682827916785053      49.784063957803276       52.04136245049164
    38   1      1.7658782304589944      53.116584560163901       52.04968062596442
    39   1       1.792476652239968      51.378891435227153      2.3646157545240949
    40   1    0.004736497731725021      53.756962514310089      2.5246006112375614
    41   1      3.6502236932881442      55.509914248116601      51.928339902488403
    42   1      4.7201755099742355      2.8448742182161402     0.15405185001127417
    43   1       4.649750532603476     0.95097394352641162       2.667263165532022
    44   1      3.4791499310802343      3.9847873361381727      2.8840595555154618
    45   1      3.4954370338574989       5.657741145928922     0.28316612750109432
    46   1      4.9673054765227631      8.5239794156090607      52.010849179195709
    47   1      4.7070700154916256      6.5066841846258932      2.5378209150193052
    48   1      3.2232061219888011      9.0814061221164568      2.9461726800382229
    49   1      3.4286488185824275      11.060643122221339      0.3380460856997034
    50   1      4.5737624954209029      14.271746824574146      51.906911685559507
    51   1      4.7812777420500376      11.735321826104029      2.6509403107545064
    52   1      3.1962972637558682      14.740756936984896      2.4476148464397438
    53   1      3.1608167000179508      16.972618097252397    0.085494152057826012
    54   1      4.8632686373546479       19.78561643095728     0.06127832992700892
    55   1      5.0550877638743428      17.691031127195004      2.5971084752997862
    56   1      3.5003272983748155      20.355636726477286      2.6877616455188695
    57   1      2.9755349378913847      22.416172781272582     0.21320003061571957
    58   1      4.6409221480531517      23.222302348606938       2.737858665012197
    59   1      1.4621947422423813      24.843369624048169      52.127185631462559
    60   1      4.7584772357471303      24.853230436669193      0.1044753370117321
    61   1      4.7994597761792113      30.584678637684956      0.1050643855149104
    62   1      4.6293051718321063      28.462845099481591      2.7217372753100135
    63   1      3.1546672553182944      27.833096790692842    0.045773654890948194
    64   1      3.1760010025101155      33.543615906663689      52.120758499081468
    65   1      4.7194650128437914      36.025999789211411    0.093462623208907331
    66   1      4.7859862120376082      34.482901754489909      2.4878138216248327
    67   1      2.9983303657258289      37.028510124352692      2.7124817117760847
    68   1      3.0667614998667454      39.125248721124606     0.14904890629974712
    69   1      4.8678971357383647      41.589399603313836      52.118136538308057
    70   1      4.6980586208613371      39.792945418953543      2.5166468287499848
    71   1      3.5943484880014656      42.671674069400389      2.7364314284177587
    72   1       3.147409252852881      44.239848453218947    0.084056914657722526
    73   1      4.8631199862936993      47.195535678248589        51.6562972051332
    74   1      4.5688114468316643      45.500046153635374      2.5238324537011256
    75   1      3.1092523782833994      48.551913856020924      2.3643739351674902
    76   1      3.1910660399470618      50.099821531231463      51.951295804194018
    77   1       4.883642419379111      52.730808687439769     0.16839834869576414
    78   1      4.9742065529474697      51.032833158749604      2.5389562025446768
    79   1      3.1887078529361963      53.973096137522901      2.6397298912231046
    80   1      6.7702142117254427      55.506011685929209     0.40853259907842182
    81   1      7.6788950832412501      2.5674358652783136     0.11227135301639145
    82   1      7.7681590545717354      1.3070842580914888      2.7694302997166127
    83   1      6.5788463105571271       3.735529566972108      2.6572769306352195
    84   1       6.707227936235447      5.6673527122525709     0.15737787788136995
    85   1      7.9793222299166562      8.8287121525446626     0.21797487894746539
    86   1      8.6673628694477305      6.8929008237099882      2.9579604162432371
    87   1      6.4935210207555532      9.2199202512667267      3.1837997719637441
    88   1      6.3964065925756373       11.28482933816341      51.851433083972658
    89   1      7.7287656497104322      12.502199980861219      48.925615350469435
    90   1       8.297593520662371      12.269645741487469      2.5080386527864524
    91   1      6.3701385332605227      14.945097922254041      2.2678998245840285
    92   1      6.3061536921227646      17.044283487422415      52.066875723122081
    93   1       7.964890877045705      19.589273800795475      52.060752156504712
    94   1      8.1391117148568224      17.235309811514551      2.4688271727978259
    95   1      6.7615116777406277      20.234299024580007      2.5766950732054794
    96   1      6.4905200064136972      22.209167142996041     0.17050122614218757
    97   1      8.0377199543607372      25.267757855433608    0.096291007476875329
    98   1      8.3301477978163199      23.314404793467389      2.3894179635132744
    99   1      9.9509784598159214      26.051262580346584      2.6251669454064004
   100   1      6.1585475161596896      25.724864676591274      2.5994869605241506
   101   1      8.4947926175808046      30.632388571395033      0.3124473835432236
   102   1      3.5872066234252653      31.446295317338826      2.3854876551372053
   103   1       1.633985621515309       28.72341843665826      2.8075165791100121
   104   1      6.3844284492137726       32.87705969107278   0.0031930436955946778
   105   1      7.7125995936947174      36.108703064679261      51.840773376244186
   106   1      7.8335815954862182      34.572092036144433      2.5100781207911256
   107   1      5.8393941889165628      37.217156199735044      2.6753909683475454
   108   1       6.114281704892214      38.654967792191037     0.16889322216775177
   109   1      7.9792868748994925      41.532591541821525      52.092537973143557
   110   1      7.9500678920621013      39.519029552713839      2.5384480578005717
   111   1      6.5734943234242706      42.181499887462614      2.4006603817989878
   112   1      6.2858412594869488      44.388205209213282     0.22600789145615952
   113   1      8.1930283940798176      47.538545528772509      51.843561836453262
   114   1      8.1835676748644275      45.016919313006326      2.6740060289676504
   115   1      6.3162254050934896      47.861161921390512      2.1963311392308245
   116   1      6.5169568897987888      49.979195608646712     0.16645502592949379
   117   1      8.0041932077181261      52.997489487937486       51.89301850206536
   118   1      7.9729906898605822      51.318728588207826      2.0967402522657466
   119   1       6.484670235327922      53.839877251437343      2.6548309598072719
   120   1      9.6798978302064018       55.56064271537798      52.086075319557025
   121   1      13.287419754479387      3.7438573754032975      49.679425523092526
   122   1      11.009100546894963      1.2091154538142714      2.2939325599852456
   123   1      9.3682286131711869      3.9621717889958963      2.5340373902572062
   124   1      9.7375480982205254      5.4610100128806289      51.991948455027547
   125   1      11.281605602086234      8.1795960706172028     0.16090751993848812
   126   1      11.405322881012033      6.8741673396367471      2.5313314619433989
   127   1      9.6266863922067696      9.6025745947291998      2.8798457057567561
   128   1      9.5918347355791695      11.134595574318462      52.128731243022166
   129   1      11.306967385591225      13.942144112892143      52.046066777894758
   130   1      13.203145387222124      11.563148330305076      0.3331269612672777
   131   1       7.942648665438802       13.87983220938478      52.000638925110586
   132   1      9.6591702884829633      16.923839647566311      51.973862641918281
   133   1      11.136333218552533       19.38137558420555     0.24096340305426153
   134   1      11.357494631894822       17.49873814730201      2.8786484000686841
   135   1      9.6124289492240642      20.211244084593282      2.7934818451547878
   136   1      9.4949429458166215      22.239305564394613      52.083153060057839
   137   1      11.286482114825818      24.644804535120205       51.81957593700573
   138   1      11.145491900070271      23.234017659084468      2.8209370574629355
   139   1      8.2783517963366808      28.656911836850909      2.3977835820703528
   140   1      9.5977116783305707      27.857463714749482      51.867452618454863
   141   1      11.321254181742841      30.412880384882392      51.967576740077689
   142   1      11.187725808927958      28.530170596239461      2.4806687808810222
   143   1      9.9755024664893543      31.836401488182947      2.6230402555239536
   144   1      9.6754834024698226      33.470899053622581      51.988616870261382
   145   1      11.273017242141718      36.035898074201171      51.889362282281603
   146   1      12.719177811739565      33.268832940656466      5.1214544814700735
   147   1      9.6518875311469063      37.201705811040775      2.5621178301495569
   148   1      9.5186522085517105      38.659869369905508    0.052126193055970528
   149   1      11.382310072075942      41.278119488223787       52.08491474991142
   150   1      11.416163974415181      39.777893358738311       2.568553480687803
   151   1      9.5393144391183391      42.027554793574772      2.7692655953292618
   152   1      9.3786294610804379      44.613052859285531       52.09428684568023
   153   1      10.951311647858832      47.201590292589053      51.959815698006878
   154   1      11.517219381311655      45.062743828835004      2.2898827049225425
   155   1      9.3796569391727154      47.808929134318717      2.3502285767720701
   156   1      9.6518866350824766      50.092328903481267      51.871297024295842
   157   1      10.811968139740038      52.782522693241987    0.061054108999259421
   158   1      11.206535946092085      50.978787198580633       2.397894004196234
   159   1      9.8811051241946171      54.183291317912499      2.7058910939725158
   160   1      12.787707480080112     0.24929198428431595    0.078013587037174939
   161   1      14.638582696862196      2.8342457328241175     0.33178417729167037
   162   1      14.438913041177569      0.6959170279540311      2.4200291692938314
   163   1      12.469291894627261      3.9787651204917767      2.5874272933193989
   164   1      12.984313024044177       5.658146575105067      52.095990476943072
   165   1      14.415111820680865      8.4687217045222258     0.41072824406197411
   166   1      14.495556644561644      6.6864347400232518      3.0598190432273813
   167   1      12.960344810924399      9.5315674442618032      3.0362545239054457
   168   1      13.291499164022031      9.0478158915984608      49.372752566993945
   169   1      14.483041799441068      14.361256446436885     0.45888307647417398
   170   1      14.356488793974595      12.289533085117752       3.010856488353379
   171   1      11.260773024555034      12.014607640566521       2.605253026020439
   172   1      14.530309438978968       19.30463556494421      52.021377481914875
   173   1      14.473143896614589      17.532280481387463      2.4052932638280278
   174   1        12.6391492405899      16.754024958928774      5.3769608940935525
   175   1      12.612600604995567      20.261498781379622      2.8989304587808067
   176   1      13.313424493845364      22.172598268298913    0.051444140801544913
   177   1      14.537430036854966      24.936854315807953    0.048713267063148734
   178   1       13.99338125267848      23.282091245579863      2.9873009251836211
   179   1      12.942041634964522      25.942412470871822      2.7584500872387299
   180   1      12.824369639142766      27.735018097386043      52.068570369542371
   181   1      13.962653564633644      30.855234816049737       52.11575718913042
   182   1      14.120250049988837      28.865617032880177      2.4816693430913928
   183   1      12.930129288702949      31.469483448036417      2.4747540566015602
   184   1      12.730397123903517      33.739851914483424      52.100765157227777
   185   1      14.660569982179767      36.105047016703857    0.047810172906836382
   186   1      14.505991152519435      34.066924873641362      2.3788141657972339
   187   1      13.116483634389658      37.305090567553499      2.4135729514144928
   188   1      13.055063073987354      38.717193116889483      51.800420376804141
   189   1      14.589082859973827      41.277111045991255    0.053710128905655338
   190   1      14.768833124827131       39.82305061213426        2.69082802111993
   191   1      13.096786707905494      42.463714378694199      2.6444328776220241
   192   1      12.506819376785261      44.419978700818397      52.027688706125815
   193   1      14.511173663093537      47.479293399789761      51.560806243603771
   194   1       14.51408345251386      45.585590691876106      2.3388559426462545
   195   1      12.551481994608054      47.979607054202276      2.4390714150608197
   196   1      12.732832616009347       49.85180149849328       51.88065921407177
   197   1      14.077370616355765      53.013219618192387      51.800597607787864
   198   1      14.287106503855435      50.774143308812292      2.4679764175133636
   199   1      12.997203443944089      53.874425912847819      2.4803822222078118
   200   1      16.323196294065429      0.3573962665148992       51.87526343457457
   201   1      17.928076163941878      3.1988708581085894     0.16782688683355498
   202   1      17.444552425392864      1.2548916462303825      2.3938127967336316
   203   1      15.891962101491094      3.9716908455763043      2.7459012706102111
   204   1      15.770832486374402      5.8784877359220093     0.12721520918396328
   205   1      17.766192980993821       6.418249237173745      49.729600242531312
   206   1      17.764321035254163      6.5678650956037732      2.4567008089720268
   207   1      16.369842268907778      9.3742808236309703       2.986036339175469
   208   1      17.719118894924094      8.6546303858374323     0.21370312254563334
   209   1      19.222879619433566      14.924540958986066      3.0621323279621002
   210   1      17.639190657624191      12.325171134986045      3.1600961232554217
   211   1      12.967087433542289      14.832972962014228      2.8582361395505029
   212   1      16.261414778626015      15.348853624673144      2.9882152597763287
   213   1      17.451950244410959      19.900710176491774     0.35816448550174929
   214   1      17.846160737230946      18.101927151089374      2.8090113355693633
   215   1      15.591246333440449      20.379385426990279      2.8290055803255512
   216   1        16.2362209154374      22.386970915885612      52.091245135181367
   217   1      17.602943091784748      25.185414160066042      52.129151812708194
   218   1      17.201583790796978      23.102286216874855      2.5340488041397298
   219   1       16.33608867937253      26.078807831669295      2.5140200132362476
   220   1       16.42188014599337       27.80978496983959      0.1939425436133784
   221   1      18.219612945629422      30.515346999943834     0.22397757883024491
   222   1      17.872175197933153      29.037299695722098      2.5323164503081266
   223   1      16.043419617832136      31.665803414537795      2.5846991758193338
   224   1        15.9600163593202      33.349106160882819      51.782208626280521
   225   1      17.803354822819635       35.81814936778126      52.100116868512103
   226   1      17.463764238589963      34.167653507153574      2.3218238098940653
   227   1      16.048743952497837      36.985362000819684      2.5571080248970706
   228   1      16.043316382305882      38.687130736637677    0.090151414824764825
   229   1      17.970669329977735      41.642459453628305     0.01409636890782957
   230   1      17.963065550428901      39.744043441368149      2.2621575755360319
   231   1      16.320845069250531      42.637043222902371      2.5291375239160638
   232   1      15.823509851692789      44.103022568482878      52.061458380079763
   233   1      17.791370118989313      47.763731691787221      51.717798079387464
   234   1      17.818748517608622      45.799691031373321      1.7922573767308947
   235   1      16.124693704069362      48.141334039851643      2.2345399853928383
   236   1      16.316491821306514      50.452271581191162       51.79918524944992
   237   1      18.044780043424698      53.337779189381457    0.020637480939176289
   238   1      17.988265664405986      51.241665047960218      2.2123372632649971
   239   1      15.958543767975224      53.557870416362654      2.5963969174324668
   240   1      19.305210370948689      0.1807233630498484      51.768171421894365
   241   1      21.161796811879171      2.6283148275904913      51.981057305862777
   242   1      20.626749453403171      1.4307110349123349      2.3996530204600575
   243   1      19.398774282646102      3.6453150806734249      2.7042514215950457
   244   1      19.463371113756349      5.4522400141967191     0.28548173134438004
   245   1      20.778253999034984      8.0781235378607388    0.064860367898929058
   246   1      21.209832439422708       6.592648847576152      2.9227814508707577
   247   1      19.236642051628063       9.176096833029888      2.4570621107004538
   248   1      19.227789881444565      11.204291287868156    0.086793956253313043
   249   1      21.233484084088275      13.720482413859161      0.4535417064190253
   250   1      20.593673608630123      11.943409222099564      2.4944615655165379
   251   1      17.658343020666184      13.664793935537636     0.64458156099466069
   252   1       21.18676225980267       17.77923903015796      50.041624455712991
   253   1      20.308729485727039      19.919453722955755     0.32212434358073794
   254   1      20.429439787127532      17.885770658099425      2.6782119578577941
   255   1      19.310793233692905      20.935232062974375       2.673319867872451
   256   1       19.36497422027627      22.690284606642031    0.028452612904829869
   257   1       21.53558006721876      25.097270005564226       51.79483664437609
   258   1      20.286542592874532      23.645536787998878      2.4458842589008825
   259   1      19.329406917285258      26.547321598863217      2.8597258531285425
   260   1      19.528774522309707      27.541931379221516     0.20041281524594809
   261   1      21.271672856589664      30.216604850719328    0.080999752622193805
   262   1      21.269217932916362      28.825184880954911      2.6451811509874643
   263   1      19.754914843473095       31.68115536012094        2.50042073256038
   264   1      19.158303930183035      33.291364010636315      51.960159267096998
   265   1      20.815922357249761       36.02213396984282      51.967138611472095
   266   1      20.608669205724656      34.425530885940788      2.7240201214047408
   267   1        19.3506002247582      37.086258550190806       2.395166774088902
   268   1      19.329860976668833      38.678860083844967      51.911547492887372
   269   1      21.046424012650633      41.508400491372043      52.095924700758175
   270   1      21.001742646542308      39.364875443539887      2.6488916685305983
   271   1       19.27498557544331      42.777074380464043      2.4097271609499562
   272   1      19.360781098405148      44.411542452344122      51.900623871731057
   273   1      20.633737013944128      47.240745733553688     0.13663614662057977
   274   1      20.839039996615668      45.260502745939348      2.5361754583799643
   275   1      19.095930634853904      48.405048522489025      2.5096802155287858
   276   1      19.477814077971523      50.253005793732299     0.19307304525398689
   277   1      20.767321855700164          53.02598073923     0.10221615059052393
   278   1       21.10466703959413      51.407045556378051      2.5934579758720107
   279   1      19.191581804333037      54.164212684359036      2.4726800511971625
   280   1      22.465295030993513      55.534255811305847      51.425663543644539
   281   1      24.271162722651216      2.5730309101555471      51.911267660742595
   282   1       24.37910972714625     0.93540573977873376      2.1998266043344818
   283   1      22.538747450802564      3.9219736827224243       2.088456764101573
   284   1      22.894462169256226      5.4395675857505141      51.753084530788861
   285   1      24.150118475479584      8.6864955552917511    0.077316620033587649
   286   1      24.193740379260333      6.5546264952566204      2.4947615494511641
   287   1      22.023616864137942      9.6505765007600797      2.3816898533335342
   288   1       22.53704248016907      11.508585489370688      52.023551793457187
   289   1      24.264789013549183      14.145555887103637     0.30734184436608536
   290   1      23.973787533599282      12.004770409217212      2.7145266903312919
   291   1      22.561787218855347       15.21364166176922      3.1250967969385544
   292   1      22.623428192218935      16.466050772251705     0.21306929348305656
   293   1      23.775498823794592      19.479661919908764     0.25665281747320351
   294   1       24.20466227788776      17.989736456634816      2.8198068196877313
   295   1      22.286075091901278      20.486523980193031      2.9360998854715619
   296   1      22.472660040074903      22.160491635195022      52.031014668812858
   297   1      24.305117644023522      24.776932266561932      0.2160181921824276
   298   1      23.566152794324754      23.397090116657026      2.6786516857788167
   299   1      22.858591179744931      26.361671573904815      2.6879089090937018
   300   1      22.749505322699633      27.742059888414946      52.087664118358269
   301   1      24.577127948964449      30.240632891816919     0.16684282297948133
   302   1      24.280853863298475      28.866661718334292      2.8257497704430423
   303   1      22.684168853083555      31.545958328031585      2.4871320134134884
   304   1      22.108506159924488      33.140662334070917     0.26725043326836684
   305   1      24.118308269372729      36.016003194221419     0.25226851467785971
   306   1      24.123575734610583      34.452212058080995      2.6887733083644747
   307   1      22.326432805591338        36.7607139832296      2.6233541345405551
   308   1      22.766987389930694      38.501746155819298     0.23156091038016785
   309   1      24.038973284901218      41.412394113940657       52.09102571529651
   310   1      24.433274449383404      39.943051544396489      2.5940870234255575
   311   1      22.534013148489098      42.708983816815199      2.5502346890732634
   312   1       22.50409253280456      44.247348254842812      52.104117796701097
   313   1      23.983489342117647      47.417455241767961       51.87832030676968
   314   1      23.914940909076826      45.196865181377653      2.5273293932628196
   315   1      22.627140477626604      47.907267944453928      2.6100227790861839
   316   1      22.594381191323158      50.139894601588594    0.035985427081364374
   317   1      24.161194028383289      52.912617809164729      52.126676175385477
   318   1      24.470268694378305      50.816232461783528      2.3677377305262413
   319   1      22.590850814239193      53.820607363815526      2.3812598339508404
   320   1      26.108638873392518      55.458391297383308      52.083713343943451
   321   1      27.291482905298064      3.0121589423406929      51.868116277765466
   322   1      27.325386732112324      0.7686470916901218      2.4870206894163283
   323   1      25.648028594841296      3.7623743407157226      2.3145621451784697
   324   1      25.886880650078801      5.8769188973877986       51.93049624885272
   325   1      27.529517633001515      8.6266590618930845      52.103892847075592
   326   1      27.492034378395154      6.4822398697555936      2.5711343962431252
   327   1      26.209963306467326      9.1946910032533218      2.4699611039514719
   328   1      26.050137880205817      11.621676678548466     0.11820644235819384
   329   1      27.466115552675767      14.165815726086063     0.23988878363755736
   330   1      27.533861790263998      12.159283150148235      2.7278300286530057
   331   1      25.334629249778956      14.799296839264986      2.7850073989423074
   332   1      25.759600342714744      17.004663688169149     0.16222621077934402
   333   1       27.42381316113747      19.558107218263928     0.39224763662620404
   334   1      27.311568662736025      17.575994321315331      3.1075319140766311
   335   1      26.008570919880736      20.233428899000117      2.8041370223306226
   336   1      25.757449549377167      21.853237356867659      52.036129928058408
   337   1      27.495750369248086      25.037144490995225     0.04794367689818918
   338   1      27.176000421496646      23.160206961161368       2.869164076570518
   339   1      25.789669307852627      26.029523553663033      3.0735082677817283
   340   1      25.741166011381079      27.513112920582003     0.51306840538117426
   341   1      27.463773492478165      30.595427326724739     0.38356092760269928
   342   1      27.335863980129481      28.763779276125458      2.7255667861431565
   343   1      25.497285248750011      31.358672217674084      2.8792902458438272
   344   1      25.502289781982647      33.120895611858963     0.19807675172310701
   345   1      27.031020214649278      36.025440076042564      0.1928046289889894
   346   1      27.150146204609847      34.217835674698257       2.844892852903679
   347   1        25.5338783913821      36.987942212339469      3.1035247570581763
   348   1       25.42255172599328      38.768043846276811      52.118043919550786
   349   1      27.197942278313405      41.657988540636758      51.975523691519314
   350   1      27.765081115357894      39.909931230316317      2.7616651408308845
   351   1      25.807629167079025       42.66260644425158      2.4150107094848732
   352   1      25.624851494284652      44.663349766977191      51.994740117521189
   353   1      27.429949726545352      47.058585215339832      52.058086775197332
   354   1      27.652255255917325      45.220373763262302      2.6382955163064192
   355   1      25.773186037973673      48.114362999622294      2.4500160653453338
   356   1      25.940420333459247      50.431067076994971      51.823061313422009
   357   1      27.772417561324922      53.130938495017823      51.586959412672471
   358   1      27.785249136142479      50.445106374590893      2.3212481719189211
   359   1      25.809860433502813      53.676271782213512      2.2865651253771664