dump/Mg_900_5/steps_91 (written by ASE) 

3995 	 atoms 
1  atom types
0.0      32.100000000000001  xlo xhi
0.0      55.598830921999998  ylo yhi
0.0      52.130399999999995  zlo zhi


Atoms 

     1   1     0.29120826805047118   0.0034672583958740674      52.089260439441539
     2   1      1.4891233731034972      2.9317058086084402     0.33678446627465025
     3   1      1.8270556736013424      1.1098617074323547      2.4228787747603011
     4   1      0.1240310748064874      3.4927206818842773      3.1674374498057865
     5   1    0.028979107124951393       5.559408702519435     0.18118918696556266
     6   1      1.4064247184673384      8.1596665353285349     0.21804400684870895
     7   1      1.6032348169962705      6.6156512906981515      2.8041008311594542
     8   1      31.836649208170932      9.2149683424653315      2.4453922777524433
     9   1      31.534919897294952      10.996889096356453      51.864386713231454
    10   1      1.2200145780418592      13.932362566602647      51.857153093589183
    11   1       1.274856324656378      12.202513861394639      1.9868944030488336
    12   1      31.926323764896217      14.868961450863027      2.3416827041208017
    13   1      31.853609121546263      16.883135801616309      51.825705546009516
    14   1      1.2682468404239231      19.299414525926505    0.034581956174396154
    15   1      1.6936114483568756      17.513418244709765      2.6371379505011068
    16   1      31.980987615170196      20.652366686835656      2.4077540980220333
    17   1      0.3266531736199258      22.203009001870193      51.636278945845952
    18   1      3.3321905646563126      25.935990779801962      2.3064712401614411
    19   1      1.6464355458315392      23.213982738502011      2.5057594797717684
    20   1     0.10777821669227206      25.874116612013058      2.5748058049792943
    21   1     0.54736212649643379      27.732325257814065     0.30470587073552946
    22   1       1.836596867709414      30.634913475475493      52.107938628590063
    23   1       6.623339579449838      27.827867441899613      52.017916273292926
    24   1      31.761418790039077      31.345098100886997      2.2185142466141121
    25   1       32.04942780831994      33.000845151454484     0.11972156591861327
    26   1      1.9169905489447328      36.247291835140679      52.102537434297439
    27   1      1.6343112351327274      34.168677972981797      2.5881196735541505
    28   1      32.077153000951675      36.533423560462523        2.32487160662685
    29   1     0.38075071574534508      38.728702559392786     0.11639405778246713
    30   1      1.5984135228985268      41.446459663571687     0.10612596699924297
    31   1      1.5796748158579499       39.17675698539496      2.6755067184391059
    32   1     0.11999444129483251       42.19557470825881      2.3982595181420763
    33   1      31.942763640535581      44.589781669926538     0.16554618248975106
    34   1      1.5506351953222444      46.907162175711669    0.095212849334796013
    35   1      1.5921938957361035       45.14407002479124       2.626521455628767
    36   1     0.62853517504513989      48.219870682510788      2.9446099264615282
    37   1    0.075923301173890401      50.064796729034668      52.060207572833392
    38   1      1.5732377187067121      52.930891603337088      51.960040993336399
    39   1      2.3181293696808694       51.02875813931098      2.7074049731906045
    40   1     0.30309684228003902      53.735010517406543      2.3394723537253443
    41   1      3.4447629234178714      55.456390926964765     0.22281617499149062
    42   1      4.5947877309799114       2.551814337291225    0.051246351141308773
    43   1      5.1561613965026174     0.99518793610780432      2.7711474711979811
    44   1      3.2267591267935138      3.6619764107293218      2.9098667429417184
    45   1      3.2571261979461457      5.4274418686887866      51.939399086886574
    46   1      4.4016766703549965      8.0367992724198842      51.631538986701507
    47   1      4.4900844220918055      6.5419716811820221       2.278840789485006
    48   1      3.1781611160330274      8.9549783372624425      2.2132768159090785
    49   1      3.2694683723910472      11.171173756000963      52.002523068014327
    50   1      4.7043170934921674       13.91763167741242    0.050551766529886931
    51   1      4.7158663838493116      11.959633217754424      2.5595954401578176
    52   1      3.1704560293205897      14.805997092727356      2.4207041058831709
    53   1      3.2332365614817151      16.434490909031915      51.698285196687735
    54   1      4.5733306439517509      19.615367319993663      52.025035053637318
    55   1      5.0860376191546814      17.628532867618397      2.2781682397682936
    56   1        3.43003822052966      20.829879859813804      2.4587664547127477
    57   1      3.3344946974555052      22.586237358336799      52.055225815377476
    58   1      5.2305907368802664      23.496969001819405      2.5458590133293155
    59   1       1.619986138385811      25.092058551352466    0.050629249969934578
    60   1      5.1817125080349955      24.981064190181499      52.026331035632111
    61   1      5.0814486995940342      30.673713384923559       51.98477465044256
    62   1      5.5751998026742013      29.285992204094217      2.3428147761543108
    63   1      3.2545396062350487      28.064125912281483     0.23702005431001574
    64   1      3.2593862825226285      33.724885009114821      51.884949636859126
    65   1       5.218499372406681      36.107867078493776      51.775426900072326
    66   1       4.956420782201068      34.101368105682681       2.931786454538996
    67   1      3.3036949094347339      36.666195545178589      2.1202665862957133
    68   1      3.3349212007803795      38.913981933671117      52.025594276864837
    69   1      4.9849326173521522      41.599097120709573      52.076672217145664
    70   1       4.782368849088618       39.63008678018214      2.6552776530251925
    71   1      3.0503431574704818       42.04988623820239       2.418279635547866
    72   1      2.9179934540940691      43.907130337045054      52.071610673886575
    73   1      5.0477299530724711      46.523738363324952    0.064047268713797512
    74   1      4.6848630321381624      44.661103370860317      2.6912070750650088
    75   1      3.6343576974397807        47.5305732318335       2.590682544619558
    76   1      3.2550993875000631      50.000865796172327     0.52203990724149474
    77   1      5.1491338195927812      52.337294985604608     0.27199575928622688
    78   1      5.5257890598789068      50.855160476422533      2.8115880729848777
    79   1      3.5692666115766087      53.679468491272623      2.5515237980088692
    80   1      6.4224780823025682      55.325339020019626     0.10838836037217237
    81   1      7.7687719073411774      2.7223572762712913     0.24392678812060697
    82   1      8.6690369425011546     0.66732385175784548      2.6170269014225891
    83   1      6.3981862836318548      3.5061200982023202      2.3514670820320127
    84   1      6.2528788789597964       5.288744586271938        51.8981466183386
    85   1      7.8244824304796783      7.9818641140780766      51.833276318257418
    86   1      7.8506037715085633      6.4565596821236992      2.3585624763075321
    87   1      6.0573726404357542      9.0925572183188628      2.6022606970883211
    88   1      6.4185937915500189      10.799296233201979      52.032593939681142
    89   1      7.9444925177388059       11.91987979205587      49.446411555832263
    90   1      8.0473021988839228      11.711945219145328      2.7767745149990462
    91   1      6.4719070061725965      14.701469338364648       2.434293244020167
    92   1       6.387019020841187       16.74548913555002      51.899186033279022
    93   1      7.8680669920640467      19.111010289709348      52.064403514362219
    94   1      8.4291639001015479      17.347488139639271      2.5244814415855701
    95   1      6.4293983227865983      20.351538037085465      2.2478646377226723
    96   1      6.6313212872786487      22.055715310879147     0.05066017456845319
    97   1      8.0460609976426394      24.996178971232169     0.10743782314636748
    98   1      8.0895717401894487      23.176964750243489      2.7397905924400847
    99   1      9.2963337651425793      26.355566896582864       2.689376194592572
   100   1      6.3706820562299527      26.530649789379162      2.5718047341335057
   101   1      7.6670374808267656      30.749898686318428      51.718340069649201
   102   1       3.279544391588197      31.679468823424884      2.6080913188593189
   103   1      1.7804903247273411      28.816847800909922      2.7678351932866621
   104   1      6.1990102967864784      33.283413298684771      52.122468424140493
   105   1      7.9730789103874651      35.830678586821932       51.87550314150478
   106   1      8.0273467647502894      34.255368847154053      2.7404730242420081
   107   1      6.5104386154233831      36.919723439104537      2.3417792131895152
   108   1      6.5794018604146878      38.776301171185928      51.829804154600531
   109   1      8.2549311148668139      41.193306695758643     0.20221020588208144
   110   1      8.3167580850604512      39.733547600621961      2.4038594237104896
   111   1       6.663008459517803      42.008580244268224      3.1348057477295606
   112   1       6.893931497095994       43.96307753746661     0.25337411431959012
   113   1      8.2631792890939497      47.181377094439142    0.049236723699809484
   114   1      7.9809056311947275      45.421128244622068      2.6721700120101239
   115   1      6.5639324731080384      47.727186998514277      2.6380689978604899
   116   1      6.3200250899978547      49.522265232912339    0.006047024578622778
   117   1      8.2191572798317516      52.552251832734086      52.056224322562947
   118   1       8.287597943966297       51.00550102844354      2.2821199814478104
   119   1      6.3879655815245888       53.73475790194167      2.9238319006292217
   120   1      9.5525192923961484     0.17219072645669098      52.069360498642503
   121   1      13.234599906865808      3.8067925544610381      49.516914488516122
   122   1      11.540873335853602      1.1872116934494652      2.5098754866760737
   123   1      9.6387714250989713      3.5003929669434997      2.5103681029659124
   124   1      9.3325664685326775      5.3585679684500409      52.027012011250484
   125   1      11.229015278712421      8.4641484995939944      51.645109510165035
   126   1      10.965693967593294      6.1880827844646769      2.5508718221702176
   127   1      9.3103424293552379      8.9464774190749878      2.7872624055050066
   128   1       9.334837643684196      11.322656022782542      51.949145910018586
   129   1      11.255427489545198      13.971938937244071      52.082875222176114
   130   1      12.813893643008726      11.039853646007845      51.917938007987942
   131   1      7.7400697183603153      13.883042705809398      52.071623369152306
   132   1      9.7270837036687094      16.644634837562993     0.20159248878315045
   133   1      11.507509434540385      19.588474873582129      52.122397215564277
   134   1      11.631737730927485      17.356647138863242      2.4423362367220167
   135   1      9.7423618506314575      19.982671569618123      2.4964035981461001
   136   1      9.4707986204602435      22.157911969923521      51.957306910248988
   137   1      11.184485876042746      24.868806040090433      52.095987133263101
   138   1      11.255515475408105      22.766188575965771      2.6897076862024618
   139   1      8.2464539758558608       29.29640623930754      2.3777783665768411
   140   1      9.7805592601712785       27.72240489273053     0.30399259190757633
   141   1      11.240668839134779      30.679554936456142      52.046729357614936
   142   1      11.341299903003279      28.880425634944235       2.663563280830441
   143   1      10.254591283206301      31.641067628103844      2.5600699810923224
   144   1      9.4218771943105875      33.378239955215903     0.18178365271775043
   145   1      11.024247857163205      36.073701239714261     0.20761782537117604
   146   1      11.817941415032816      36.363552073397024      5.7143628972409992
   147   1      9.6468549405665964      37.174992076799739      2.6041021339203159
   148   1      10.072174172034787       38.61131568492776      52.060203397200503
   149   1      11.344614044643487      41.650446216325015     0.18556321626326916
   150   1      11.455811290200568      39.901765927698726      2.8095630918864951
   151   1       9.386645851902772      42.666669780992478      2.6893988032000884
   152   1      10.186963275561451      44.513605324292335      51.852394907245518
   153   1      11.703399025106844      47.047875706740889      52.088441465276979
   154   1      11.255932529028636      45.600689515668549      2.4444041890663026
   155   1      10.072586799186615      48.349371933348614      2.7602184150812041
   156   1      10.246407167278505       50.18909981716147      51.978525227722976
   157   1      11.435716208665168       53.00874659152592      51.774748030681181
   158   1      11.657606846198767      50.832382630506224       2.744152293964965
   159   1      9.7301978544428493      53.383944875225311      2.4748873418857977
   160   1      13.196791871799027    0.022204690892456407      51.987065523105684
   161   1      14.388713373015461      2.6038702290149449     0.16405899535436497
   162   1      14.559681172758642      0.5619354568843552      2.7199992449847512
   163   1      13.105567824614576      3.9363190275403759      2.4783242586797987
   164   1      12.923525954985877      5.8211569252368838     0.17335612389656341
   165   1      14.435208370837787      8.4473859720953808     0.16987215908439454
   166   1      14.777800484262913      6.4875852609626952      2.6452241179010656
   167   1      12.262448087935965      8.9499621260338422      2.3476415556356391
   168   1      13.219926676206585      9.5830052009275999      49.535583174599466
   169   1      14.554326280905778      14.048820020833933      52.001086006902128
   170   1      14.163606802680022      10.940522601096744      2.6268370179428393
   171   1      11.159386570819649      11.679360446152053      2.7840613891606729
   172   1      14.637015855268373      20.163904843015477      51.995800264842032
   173   1      14.705589492830544      17.773417992183663       2.485507402081824
   174   1      12.963009567075156       16.67619353830797      4.7948236430131104
   175   1      14.336945669160135      19.162942380023992       5.208047456929366
   176   1      12.830175325888231      22.330548679405201      51.916496491308656
   177   1      14.559410774918316      25.507363027505956      51.713437387798407
   178   1      12.856133164146826      20.186177525780451      2.6720143500416706
   179   1      12.752564245978062      25.792515848691419      2.5722351899347782
   180   1       12.86521352872229      27.885906814891644     0.22944315361344031
   181   1       14.15012708267311      30.460455012961294     0.36627833273124882
   182   1      14.349793203490256      28.579572889253079      3.1504774082546385
   183   1      12.932576679805527      31.062119515550378      2.9135680799597883
   184   1      12.513123533349351      33.485988591535026    0.069741761581322961
   185   1      14.250921548885518      36.034902719672353     0.40266114924666413
   186   1      14.599392426812669      33.827728868026682      2.8405751621043125
   187   1      13.330783635444712       36.83079592841181      2.6413288226836684
   188   1      13.270277413717245       39.21674759415869      51.936172740505938
   189   1      14.692059028332913        41.3910032101561     0.44586436508170896
   190   1      15.145455259294781      39.518938413964122      2.9267006607925543
   191   1      12.895937394637635      42.228783066094586      2.7090707297773879
   192   1      13.393639073575997      44.084528443056342      0.1856593528844836
   193   1      14.470604077623209      47.534226032349409      52.102256072891905
   194   1      14.401924865562112      45.512913002892176      2.6197639580419581
   195   1      13.551189328749023      48.445651888052986      2.8324041152620181
   196   1      13.283743244245571       50.01726955992185    0.047329322678255702
   197   1      14.372253155557377      52.721079762434798      52.121085465309612
   198   1       14.40873900384797      51.235262578882967      2.5184581857584436
   199   1      12.761501050580513       53.75924463535106      2.2363151612578354
   200   1      16.312627003552496     0.14609194948258375      51.750652703071559
   201   1      17.599592299156502      2.8838219166810792      51.995521472467281
   202   1      17.799341706374697      0.9642538604600791      2.5295375950799759
   203   1      16.088578952549643      3.4501596984254013      2.3549932937305464
   204   1      15.603677170990531      4.9561319832247896       51.79923947294678
   205   1        17.6628592267482      6.4650296969291698       49.40475380425859
   206   1      17.834908187799051      5.9505875291332071      2.3692957145477433
   207   1      16.512538658851529      8.7186516439617936       2.627520019522346
   208   1      17.309357251696067      8.0771546991427847      52.025020276078671
   209   1      19.191496481063272      14.817352270699811      2.6118295251277388
   210   1      17.455189399704146      11.757110126047714      2.8868571855670173
   211   1      13.103642872270457      14.218937514777398      2.4556940781162324
   212   1      16.017026444119782      14.614465797524138      2.6425414978347148
   213   1      19.385729573443371      16.885534182856169   0.0065924833658568124
   214   1      17.861463970330242      17.639959075317027      2.5496520862931189
   215   1      16.061230325894666      20.444435053287197      2.8040010973238387
   216   1      14.205330691377378      22.659670542414165      2.8969064457057416
   217   1      15.995735118906541      22.916699438261546     0.65786071816064406
   218   1      17.491724162144262       24.98658598620667     0.16638693162280968
   219   1      15.711755964342302      25.698071941064782      2.6702742312806409
   220   1      16.062597935869171      28.190033614224813     0.65929643968804241
   221   1      17.525836819117188      31.081532058535824     0.03341363219897809
   222   1      17.906424070195065      28.582642464402849      2.9318889526019163
   223   1      16.187992950172983      31.015506269116155      2.8425309834937154
   224   1      16.275639582202402      33.594372258122107    0.041371146913474488
   225   1      17.578828336485287      36.143561444780588     0.11736309900063849
   226   1      18.021996293367181       33.97326439385251      2.3516499353289921
   227   1      16.508703388200008      36.733900220701749      2.9300917633970376
   228   1      16.261604773305265      39.121079745478227     0.31491328473955599
   229   1      17.863429522676078      41.624307366032397     0.67165028274678318
   230   1      18.049855168726527      39.781867561907013      2.7829769835975968
   231   1      15.921316989517816      42.751105114748746        3.05416468854169
   232   1      16.215867587399853      44.737507048323437     0.16734088669034666
   233   1      17.905868055370519      47.341947123470376    0.013830413686114663
   234   1      18.269179621933766      45.457331888443839      2.5618636703136195
   235   1      16.475004373941214      47.907906028952802      2.6410439633214389
   236   1      16.077783477975341      49.892228128392958     0.10715644797348677
   237   1       17.44011690184044      52.613401157083445     0.23861122281468841
   238   1      17.619414422483963      51.081866646172458      2.8553192371459355
   239   1      16.245255065172575      54.021152186957039      2.6347307922538645
   240   1      19.599565050224069    0.096552610756943061     0.43142021685471732
   241   1      20.849825915924576      2.7551122081232386      52.065633721950093
   242   1      21.177682297096993     0.82055159570020264      3.0997376279461202
   243   1      19.333436195398392      3.6620749269916999      2.4877141877225424
   244   1       19.34616554860979      5.4585898705289715      51.907957280198353
   245   1      20.898879753845396      8.1872514530457057     0.13620517599260351
   246   1      20.910228087642508      6.2608892351867897      2.4755839682911081
   247   1      19.242482946559196      9.0799848702685502      2.6612656841043107
   248   1      19.028155121087071      10.844216370470621     0.15142473891134106
   249   1      20.617617085640543      13.847034161816001    0.066639127305800586
   250   1      20.536284938689857         12.089818432229      2.6506881796977808
   251   1      17.685674870581003      13.940296408311566    0.017047606338543839
   252   1      17.814311410181006      17.994322115057457      49.734711593745061
   253   1      17.354927787900341      19.826593378700199       51.89715667482907
   254   1      20.924913275775602      17.771326820078183      2.6310997156277813
   255   1      19.177496908853207      20.451152661883945      2.4612309858529731
   256   1        19.0626257493103       22.13705782874375    0.055955699527176959
   257   1       20.29830981681901      24.876269709676578      51.943689588689509
   258   1      20.924384288025852      23.195298403958212      2.4932203417288425
   259   1      19.198837764481272      25.866531848246495      2.5555919962531921
   260   1      18.786313423527712      27.795201851139801    0.076241412644817763
   261   1      21.164679873547787      28.542917938046433      2.0245239369347887
   262   1      20.945190079747913      30.800740550434458      5.3251544041008936
   263   1      19.592237951093573      31.399900807419627      2.5267753246052296
   264   1      19.430160679099092      33.599703989196122      51.636112427910611
   265   1      21.204982857831201      36.248793757769931      52.030578204545741
   266   1      20.863406556118324      34.099021581851943      2.7157053703254928
   267   1      19.796501678593483      37.197697057021621      2.5676932345231318
   268   1      19.441735728609089      38.844282361353009      52.102770691296755
   269   1      20.816402552424336      41.258671200903002     0.17715053743786441
   270   1      21.140412561017101      39.969228308601188      2.8591838998069439
   271   1      20.160854103366276      43.067782135618053      2.7236635593261878
   272   1       19.27227254145054      44.211358162235065      52.040961907566214
   273   1      20.827225579462706      47.036472609359613      52.094331559610481
   274   1      22.101950314823249      45.642520756159151      3.0682022415387933
   275   1      19.393344044959953      48.443125523305056      2.4863032548745934
   276   1       18.80350837442921       50.28646266788877     0.23351859867125488
   277   1      20.931907360955766      52.855698100863542     0.50976544842430116
   278   1      20.840602366817294      50.992194752563663      2.6893562397949875
   279   1      19.456324631668263      53.569493117600373      2.7657238489595204
   280   1      22.516012256751264      55.501851764481366     0.25080084523993057
   281   1      24.218451960405904      2.7063328591311175     0.13108776382163884
   282   1       24.34055502440491     0.83923682683835266       2.591657280555506
   283   1      22.477525923068104      3.6216224381950273      2.4005176661445216
   284   1      22.463110177467399      5.6438574297951014      51.636852073664578
   285   1      23.996797682511435      8.4078028288155267      51.825474028437917
   286   1      24.094580488797416      6.6643671803450006      2.2736399996866492
   287   1      22.522679245700875      9.4750750145698799      2.4327271087417763
   288   1      22.417615589917574      11.531281911755023      51.983195342219283
   289   1      24.334375245102706      14.120445551349288    0.097274920423452593
   290   1      23.933789966177955      12.478148662544122      2.4735085201415927
   291   1      22.469495829489691      15.277412288639894      2.5080581818450858
   292   1      21.307003325573788      19.599188560266427    0.089226502655486858
   293   1       24.08115039362854      19.526320739715814      52.051418297982899
   294   1      24.307000602198404      17.844855725854067      2.5917394540047236
   295   1       22.77361487519368      20.639464351020607      2.2115234291533059
   296   1       22.91968895674475      22.942681767743476      51.735827659659726
   297   1       22.60932424509064      26.058403806816646      2.3912831278717448
   298   1      24.106644888227798      23.346608808505493      2.5449992287591616
   299   1      22.265939221342581      27.716216670774539      51.771240753950082
   300   1      20.844392141064592      30.366635296334582       51.95840580137601
   301   1       23.94103615630403      30.641379554201595     0.25047312591444437
   302   1      24.245324924802826       28.52480620391567      2.6956871388989296
   303   1      22.706505495187876      31.209808333753863      2.5940519944726539
   304   1      22.541706715886566      33.305946624603138    0.022390817325280737
   305   1      24.554879213528519      35.906876871790843     0.12657245636367576
   306   1      24.304359926011596      34.420195235822732      2.7654894295285746
   307   1      22.622952310708129      36.941471981816711      2.6241353201001925
   308   1      22.829060921955939      39.062317026792314      51.968049591773358
   309   1      24.297859544598598      41.523073588464229     0.24440020378289712
   310   1      24.111093082183338      39.819915684309258      2.9322211122336523
   311   1      23.248299340827622      42.679420950108948      3.0276063150628474
   312   1       23.05481369065965      44.325279130809143      51.929875682919189
   313   1      23.810531125071783      47.228146648974601     0.20364626157745622
   314   1      25.049047541843489      45.549458191265103      2.3511639935799855
   315   1      23.360774813153871      48.499361105555096      3.0996897735925066
   316   1      21.857356382589845       49.91423388570022      52.000833650183488
   317   1      23.943470173376468      52.598034217957576     0.30505831228024283
   318   1      23.939100485180443      51.454806124436999      2.7616962609044822
   319   1      22.586437346850357      53.942581614458824      2.6006017835991058
   320   1      25.851049870932002      55.383465494624815     0.14149192427849419
   321   1        27.1576235432236      2.5911219058193309     0.44630160842515793
   322   1      27.641506489239379     0.77642009875001483      2.8965816980542503
   323   1      25.498386382961986      3.6929552991423753      2.6668894603132931
   324   1      25.618195784792995      5.3903888973976324      51.757205311731795
   325   1      26.930049101556278      8.4692233345303194      51.997221092425391
   326   1      27.262287604755247      6.5002761718614899      2.6955642727807616
   327   1      25.642553602765425      9.6338867886418385      2.5902781982094707
   328   1      25.531652173498443      11.532952723237683     0.24688674785407305
   329   1      27.400794700785333      14.086032275964911     0.33993877484942414
   330   1      27.059886705246278      12.232389656907664      3.2658578718446067
   331   1      25.265301241838902      15.223001591304913      2.7501541905289137
   332   1      25.526203678393188      16.660956767228377      52.001349287988837
   333   1      27.044628484319265      19.402683507700978     0.20111618393245179
   334   1      27.167687290635854      17.905069868636584      2.7961732985635508
   335   1      25.844789936693694       20.79607339081436      2.3822599873662407
   336   1      26.073336271077633      22.084130625262151      51.761027023946092
   337   1      26.970862445177662      25.061119785718613      52.019269860104025
   338   1      27.083825618572476      23.264913328830012      2.1990756211592326
   339   1       25.90933718048846      25.701733635529749      2.9000510301198257
   340   1      25.308626572903709      27.920922094353351      52.029778906954363
   341   1      27.199929369290579      30.292436554728731      52.013959173709836
   342   1        27.5243977798152       28.68794231383443      2.5072249868818268
   343   1      25.740200966544638       31.36445923510497      2.7044825335720022
   344   1      25.772354853177482      33.320874057943556   0.0090603557057953588
   345   1      27.910465055612551      36.134679001045939      51.959543774925002
   346   1       27.60347286028739      34.342012535067255      2.7945521456941269
   347   1      26.081516868490699      37.037802414580526       2.854780368090744
   348   1      26.200431143129453      38.600060133336861     0.21617325548140773
   349   1      27.569158119810364      41.395382560363238      52.104584117974589
   350   1      27.337966984677781      39.652172940317058      2.4637427236352201
   351   1      26.185705922490065      42.378036130711891       2.780956013540218
   352   1       26.29825164017192       44.43416609485228      51.998932028063244
   353   1      27.169952114057939      47.035069196690898    0.078518464242537347
   354   1      27.846798722736008      45.547646733666994      2.8516769689418524
   355   1      26.590789575650035      48.311427444263465      2.5147583148894097
   356   1      25.122577764186403      49.758905601222025     0.43638751554947541
   357   1      27.495585428014486      52.745613670169497     0.15142790222594571
   358   1      27.377786698382923      51.055640030595811      2.8698003482626158
   359   1       26.19814413475833      53.593400794778553      2.7700149879396183