dump/Mg_900_5/steps_1 (written by ASE) 

3995 	 atoms 
1  atom types
0.0      32.100000000000001  xlo xhi
0.0      55.598830921999998  ylo yhi
0.0      52.130399999999995  zlo zhi


Atoms 

     1   1      31.709958280778043     0.35247548707872184     0.06472893123300491
     2   1      1.3272772875572301      3.1584021941295086     0.33779021952983784
     3   1     0.84677682681485655       1.021188690617389      2.6500664382053483
     4   1      31.529988257765815      3.9326305415488232      3.0805380288234829
     5   1      31.952783072879363      5.9250874579572317    0.049229898672264898
     6   1      1.7060830653981651       8.667130290540225      51.708021830176733
     7   1       1.355811486665141      6.5052571771904573      2.9363205787565643
     8   1      31.913179927664721      9.3623057286882378      2.6974533140026753
     9   1      31.887729034084355      11.215541654802855      51.974767126758039
    10   1      1.0578681690898424      13.868211440167016   0.0020055007855443356
    11   1       1.021132790212518      12.304715471444853      2.7096274388272228
    12   1      31.445560700635497      15.073832710827858      2.2795585994315832
    13   1     0.21900276126258816      16.878298116484832      52.030320792102962
    14   1      1.3938406552788067      19.756200733539632      51.885715683098155
    15   1       1.578308503087797      17.646713596362193       2.452802981017995
    16   1     0.11803552265624959      20.474005452468177      2.2970042936054691
    17   1      32.027806568381109      22.205988281358536      51.777813977636342
    18   1      1.1792913187968352       25.03361700412767     0.53166860447416309
    19   1      1.7003118883350021      23.197495078343927       2.567993577653517
    20   1    0.097187930600070499      25.800468071112419       3.049532779804661
    21   1     0.30189949152885615      28.302155867653163     0.36266705131287169
    22   1      2.0195783027004337      30.882482167587451      51.759528056561301
    23   1       1.936811757796808      28.441180253565381      3.0264837240122255
    24   1     0.23453047533111185      31.455746968476667      2.3295440456811742
    25   1     0.21821556100069509      33.751165280434421     0.49598894462920001
    26   1      1.9558766599016872      35.897469561105076     0.12731165709078146
    27   1      1.6027276638399612      34.131690828259408       2.912660298579778
    28   1   0.0081488579613871164      36.877272699357398      2.7461269126097299
    29   1     0.13879876086263282      38.849651254467098     0.35504118068036694
    30   1      1.6673513339996942      41.666490908948482     0.19382250304443369
    31   1      1.6940687659216702      39.864651456704451      2.4496392873280501
    32   1     0.40090650806281786      42.677106097903277      2.8393613716139439
    33   1     0.12855772700702611      44.143128607858564     0.29452868476003069
    34   1      1.4966674848537695      47.081331822470588      52.126945792693498
    35   1      1.5977820478263232      45.851393609271469      3.0248691621194168
    36   1      31.681059021033157      48.169167227723861      2.5621501030182166
    37   1      31.854487538381814      50.078410670699078      52.092778300733649
    38   1      1.6684294286110188      53.123578180814441      52.072260639614619
    39   1      1.2312020095353136      50.955249817545663      2.5826824587954551
    40   1      31.722944950015656      53.832232138028289      2.5921166681975949
    41   1      3.3434189366356026      55.511157048816891    0.020096138430525122
    42   1        4.65101230534066      2.7757843249853633    0.052803201522325656
    43   1      4.8428054501886022     0.76014533610311996      2.4697813421749855
    44   1      2.9745657838458675      3.7572857323071012      2.9985538104862957
    45   1      2.9565311045951042      5.9752061729705632     0.10832393914553196
    46   1       4.644346945660482      8.4111729002375011      52.088621522088502
    47   1      4.5855581045193272      6.7880504376990602      2.6216736055304719
    48   1      3.2570009559312068      9.1402949118473114      2.4697970390437503
    49   1      2.8128375172023494      11.464142583962772      51.834144912383813
    50   1       4.503737324358168      13.959286851535099       51.94768147750289
    51   1      4.4597085824074867      12.042420350466861      2.3605676882157263
    52   1      2.9320134453266289      14.956768106521409      2.3426958301877323
    53   1      3.2531675213430638      16.623458933334305      51.880073162794879
    54   1       4.851212609074854      19.328401954446484    0.040107401525802361
    55   1      4.9313957301126976      17.140135946958672      2.5231710952186699
    56   1      3.1522074260826249      20.586553880144994      2.1057425634000397
    57   1      3.4477716063817727      22.259213381881946      51.706094632323598
    58   1      4.7550439910170343      23.377947778976893      1.9158945292682716
    59   1      3.3364793129999799      25.739443576493091      2.8353202304738638
    60   1      4.2479917649926318      25.333217192287417       51.94975584281719
    61   1      5.0398918610443912      30.653376593396604     0.22914641883342854
    62   1      4.8533853526099184       28.96428062179492      2.7425925648855167
    63   1       3.404996441058552      31.585894973195074      2.5575166693290248
    64   1       3.234709806782492      33.444117864193835      52.034641415766394
    65   1      4.6448154056283384      36.500341843496699      51.890798293110116
    66   1      4.8374318762019266      33.858008017433612      2.8576305798126582
    67   1       3.006928149905892      36.812689844247075      2.2539262163197256
    68   1      3.1365435022173807      38.754947572507653      52.009127702414695
    69   1      4.5251600257197966        41.8552485174908       51.82642904341386
    70   1      4.4492038861114684      39.676553047945795      2.4207187437562219
    71   1      3.2559668384788574      43.127755342036835      2.6655233275823247
    72   1      3.1428866594639251      44.477865906431958    0.064178016265318966
    73   1      4.5936087451283933       47.40626023027324    0.067980870776503041
    74   1      4.7878432605240899      45.594927633030125      2.6743373503376695
    75   1      2.9508489300556024       48.55724794306731       2.999422041958796
    76   1      2.9396338664656638      50.060452290839095       0.469035608634574
    77   1      4.7293850929994949      52.844348399804694      51.970056389662268
    78   1      4.8490033304149147      51.229360392270728      2.7418191225582431
    79   1      2.7477789595060962      53.577838746570528      2.8610428674637491
    80   1      6.3340478112014447    0.046808124375386263      52.014447687672153
    81   1      7.8785593059415167      2.7735887694921648     0.17496420758889294
    82   1      7.8424966652683494     0.83796820547271655      2.9267478481199749
    83   1      6.0165900124051159       3.581665679475889      2.6132868222963119
    84   1      6.2841867676059966      5.4919172237999518      51.895555434492103
    85   1      7.7785262302180982      7.9911851324667076     0.13896283878375251
    86   1      7.4824903857838523      6.2603987559764853      2.6323097884468218
    87   1      6.3073950575627693      9.3120274447834657      2.5430292486930606
    88   1      6.4047954206982434       10.85320295424637      52.104576898876566
    89   1      7.8193006055851075      13.714975556568554      52.128275548853338
    90   1      7.8161645166490645      11.961728514748959      2.5421043102573524
    91   1      6.0902674105091936      14.610957059160325      2.5813580139358634
    92   1      6.5386750717032402      16.648291666720326      52.127389640786845
    93   1      8.2073160920326504      19.557293322582709    0.073141895379840602
    94   1      7.7602177227257592      17.645808227576918      2.5732692287534134
    95   1       6.587132043142411      20.290496946896248      2.5361083726578353
    96   1      6.5306321030188634      21.663951382976776      51.972237257893177
    97   1      7.6543611119697443      25.093886779190925      52.069459823188282
    98   1      7.8319600142383745      23.131884178796298      2.1930429765187731
    99   1      6.2251678245698887      26.034491479966771      2.4285018984097828
   100   1      6.6724932158356127      27.898638676709158      52.033653928262559
   101   1      7.9694379967211306      30.590251757929856      52.094192787366325
   102   1      8.2727655003994816      28.575252248337996      2.7298833473083763
   103   1      6.6300037805169172      31.485655292160168      2.6535739515032106
   104   1      6.4522516003292871      33.319276378737371      52.007336766818121
   105   1      7.7181234081244154      36.558677606158199      52.128507368551084
   106   1      8.2808483965071389      34.514557557262776      2.4717683289878685
   107   1      6.2673704619426323       37.07447690573148      2.7176877611182109
   108   1      6.5229021943571466      39.224499471534898      51.950904557734582
   109   1      8.1535916055200808      41.805198762344737      52.030030297232067
   110   1       7.599283575795269       40.00028533959253      2.5297455003014746
   111   1      6.2544382207686464      42.734967335793634      2.4954157536334196
   112   1      6.3159020957543941      44.389669036945364      51.801993501713795
   113   1      7.5886849336388416      47.277690858469164     0.10552905594466434
   114   1      7.9084869104549416      44.989144246801523      2.3120672723149638
   115   1       6.403891655026074      48.035592731414425      2.5698329393074117
   116   1      6.1287019354533969      50.282601206326412    0.080597551637481502
   117   1      7.7311568833728987      53.006141084177187    0.025170038576561912
   118   1       7.871002654321658        50.9116558602989      2.8523931708995129
   119   1      6.3600866187881682        53.7418661607648      2.5568898880548656
   120   1      9.4755550131645006     0.21162107486146053      51.963271170528991
   121   1      10.988846143876611      3.0286798540784883      52.041952835198522
   122   1      11.111429366487346      1.1826842542882481      2.4173970756981045
   123   1      9.4431549697301644      3.6768812831295108      2.5244717438809601
   124   1       9.349119374880873      5.9547240124483256     0.31451037004529897
   125   1      11.199237558239437      8.3375635968802992    0.080255289714006736
   126   1      11.191188728546098      6.5269669407982525       2.656330731749537
   127   1      9.3116003044944016      9.2756305206988134      2.3944223229982375
   128   1      9.5518444185829221      11.063311543931224      51.939952646196545
   129   1      11.179640922057425      13.941998996402402      51.998439383311208
   130   1      10.897354117471432      12.069497056869833      2.7497178730355185
   131   1      9.3297296867028674      15.046543802555389      2.4248973224095121
   132   1      9.5242636840414328      16.371880568700782       52.03577727640598
   133   1      11.222816256419188      19.324452914229695      52.109463650092152
   134   1      10.708444867693634       17.77313786435553      2.2641213526361197
   135   1      9.7234137941994554       20.54586719449539      2.5400740994908899
   136   1      9.7256443192546858      22.153170437054516      51.990786244488874
   137   1      11.348455758655911      25.016122253565637     0.01664560445595387
   138   1      11.375661167752437      23.025069369288765      2.7158281454179245
   139   1      9.8996727697320264       25.88940407414594      2.6761221816036342
   140   1      9.8342548680286335      27.814524409070689    0.090791929095946799
   141   1      11.153124248462944       30.52716700305691      51.767389711921858
   142   1      11.380967529491235      28.585488422370247      2.6042658397745209
   143   1      9.6009369876599866      31.349384871176753      2.5426089692593532
   144   1      9.4160381371616531      33.391502476441595    0.091562514599647954
   145   1      11.689146039754647      35.987866300757538    0.044965825176542872
   146   1      11.558088404571389      33.482855665290963      2.6146770439482556
   147   1      9.7598049079289844      37.284579777444243      2.5858192990644935
   148   1      9.6357413665310343      39.040106421633574      52.120214236637516
   149   1      11.101767747254899      41.973758437785889      51.801456676500116
   150   1      11.154776636060816      40.004189181560299      2.2719749691781015
   151   1      9.7892690367350923      42.748655929957039      2.5133761809677582
   152   1      9.6392625912302883       44.45157647540929      51.975544010775437
   153   1      11.089752194643562      47.115987083885258     0.23122809635762981
   154   1      11.378665429185176      45.314705681932118      2.5591967697554154
   155   1      9.5075977103467331       48.24246696716267      2.5393183626139391
   156   1      9.0814017147832136      50.050361737504865    0.061612810166726643
   157   1      11.574597241464991      52.506336826593241      52.033660406839374
   158   1      11.082324601380247      50.717417196304673      2.2580169117763109
   159   1      9.5759393567540325      53.697110061485112      2.5792692274080107
   160   1      12.593598709769212      55.517451879281779      51.878577628533399
   161   1      14.363490767237595       2.995336743016455      52.051549658777247
   162   1      14.611986449501138      1.2879737081821254       2.297383765816134
   163   1      12.850741499990649      3.7900526840238378       2.809260171771919
   164   1      12.665228209227521      5.5652693828310689     0.17241045895660487
   165   1      14.219066022948073      8.4268358592628303     0.10976074456603793
   166   1      14.580770088767183      6.6028820415589839      2.6702748164968666
   167   1      12.296455467685817      9.4359282171409475      2.7804312675550777
   168   1      12.701658854718108      11.296853450656135     0.36867638822148374
   169   1       14.22214898592782      14.027531881343675       51.95169364127743
   170   1      14.458622120846503      12.220651340741874      2.9428643517393249
   171   1      12.188132761698824       14.87529039017047      2.6655782138767825
   172   1      12.618150140778118      16.590003156705865     0.17544201207950222
   173   1      14.434009560030123      19.081707397239242      52.071138420839617
   174   1      14.654223757123837      17.505902950884543      2.4859617412538775
   175   1      13.002913233366108      19.830612036570397      2.5307722107692787
   176   1      12.831921336667587      21.811394534667649     0.36007792240237046
   177   1      14.466750917231668      24.491834378507413    0.050244650389203789
   178   1       14.69315454773551      22.498083077420301      2.6363899199578822
   179   1      13.058714386389076      25.844701538248881      2.5213986240666615
   180   1      12.849593190893536      27.882641830943701     0.11914880280743022
   181   1      14.287938132988851       30.48135749805218      51.830411041939719
   182   1      14.698760908533339      28.700033717792042      2.5032433885426482
   183   1      12.959360193644756      31.136906582706754      2.3104909863427818
   184   1      13.178053575740668      33.176624516569326      52.067350421744045
   185   1      14.746998446955896      36.352548712136588     0.28804840936445386
   186   1      14.474404814597946      34.368427517718516      2.2655664888817557
   187   1      12.928832621386764       37.05947487932702      2.5808737066200034
   188   1       13.12262325013385      39.261401511433931    0.058285557079243308
   189   1       14.47528791278542      42.102482112677976    0.044544441385388225
   190   1      14.807828337183944      39.589528470787002      2.4947438995858637
   191   1      12.832653945588572      42.331905356898496      2.3803171947882658
   192   1      12.571815093144718      44.584913739496294      52.043327431633585
   193   1      14.213273158798129       47.32791562148639      52.000071145167858
   194   1       14.49277601984717      45.339328158514867       2.552597263231847
   195   1      12.774842397326136      48.104725736025898      2.6044187781598809
   196   1      12.775109320870868      49.912847439344766       51.95973551266303
   197   1      14.455191450074169      53.031099676423281      52.117065151205693
   198   1      14.229854965697633      51.172154672082492      2.3170392274687512
   199   1      12.928463825642648      54.331407702020684       2.451957797060738
   200   1      16.148049739629251     0.11017571776891374      52.104456008012065
   201   1      17.553700925743151      3.1828595946492682      51.826739959726275
   202   1       17.39737365232363      1.3047204043149825      2.2222473893353727
   203   1      15.968690457257265      4.0039007878447341      2.5751540000689683
   204   1       15.82032896189625      6.1326491956748272     0.31982859199403685
   205   1      17.550664686096532      9.0339745350491185     0.11448478138427252
   206   1      17.646584460214243      6.5739558431450282      2.7103354798321786
   207   1      15.613106954004801      9.4481984072482579      2.8428572151271969
   208   1      15.727212635858903      11.292480756075687      52.089041623494865
   209   1       17.74595580634789      13.525346305516962    0.025100186298000437
   210   1      17.412604884223903      12.027934664957217      2.7632339808578212
   211   1      16.228080506740941      14.699200306184222      2.7675718230144102
   212   1      16.291488659033494      16.189545957363546     0.12292341032508822
   213   1      17.693621457903383      19.020759416794196      51.942597617171707
   214   1       17.73490536874996       17.33135157547035      2.3666676304936134
   215   1      16.220221969966129      19.956463501327164       2.686797344566934
   216   1      16.171012020951736      22.038882305414383      51.988056201248426
   217   1      17.554263754479731      25.156666602106096    0.050594620566601391
   218   1      18.203942099937308      23.548274358241549       2.969162164090462
   219   1      16.528768203226061      25.811208639142649      2.4887855392863969
   220   1      15.981153372126581       27.57479127125178      51.844723423822153
   221   1      17.767862192273384      30.524484418314117      52.098629305076969
   222   1      18.126330998072667       28.68238860420924      2.3195678412820007
   223   1      16.005412433986219      31.467276070546497      2.5636373161829669
   224   1      16.159040345324769      33.235648925976626      51.901408510970242
   225   1      17.919957243632531      36.338058372859358     0.14674505610754437
   226   1      17.749999043601999      34.399266641655338       2.522961468929859
   227   1      16.214217560991866      37.261522225616922      2.5508780535777014
   228   1      16.471286775620054      38.999665615787478    0.098656088597575256
   229   1      17.335742858497376       41.82595369668968     0.25887341150838755
   230   1      17.906801822904992      40.282681113484138      2.7350413561324065
   231   1      15.733793696699546      42.549060889248359      3.0673719006077027
   232   1      16.015485386709663      44.839059478807982    0.070514655881411814
   233   1      17.999302460367119      47.213907811181059     0.13001911273329586
   234   1      17.586720395556725      44.961979050959435      2.8898932865154574
   235   1      16.056725559958679      48.291188130501347      2.3909951546755948
   236   1      15.863341376478246      49.892705080713831      52.017712359711901
   237   1      17.739104388492152      52.957174506496507      51.866741105753697
   238   1        17.0422553112843      51.534045045935635      1.9827711525669263
   239   1        15.9025876076768      54.215694250689381       2.781576063443953
   240   1      19.058044514830229    0.063293172528515185      0.2228192217962392
   241   1       20.60677527134164      3.1346669000430873      51.929127318901394
   242   1      20.579282597273956      1.3218294252025131      2.3190373041661263
   243   1       18.92036408084682      4.0405260021453193       2.888210073914582
   244   1      19.541046161837901      5.8862598491181082     0.11351873043758129
   245   1      20.556457447303309      8.5359533308526334      52.042181759402006
   246   1      20.653113059686138      6.8844841862454027      2.5501163636628674
   247   1      19.187812225538288      9.4379559433709197      2.5764981616866494
   248   1      19.068346707921609      11.507182200856157     0.23376946696595852
   249   1       20.96474455814953      13.696305560461465     0.29367036908290139
   250   1      20.950949466670707      12.117899521459643      2.8200877923951881
   251   1      19.243279165077666      14.468290208278697      2.5858666096224656
   252   1       19.45396102463922      16.471603300907294   0.0049942275842299712
   253   1      20.879336632169384      19.354250064112815     0.51079642990080243
   254   1      20.836529777489073      17.412000183649198      2.7654469109281195
   255   1      18.963642717003324      20.343240854980554      2.7759148310674755
   256   1      19.030771208641948       22.20559470334992     0.21466684208025918
   257   1      20.518401444307692      24.632974796967179     0.08484793030902886
   258   1      21.198023446897064      22.967826053373997      2.4944348211024869
   259   1      19.690016896132711      25.849936969424228      3.0051530414909315
   260   1      19.674922662620325      27.591263791444504      52.061300150105836
   261   1      20.842468104608169      30.647873643172058   0.0081289081745579087
   262   1      21.044070870818874      28.514999695405709      2.6851584513754259
   263   1      19.457667319336437      31.546203402223103      2.5863176023083372
   264   1       19.23366962310314      33.911099661820785    0.017541226311693501
   265   1      21.172969819115004      36.121089527254284    0.062113594124041757
   266   1      20.605062985083865       34.25360958037124      2.6653188486241701
   267   1      19.464904277043985       37.04213109866383      2.6286113887643761
   268   1      19.292918155341038      38.932863966167687       52.10755539928472
   269   1      20.601627495110986      41.357444640903267     0.14860595245022112
   270   1      20.916981071918432      39.961636451286417      2.8777971816547314
   271   1      19.685143720119289      42.845938445508885      2.9175360821102019
   272   1      19.308007634428787      44.301641946465644     0.34122514297348649
   273   1      21.290023842183899      47.263447714700405     0.29175666865273781
   274   1      20.919846363417903      45.276822689389704      3.0806110369966184
   275   1      19.258260887936938       47.71345707805547      2.5530134360709305
   276   1      18.913494571533359       50.22241459016697      51.993100640485451
   277   1      20.863959035374751      53.288080203322615    0.089193892940051714
   278   1      20.494089120177637      51.417973394138173      2.7594847046892022
   279   1      18.768149296305122      53.770430152857955      2.4353903940629693
   280   1      22.069179694887278     0.09112147087785262    0.085706891783478026
   281   1      23.526250865302057      2.7452306244006839      52.070190652881642
   282   1      23.722033164497581      1.0199339754367467      2.6669409283867194
   283   1      21.851559161761248      4.0922074633238621      2.4561648054939056
   284   1      22.612613353451476      5.3875205666871837      51.460867946006651
   285   1      23.592401877219032       8.149103475333229      51.994174842587789
   286   1      23.732440567988817       6.598699273458756      2.3179329320827664
   287   1       22.34361442085747       9.365328899279012      2.7476792810327724
   288   1      22.228470535653972      11.050081501168759      52.013875096910688
   289   1      24.123824334719533      13.882231971219444      0.3146446657216877
   290   1      23.976353131650686      12.081556837639081      2.6647109458760201
   291   1      22.228528535952517      15.011172175371387      2.9759934533983077
   292   1      22.707908304585995      16.440937887492392     0.12676580703928181
   293   1      24.011414152500706      19.768849253925985      51.902672105823775
   294   1      23.923427985268273      17.711941344246778      2.7049229599239459
   295   1      22.578760670621957      20.640297970039494      2.4427633985225401
   296   1      22.483189903851382      22.325614147109036       52.11707076822357
   297   1       23.79179572043158      24.905057297631874     0.21721992649554014
   298   1      24.332519124506621      23.243614299125582      2.8218938340733501
   299   1      22.631648466381659      25.770822620093369      2.8109312752122682
   300   1      22.421333044728122      27.831101484995507     0.17294241261043977
   301   1      24.003275558361963      30.635918122154585      52.113323032635414
   302   1      24.367270655811794       28.51441578154035      2.6126126118740975
   303   1      22.442261511068846      31.755218697142652      2.4453406023212239
   304   1      22.471759830958295       33.53014108932453      51.831408571320111
   305   1      24.200348852452002      36.066587971398377     0.20160149793638102
   306   1      23.931667828965686      34.208761192388614      2.4778852445690727
   307   1      22.805376967274167       37.02645361785909      2.7989582225986287
   308   1      22.693526157326975       38.87778504360729     0.46575794612810273
   309   1      24.100875004537183      41.468263443138277      0.1148938485504255
   310   1      24.479394521827825      39.938309746677341      2.9099852704767715
   311   1      22.802613184619471      42.415727430082377      2.8883102671459695
   312   1       22.29481283675041      44.263655828120278     0.40073743518580396
   313   1      24.561602010551603      47.273395322885058     0.56206847517246561
   314   1       23.90006313628605      45.064999335940136      2.8760843620319254
   315   1       22.43328095771647      48.367625779337907      3.0514619834835131
   316   1      22.359811112762173      50.299530599511804     0.18845510590589501
   317   1      23.654264642614162      53.147092672780921     0.23992140665214925
   318   1      23.728091586351006      51.114427403594426      2.6370493040371321
   319   1      22.004611343120615       54.00610515078511      2.8189321879724685
   320   1      25.393037366221723      0.1687896242179395   0.0056460110355301581
   321   1      27.013055083433187      2.4501248425113782      52.091914416751855
   322   1      26.760119204058455      1.4791665748199287      2.7575385412669657
   323   1      25.072365056923939      3.7786119640650178      2.2341832163891313
   324   1       25.71115652726451      5.7749958802724244      52.073852324392064
   325   1      27.432605435511196      8.3866878132275815     0.33684775401489397
   326   1      26.784443131646505      6.5071353376807295      2.9001197504469682
   327   1      25.580163587020174       9.339701424400662      2.5399692591288479
   328   1      25.560358535497198      10.957047317951483      51.861671678329131
   329   1      26.942306462016113      13.480211089903026    0.031409175296467057
   330   1      27.381908389907856      11.731345116551863      2.4699976719202219
   331   1       25.41467541219583      14.892281884943493      2.9772582555888718
   332   1       25.90169474832101      16.742868708018364     0.21529730099790051
   333   1      27.132197286338901      19.642860714526687     0.15296504658183468
   334   1      27.062841290089548      17.435325568545856      2.5405287802035375
   335   1        25.7136119350493      20.530388739440223      2.8023613861097525
   336   1      25.610724272015808      22.398318305078941    0.055136828834088845
   337   1      27.052315926294263      25.005819682640244     0.03348173025123604
   338   1      27.237317842047609      23.166750651191538      2.4595573772225472
   339   1      25.569793494501479      25.944277079385198      2.5364329204782399
   340   1      25.987819488908254      27.634286520352685      52.078963985617222
   341   1      27.095563219759807      31.138523721310627      0.1105137112002428
   342   1      27.141212954085045      28.793734880356226      2.5811740995096146
   343   1      25.598241004290312      31.435433215487425      2.3483557156393857
   344   1      25.550386261439478      33.510231037813135      51.667470989767416
   345   1      27.606390577572096      36.274194742295833     0.14970108612399077
   346   1      27.036873542757732      33.898296412807476      2.1264332264451484
   347   1      25.798845917479614      36.793768335746471      2.7639021770802481
   348   1      25.872436794094458      38.867868262771061     0.24859592580749665
   349   1      27.279906470108937      41.582784478719319     0.15607384334510488
   350   1      27.606922073974548      39.751833834736843      2.6028043171367847
   351   1      25.854676417201222      42.552657752856263      2.6765319430521299
   352   1      25.571280245394995      44.278816594543457     0.23661183851508633
   353   1      27.553886412905872      46.791051631009069     0.36589240400531908
   354   1      27.087002915137546      45.377626655702002      2.5224501427952024
   355   1      25.707065987503977      48.025125047790361         2.9725655541673
   356   1      25.251989854239973      50.348157481434683     0.06233249121691118
   357   1      27.036036026515163      53.255625228712987      52.085810716294731
   358   1      26.875332881842994      51.132751296827735      2.4857570813762271
   359   1      25.668285752675448      53.907599090067301      2.5048178281841675