dump/Mg_1000_20/steps_21 (written by ASE) 

3980 	 atoms 
1  atom types
0.0      32.100000000000001  xlo xhi
0.0      55.598830921999998  ylo yhi
0.0      52.130399999999995  zlo zhi


Atoms 

     1   1      32.046946543618141      55.410596094909025       51.92583866016755
     2   1      1.8526390540144837      2.8766629237849033      52.061525624046446
     3   1      1.6980497735535196     0.90291543245415185      2.6703839021701294
     4   1     0.23593321705570869      4.0291821880213732      2.8241212368380921
     5   1       1.811564159271746      6.6861676389974232      2.6983553800938953
     6   1      1.8173124513753278      8.1125954995545726      51.923275407504057
     7   1     0.73679680628606459      9.5178417930287846      2.5338472427284806
     8   1       29.85583503025271      9.4252547112296945      2.6728014295219573
     9   1      32.048442448821383      11.013532493033445       51.99273745302672
    10   1      1.6994916204888477      13.914619883122223    0.023668083930981996
    11   1      1.7561295021522156       12.10049937838737      2.8418236798274243
    12   1    0.085947440889459437       15.15607529366074      2.6564229300069084
    13   1     0.30750851217914454      16.731881580831796      52.047058723614818
    14   1      1.5722238781639586      19.672904263850821     0.13914339279051713
    15   1      1.7160336486540479      17.731074211452665      2.6588922713821019
    16   1     0.22957271956232853      20.670367882342546      3.0010509847320845
    17   1       32.02250778199069      22.618730040292927     0.16316227285118903
    18   1      1.8059030914669751      25.088012019464951     0.11838727007629667
    19   1      2.2093328214310994       23.31709098041501      2.4914986072974057
    20   1      32.083961203657751      25.928530053041698       2.726702839881292
    21   1   0.0015656092128341567      27.845047887756376     0.18550533710743283
    22   1      1.9402131276880661       30.28559984606764       51.91542432143774
    23   1      1.7096294157016401      28.695554004627759       2.380170482209814
    24   1      31.701789208106526       30.84183064730815      3.2052603434408797
    25   1     0.40275344649554129      33.321648540816703      51.750939875337274
    26   1       1.822525042769044      36.169913296865872    0.038365071519238174
    27   1      1.4604798093208649      33.965955949984355       2.437452240660205
    28   1     0.59811795539499368       37.14626220640065      2.4143699063541173
    29   1       31.97697111524732      38.892700256983574      51.939441272702894
    30   1      1.3843697896949883      41.665063931979589      52.045865037552375
    31   1      2.0688173237781404      39.960617568486299      2.6005848124826869
    32   1     0.11403208529536904      42.658350402388862      2.6236722170329223
    33   1      32.063989166717349      44.468170334721862    0.074116112879818064
    34   1      1.2115658091385801      47.453181677881041      51.948471596264199
    35   1      1.3484763154845194      45.569785875248634       2.515647009259574
    36   1     0.19655218550414355      48.443120008232405      2.6611563371950777
    37   1      31.841443853711478      50.146286741680385    0.071820942206672789
    38   1       1.800729153812263      53.165329586039611      52.074150576055274
    39   1      1.4179706296747017      50.874252428959807       2.827904405486239
    40   1     0.42564862807220361      53.597153344781084      2.5429431138909466
    41   1      3.2285100980506152     0.11775380929121899     0.32968840422619627
    42   1      4.9366260381250511       2.719139336432788      51.646396842981694
    43   1      4.9060567609341694     0.83618770673474863      2.7202800277999279
    44   1      2.9952820465711381      3.5538969418630959      2.4169129538473975
    45   1      3.1958456362390883      5.5256692807154781      51.959392218386611
    46   1      5.1246664573575762      8.3998642227745588     0.25373992017717739
    47   1       4.736771471349674      6.4382007629707312      2.5917295714631727
    48   1       3.661810692363876      9.2919086603132524      2.6385845729334112
    49   1      3.3623472880217085      11.165223832804317     0.31365228253997152
    50   1      4.8232802969617667      14.035869381738172      0.3430428434543823
    51   1      5.2299304105850002      11.967075945664442      2.7116797836749771
    52   1      3.3444059208820298      14.991340778294735      2.6840404540217668
    53   1      3.1899849731210281      17.018116525897142      52.091295165141254
    54   1      4.9246813161553273      19.282587851525246      51.944204550332898
    55   1      4.9668630859788792      17.588668188147984      2.4597512125528413
    56   1       3.605148927929049      20.181180986576738      2.3150406970591528
    57   1      3.7140612523118555      21.991859861645132      51.997464272850507
    58   1      5.1210170762635219      24.557044763008921     0.10300674455070621
    59   1      5.2070597954376154      23.034012010516648      2.6970898978328246
    60   1      3.4259062774329134       25.91924297693161      2.5881861024615147
    61   1      3.5027883820736836      27.707250229383845     0.10592261986212764
    62   1      4.9351571473789901      30.411115050672656      51.970053417742314
    63   1      4.8791894290679174      28.461774686806514      2.4188995404706457
    64   1      3.1193485214715371      31.364392369362339      2.2718077765565003
    65   1      3.5862222068451279      33.104350941524267      52.071774439391419
    66   1      5.0268676540035777      35.568981014615822    0.047675057708451207
    67   1      4.8483743496315563      34.091026149899953      2.4887756386511151
    68   1      3.7820464146545656      36.813148995781695      2.3042623315687871
    69   1      3.0434857380839753      38.850838025162645     0.27347416544018482
    70   1      4.7550105424847038      41.966326174582726    0.025829205459962683
    71   1      5.2979021913580535      39.891726066764157      2.2907341612159771
    72   1      3.2176439052309638      43.040021045892502      2.5863340341688512
    73   1      2.8026495246126766      44.687009826641322    0.041049366455517398
    74   1      4.8109945609420821      47.535273096512057     0.18496737992158688
    75   1      4.8094241814737586      45.477460125064212       2.709997219609479
    76   1      3.2802463421365582      48.404088746954677      2.7087983054465061
    77   1      2.9834116352936633      50.428737000788189     0.11904628794276735
    78   1      4.7343667857070004      50.475498986169022       49.59046258472349
    79   1      4.5555973975266006       50.95415714709123      2.6900669502559365
    80   1      3.1110349032075564      53.709413514979552       2.581340435686875
    81   1       6.273565557019797      55.452803920108053    0.010812692195648807
    82   1      7.9430603624485814      2.6768016114161477       51.91948402164256
    83   1      7.8367504982528118      1.0535964706875307      2.2981012155772249
    84   1      5.9323654884175872      3.5951509769637098      2.6876161774427678
    85   1      6.3831497892707141      5.5387286037824097      52.065445195907984
    86   1      7.9791937493831808      8.4564655524086714    0.036283555078402689
    87   1      8.0448715195849889      6.1464657938955165      2.7630129294616181
    88   1      6.6576462101169263      9.0967869881660821      2.7737949967579656
    89   1      6.3482841737575857      11.233031755301241      51.998791327112464
    90   1      7.8592831973141752      14.060016513513643     0.33204598002956726
    91   1      7.8943098932227853      11.766956845032453      2.3528301261287083
    92   1      6.4438485194647459       14.85202334592722      2.6774413987212693
    93   1      6.5788692879400665       16.49716250693324       51.94399834194509
    94   1      8.6172128063186548      19.555281455113118      0.2570852182109199
    95   1      8.1951183797524649      17.310059451610016      2.7100369089744096
    96   1      6.2629742686379535      20.471329198763595      2.5124545772659128
    97   1      6.7896266814733712      21.852420872815106      51.866326795092846
    98   1      8.0097698786545717      24.848867989067429      51.877464125044149
    99   1       8.462203176942042      23.087264025203819      2.2353755377797486
   100   1      6.4754190267503837      25.452562167762881      2.3993163181885038
   101   1       6.432539469794917      27.584511126777642      51.987524996907823
   102   1      7.9543903521327124      30.079653743045448      52.065219138223902
   103   1      7.9509221878256024      28.928681727671911      2.5025719577448955
   104   1      6.1390740831130888      31.462958673311025        2.54006049714445
   105   1      6.9461651759288108      33.137125582548826      52.076967954888985
   106   1      7.8416814126146352      36.130381901751768      51.638395696303931
   107   1      7.9250013500019945      33.995586281542934       2.460761163766191
   108   1      6.5433931840186519      37.104976886568224      2.6489574780315293
   109   1      6.3090181175700151       38.93695051684999      52.007140795287107
   110   1      8.2545085041914597      41.485994265723377      51.992642043594977
   111   1      8.3460427957919059      39.896063278199584      2.6344512318113393
   112   1      6.8007763524202138      42.497678524519181       2.467790251084764
   113   1      6.6222335468427698      44.509666077103013        51.8850349904721
   114   1      6.3948642043433583      50.461213269493172     0.10815026662253541
   115   1      7.6133587018258968      45.635788887030216       2.874300506416732
   116   1      6.4312590020891864      48.238915245017225      2.6726308223952659
   117   1      4.4531089588360198      52.901680719442325     0.15722022664002591
   118   1      8.1466918985969645      52.995423521778342      0.2170012409505275
   119   1      8.4009074187499113      51.122651325861689      2.6121900939742604
   120   1      6.4865288553548055      53.875708101335164        2.67592243017558
   121   1      9.6756017342226759     0.24457259758735234      51.844238047236907
   122   1      11.727057322105917      3.0089133778489581      52.032438487740393
   123   1      11.659084324381322      1.4108990953624048       2.349666358333304
   124   1      9.9840630310181666      3.9673539235349655      2.4782878097515364
   125   1      9.6087635984832129      5.3851374576071009      52.054324162392788
   126   1      11.567859144140156      7.9969270939310508    0.016941691719949727
   127   1      11.428289180207706      6.3600367102742625      2.6660340470229786
   128   1      10.053060048162312      8.9789006223164574       2.837805374939204
   129   1      9.4070400306594966      10.719520809366035      52.065603123918763
   130   1      11.350431081137017      13.225547361407015     0.46230585261407797
   131   1      10.803329157579828      11.687714851244161      2.9234188089510336
   132   1      9.8107779921580818      14.316864098857611      3.2047743281257306
   133   1      9.9779995608763699      16.440941722216259      0.2580166827157685
   134   1      11.543321861629551      19.165761451146334     0.10091668618137356
   135   1      10.982151076296324      17.576466051674299      2.6574260745531322
   136   1      9.5716486458825205      19.943825298422261      2.6795906582027458
   137   1      9.8884682833816502      22.351036726855973      51.872966510813008
   138   1      11.079394676196131      24.937552897718287     0.29359751351225016
   139   1      10.953730117419084      23.482053176875112      3.3454276409801853
   140   1      9.5931829350283646      26.413366571112746       2.497398564309663
   141   1      9.7643131328734416      27.529790000907123      51.817444874243293
   142   1      11.281001686864398      30.401296742168839      52.065134947036626
   143   1      11.077437736397988      28.682935701791639      2.3878593714998484
   144   1      9.3547913628471111      31.515465149541289       2.372972978338304
   145   1      9.5547155033558546      33.218170806905938     0.29485089829399586
   146   1      11.323059736885213      35.642247794447897    0.025965166085251797
   147   1      11.155437207205379      34.435854353582087      2.6962255740306178
   148   1      9.4637045295540734      36.921236146199995      2.5985351047260972
   149   1      9.8611398803631332      38.732923095443887      52.077137697449011
   150   1      11.337974014686472      42.090627745881243      51.704361431613101
   151   1      11.400123369346849      40.247915067020678      2.2355370696070884
   152   1      9.6984908387380422      42.798461494838946      2.2529583251229957
   153   1      9.7223624462361293      44.617025771147688       52.05125817490309
   154   1      7.8474622278526516      47.783839812203524    0.049603356505347876
   155   1      11.239405220017538      45.624093041474758      2.5200688344752069
   156   1      9.8243688780700875      48.082013495113493      2.6417325326366679
   157   1      9.7683423812699299      50.299368386575047    0.061601405748885105
   158   1      11.423985554587366      53.363652533248391    0.060147133682071766
   159   1      11.510137008420122      51.328301866696528      2.2052976009123397
   160   1      9.7134611115250351      54.230930120889113      2.6910050256505751
   161   1      13.089288954203248     0.16919589562275281    0.077607394900925983
   162   1      14.991604583592622      2.5054701333461287     0.37140559128594169
   163   1       14.46678827090885      1.2278694839223423      2.9293964504730745
   164   1      13.234578013448544      3.7267967140394012      2.7235654159902758
   165   1      13.479203583970076      5.3112827252371497     0.19168567673337578
   166   1      14.855183122326155      8.6593234043597835     0.49291701006962407
   167   1      14.524561360592136       6.818859415896938      2.8455741438702971
   168   1      13.251054029610692      9.3074157920647682      2.9256373993948066
   169   1      12.988522501622937      11.004943857543646      52.089317099182075
   170   1       14.75240633521325      13.049446343478889      52.051912751497269
   171   1      15.027403138504754      11.689352309836481      2.6245401857463335
   172   1      12.785254534272875      13.738818570101612         2.8615692117894
   173   1      13.318450997606016      16.174445238515528     0.48705646459794172
   174   1      14.532931910085642      19.703191964072886    0.072218559320623751
   175   1      14.536016933749691      17.543972697027456      2.4379875358634231
   176   1       12.67686249596777      20.418301446586497      2.5020364789670961
   177   1      12.561786585787873      22.273501436667381   0.0031743893587529775
   178   1       14.17257309150672      24.935073284588505     0.39168124349094713
   179   1      14.322081743968049      23.106859303843279      2.6619334221518289
   180   1      12.973252389165795      26.113550489900017      2.6481115184738693
   181   1      13.341232859348805      27.878065316934006    0.025252338984128531
   182   1      14.482843688251707      30.785641169837849    0.094327887410829037
   183   1      14.154354845705269      28.711488772496143      2.5897634244699925
   184   1      12.589859381941208      31.224326769093672      2.5459065177325702
   185   1      12.555132139240509      32.984015825561876     0.12383958761549567
   186   1      14.834596688969674      35.790123500380332      51.952622897117763
   187   1      14.200774019939962      34.572122816086413      2.2994366402891613
   188   1      12.633834875029212      37.521071180482764      2.2584285575979415
   189   1      13.021006599708038      38.491079354439307      51.414678370622781
   190   1      13.938548588147638      41.428192575055576       51.54764431724287
   191   1      14.615156608055626      39.800333750607102      1.8380696968687564
   192   1      13.134378043156355      42.609957368382403      1.9537229289023206
   193   1      12.727689148136269      44.537488757096924     0.13770519440782647
   194   1      10.792724879725146      47.257794652418262      51.801853092736962
   195   1      14.545624229028968      45.494250533046376      2.4914520744022712
   196   1      12.637593072027352      48.074845066634175      2.5123858914312365
   197   1      14.063584588283268      47.188785315106216      51.962698005367237
   198   1      14.432606093413742      52.677533863143623    0.021136977320046494
   199   1      12.724224135230495      49.858505622695716      52.038533935549367
   200   1      13.134424953394422      53.872734291510412      3.1987039851889723
   201   1      16.249684787736847      55.494940134706951     0.65947675936532502
   202   1       18.33946412762824      2.6969208960177355     0.50065495665872251
   203   1      17.697557203685541     0.73042734234108386      3.0371409937724048
   204   1      16.678072548829295      3.4406624169828004       2.917380860791873
   205   1      16.596831430625805      5.6828959788230247     0.30402831990776286
   206   1      18.753473986415546      8.0377206329815909     0.16072313229577539
   207   1      18.234387995309728      6.1063315152392779       2.618687936962905
   208   1       17.03505585524228      8.9424898371397976      2.4401990789573391
   209   1      16.732479262805583      11.151301882303651     0.24015586097263769
   210   1      17.798632503773668      14.428877434582171      51.470771541666686
   211   1      18.470612180468187      11.997016701403444      2.2106552963991906
   212   1      15.918708420104133      14.833626723801743      2.3367872058887968
   213   1      16.617150774702417      17.098381159532344    0.030225008060814369
   214   1      17.419123944953423       19.98796996223863     0.37175869315392518
   215   1      17.686314459090557      17.613188579593398      2.6687173299491556
   216   1      15.708651645523389      20.771967163088508      2.6812638654285963
   217   1      15.867679630720424      22.590740793253691      51.955130766584908
   218   1      17.730188926270131      25.063360901209681      52.091672324801074
   219   1       17.16617931020652      23.441220504505697      2.3082490257132813
   220   1      15.841600086303368      25.925753474836018      2.5996455390675552
   221   1      16.148967497436129      27.683284108092437     0.27834961361732474
   222   1      17.548068126024901        30.3580847686301      0.3871444231716526
   223   1       17.39242592389617      28.613873928187619      3.0025202111077149
   224   1      16.143012106917059      31.258117913160508      2.6868596078809737
   225   1      16.169885022741145       33.11690357769033     0.27277756867349828
   226   1      17.912517935617092      35.912843014194657     0.30418370704475911
   227   1      17.818333333337144      33.992559790347677      2.7152374288129266
   228   1      16.205148685730048       37.15509443874646      2.3355061689129641
   229   1      16.262986892319017      38.950029197005271       51.90359231957413
   230   1      17.127372097569349      41.616458729439856      51.927252200112434
   231   1      17.745516008077868      40.300130655740602      2.2300717912753676
   232   1      15.985006109741212      42.739747238510645      2.2046565782803103
   233   1      15.820672867382603      44.218478656622196      52.018959036645661
   234   1      17.879133369866413      46.957656763967442      52.050781094890532
   235   1      17.373869713107428      45.134719661901563      2.4707088037463363
   236   1      15.705743014894963      48.332960485449142      2.5499193869995072
   237   1      14.694643823561476      51.219858777300303      2.7022214548005379
   238   1      17.725558829202146      52.550218292360171    0.063115442772960398
   239   1      17.619541918157086      50.976894956387859      2.5748993364830319
   240   1      16.166140383408326       53.65608653539131       2.373443771387973
   241   1      19.363196559450611      55.498090901536557     0.13762835239723792
   242   1      21.272648837370983      2.3898653169235247    0.063104687743921931
   243   1      20.828472302849182     0.89724357525423859      2.7100980337407932
   244   1      19.881118277983546      3.8464521371836708      2.5636879286595513
   245   1      20.127101542593042      5.3340838168445437     0.19266016531330779
   246   1      21.968885693876409      7.9804493284271363      51.831075459130361
   247   1      21.256786293035351      6.8669877097170149      2.7928892946115185
   248   1      20.170524197733855      9.4377119978755424      2.4069611042278733
   249   1      19.635164388015749      10.886814241713937      51.829060534419696
   250   1      20.906005718185398      13.560176066808324     0.62554866608743609
   251   1      21.276711309521897      11.835626704150547      3.8287428394250886
   252   1      19.507593913580752       14.63981939397241      2.8403451206561221
   253   1       19.89044843827816      16.706221092865857     0.41236670287956279
   254   1      20.828910097488748      19.545346153134286     0.42827181871193282
   255   1      21.323265608478255      17.369706815480889      2.9941084964830109
   256   1      19.169359080975276      20.349296103233257       2.975984236922844
   257   1      19.183533309062252      22.378716335940645     0.24552689107446937
   258   1      20.926752358261652      25.125586075933224      52.016799411034739
   259   1      21.001684226977513      22.977841353089481      2.9986376042990539
   260   1      19.155951285450787      26.143507782816794      2.6376567884959941
   261   1      19.495394806530914      27.485764149353969      51.956769592036068
   262   1      20.877430165277513      30.631412157650338     0.16516903174641964
   263   1       20.56849235421446      28.397498879585509      2.5357329426617841
   264   1      19.589719460330418      31.372587573120768      2.6913035963661058
   265   1      19.707681680860947      32.990332178415656    0.048410231997398918
   266   1      20.974375086459492       36.28850238185948      52.103175528448105
   267   1      20.855877052333838      34.572774075219805       2.808073180670188
   268   1      19.384742333049225      37.379427799995838      2.4981241379707293
   269   1      19.502584618029935      39.379539460306269      51.828928415128928
   270   1      21.131414437304613      41.827896256866175     0.07250105207306598
   271   1        21.3790485112604      39.754719999057812      2.9165827856590911
   272   1      19.604215858065285      42.679294239052197      2.5723555051810836
   273   1      19.409605403689042      44.285287039577312      52.022896400748749
   274   1      20.919131032697518      47.227884571334769      51.677717905745091
   275   1      20.480971548569975       45.73776665380106      2.7254559915282854
   276   1      19.104809678430886      48.336609174495223      2.6048409454455932
   277   1      19.781863157140997      49.929282492832236     0.22789793311956508
   278   1      20.928883746296126      52.663092335811555    0.042510262782395218
   279   1      20.929545583705877      50.887510810821738      2.6891490229411468
   280   1      19.440145050090539       53.83687197303874      2.5837316290138657
   281   1      22.593966656354546      55.322067654899676       51.80390812351947
   282   1      24.234580976876611      2.5147605314006647      52.050619964091432
   283   1       24.29073393390955     0.59996666230754514      2.2134987322660629
   284   1      22.906868195294152      3.5755825586533527      3.0175674974289111
   285   1      22.934230230469232      4.9528847615754623     0.69676970374401082
   286   1      25.013124398788257      8.4263593954492482      51.676401401142741
   287   1       24.44029086474205      6.4640071378437787      2.8081485411760774
   288   1      23.296204519981789      9.0306704772110589      2.2751209446104674
   289   1      22.851692151385127      10.786856191581245      52.002940772152904
   290   1      24.466338737548799      13.503539563384463      51.908938527638973
   291   1      24.393232619427792      11.530033600852251      2.3899207877769166
   292   1      22.507746580943291      14.462288313846955      2.9342649583455311
   293   1      22.845959490137531      16.252700589525396     0.79017018638345271
   294   1      24.743279670990869      19.492655979866946      0.3249709825885666
   295   1      24.557226434699032       17.56205079001786      2.7726556032780443
   296   1      22.642992396711872      20.229588029115469      2.7576934241027948
   297   1      22.565239737654327      22.134981207752745     0.24882404837231872
   298   1      24.203295907946941       24.92359973776718      0.3351027431555938
   299   1       24.04658033923582      23.094199538611115      2.8906676554869439
   300   1      22.099758489014377      25.606997143761497      2.7887723294686109
   301   1      22.345258508156789      27.989414395912576     0.16228615774658622
   302   1        24.3314997536989      30.454198342406759    0.093671280212047556
   303   1      23.997084266320929      28.567835963713392      2.5643324280549749
   304   1      23.021258626569423      31.667425100902243      2.6910936615060459
   305   1      22.628262778882469      33.146657987391279      52.015429638148625
   306   1      25.763008382211876      33.158271879259331      51.724900942472821
   307   1      22.576709393388406      36.990625126304003      2.4346438794932022
   308   1      22.465999385706457      39.244182498120225     0.11776736066120164
   309   1      24.148401448179328      41.595381554094487      52.005313685439631
   310   1      24.454917442252448      40.048961223471821      3.0025754576113663
   311   1      23.124856803213831      42.780692711295572      2.4844675158421721
   312   1      22.394456497460233      44.469811504275654      52.011532618770254
   313   1      23.866613855025026      47.655446753230144     0.10174482119488554
   314   1      23.828471214034778      45.810247067710094      2.7053535946237641
   315   1       21.88077748021669       48.00144763528629      2.4587412882756192
   316   1       22.55006163883759       50.20194801627337      52.118255511678946
   317   1      24.292063114751468      52.728899761475958      52.065010929169411
   318   1      23.936928520036599      50.222687214381395      2.7473386033150131
   319   1      22.451592586349747      53.869430009579027      2.5139658812362824
   320   1       26.06097800265994      55.598386818430711      51.760196161194976
   321   1      27.431210826269879      2.5493122860227939     0.14086603659623009
   322   1      27.503110580598019     0.10115694258523125         2.4896462839383
   323   1      25.958681712723372      3.1763930705177787      2.8005563045726065
   324   1      25.745301180789316      5.2695247067349715      52.023699681668624
   325   1      27.658329772747095      6.0002788971455976      2.5779789378996445
   326   1      26.679899349269011      9.1395750211581799      2.5597174446577693
   327   1      26.070871741515219      11.083265231207818      51.846055225601468
   328   1      27.687776128657958      13.971268968676231      52.011910548302488
   329   1      27.697675885214284      11.885548809902557      2.6414039395435633
   330   1      25.854654191726137      14.814018873916666      2.6545751790625554
   331   1      25.989887115010543      16.594914866770342     0.24239006592996545
   332   1      27.763900098045994      19.489824735554823      52.087185483452686
   333   1      27.408335909341027      17.827528000441326      2.8242460490305987
   334   1      26.111463289922909      20.691819303721037      2.9339715870312446
   335   1      25.721699360062892      22.184818196842457      52.063835806708475
   336   1      27.732377239892791      25.112142749960988     0.33330501152410991
   337   1      27.308518962018688      23.375223761634587      2.9462105827527494
   338   1       25.82771674411449      26.185734285691201      2.8501867146025694
   339   1      25.782876099501561      27.560131400783163    0.075467402892794605
   340   1      27.563257129472042      30.711464168516656      52.076454021476607
   341   1      26.955963568480406      28.795137661337662       2.350367342405193
   342   1      26.006755245196317      31.868497379321884      2.5828435748641452
   343   1      23.799970894494582      34.439505191832794      2.2919480532457617
   344   1      27.494064507054219       33.87926364987139      49.171952534651467
   345   1      29.401627273889048      33.225534872126055      51.872544097934437
   346   1      25.641024199553822      36.870709418221871      2.5530931969381903
   347   1      25.530695009854863      38.696482217952131      51.884490764677857
   348   1      28.894919372201205      38.886649717116967      52.123039743510873
   349   1      27.445072020514644      40.222244188618006      2.2008903678346483
   350   1      25.986505334115957      42.711813527422329      2.6936476808745491
   351   1      26.139741348078079      44.090716928750005   0.0093761219995285427
   352   1      27.259614891643839      47.223668742310792     0.31279383056426752
   353   1      27.529904344122357      45.071027774588622      2.3934488460965215
   354   1      25.950928584818193      47.851699778517869      2.9252422632728687
   355   1      25.864322710761673      49.946165835913249      0.1541527433448717
   356   1      27.514693067784755      52.918468673478849    0.021016525425496813
   357   1      27.226032988230422      50.540650192882978      2.7752047739661072
   358   1      25.531653816106225      53.002455236687659       2.380301357727193
   359   1      29.172936220444544    0.088267582386203525     0.12714296733619557