dump/Mg_1000_20/steps_91 (written by ASE) 

3980 	 atoms 
1  atom types
0.0      32.100000000000001  xlo xhi
0.0      55.598830921999998  ylo yhi
0.0      52.130399999999995  zlo zhi


Atoms 

     1   1      3.4513301790944562     0.42954049578744136      52.090412418540275
     2   1      2.0055562474188169      3.1191604258311676      51.665958562536893
     3   1      1.7733729656071207      1.1162302744759303      2.6172803479697637
     4   1     0.19496925518894892      3.9485075632654749      2.4363410002737051
     5   1      2.1519960943980432      6.3141074008217615      2.7965831174817093
     6   1      2.0598424129519706       8.138132716582863    0.064292835386294281
     7   1     0.64793115692797409      9.0775593664537197      2.4783512907444076
     8   1      29.653627109330209      8.9299523144737254      2.5773428090075385
     9   1      31.214740263719396      8.5161428842444522      52.096783051185589
    10   1      1.9736496612892676      14.082094674391286    0.050366054056496981
    11   1      2.0425675349102921      12.109798601910802      2.3117835466998953
    12   1     0.42059150759623914      14.441405924449008      2.2787103146610188
    13   1      30.953343196679015      13.645278488718736    0.084935436281436599
    14   1      8.4354658229510964      23.137684684192838      49.586056191833634
    15   1      3.7474859492252586      16.604455400675107    0.023837244110632396
    16   1      31.874416399300859       20.63709969702386      2.2188189869529431
    17   1      31.619558340040559      22.038986715627821      51.825120957447226
    18   1      1.3875506250031218       24.60077930607013       0.153445584404695
    19   1        11.2475306079231      19.231125182459987     0.50649935237321075
    20   1      28.663492369310443      25.592190681787294      2.7545820300984163
    21   1      31.659685886827987      27.611362967983318      0.2265268826698934
    22   1      1.6929720248233737      30.530363533931045     0.24948935724356486
    23   1      1.8917548800428683      28.891887545778975      2.5426533593012319
    24   1      32.043520420076952      31.254078313829066      2.6382549901910419
    25   1     0.12171094793906349      33.216197047423947     0.51206101485995648
    26   1      1.7804997129073199      36.178016235485536     0.33900289977177922
    27   1      1.5863884400782604      34.453475238523907      2.9625776297560846
    28   1       32.07355918852295      36.941021487818539       2.830840489606762
    29   1      31.991729013881216      39.196698389132266    0.053628645874676924
    30   1      1.6015406436361166      41.657158796725675      51.985419071960287
    31   1      3.4734766942197175      42.432271556987871      2.7179414146735099
    32   1     0.52539911989725063      42.673382145997323      2.4147183038884772
    33   1      31.560581974158776       44.08884111095206      52.062164420237295
    34   1      30.210632600541235      45.329627690916773       2.488168286342249
    35   1      31.819176664260645      43.900522902478912      5.1166576143104701
    36   1      0.1553349702162482      48.705112254021074      2.8422743350620125
    37   1      2.9182555714116729      48.249772406633518      2.2976392020688348
    38   1      30.233640243342435      51.033516925845646      49.530060148035112
    39   1      3.3563226310844558      49.936383083939646      51.945510951588602
    40   1      29.027372534350899      54.318821755604802      2.5773817987088252
    41   1      8.1599628756865474      52.216084005746573      51.784161022138491
    42   1      5.0765050629718651      2.4316706922088618       5.021845567101292
    43   1      7.7520038475041169     0.90757793825493915      2.7471007346316685
    44   1      3.4427262783853902      3.4210611080830984      2.2300162220419639
    45   1      3.6251934910325616      5.6451858551806664    0.017499055925111681
    46   1      5.3926475683904052      8.0544969210707063    0.015175985980414135
    47   1      7.5269729786746913       6.432248353655293      1.9047217641767751
    48   1      3.5263277084177118      9.0704018935525212      2.7250182542314065
    49   1      5.2391537941031512      11.827886353820974      50.029602306836246
    50   1      5.1028149094396724      13.621153159058505     0.28190927912472519
    51   1       5.219524755452337      11.848757932913051      2.7552179016068066
    52   1      3.5789441271039917      15.048813728934592      2.6350012304825503
    53   1      1.5509342490725544      17.313075417386592      2.7365863299162605
    54   1      5.1459001212309765      19.475912769325472      47.127902837030042
    55   1      3.1328677592260239      22.226043219059374      52.052704150373486
    56   1      6.1945426547829969      20.733860363156545      49.792583220158392
    57   1     0.39631675484154383      25.370585901297488      2.4687963902881105
    58   1      6.4571719277333184      20.300084104358699      2.5484519273907358
    59   1      5.0666771112723508      25.147442280648107      5.2357869965801305
    60   1      3.7080166080406927      25.986857270178643      2.4573414588365288
    61   1      2.6610121257708821      27.555273985045027      52.047106746231805
    62   1      4.4780359035232662      30.079481767876409     0.15760066235798159
    63   1      5.5064064234737407      28.709576371351428      2.4710754668009383
    64   1      3.7179288992845727      31.777281767660991      2.8533711457134516
    65   1      3.4745126986730086      33.398115000781587     0.22797566181763115
    66   1      4.6899181153440264      36.259451265172963   0.0017186433080220033
    67   1      4.8455369175756475      34.531196754894495      2.5624761632324455
    68   1      3.2276232986036466      36.830666373823512      3.1839643347719702
    69   1      3.2552938466523629      39.011117811018842      52.123081185472337
    70   1      4.6361828761531498      41.850110450823216      51.998288218211911
    71   1      4.9755418572338765      39.692193734318813      2.4334994878180845
    72   1     0.97367364939873813      45.655426611028204      2.6187203994927151
    73   1       6.178478040701318      42.520013822605641      2.6925360547828769
    74   1      6.1036011490477389      47.586250627527633      2.7356285004381773
    75   1      2.9859927407983413      44.130154960192307      5.2766315497376715
    76   1      3.1635370286074762       48.40215584765555      49.491233951001774
    77   1      3.8052906108150459      53.746762604946134      49.418078476317888
    78   1       4.839168077830835      50.858476124319878      49.290429350911687
    79   1      6.5278560707308459      50.025063667178649      4.9669794685083861
    80   1      3.6721789001114002      53.796862888516166      2.7963559882346787
    81   1      8.6245581408882295     0.90844936385145636      49.441860158760328
    82   1      5.4624703325803772     0.77028549127447432      49.440864190261742
    83   1      9.6857026093007406       53.50347263516764      2.7490729861569578
    84   1      5.0348440820878562      3.0564533785192221      51.819938602359969
    85   1      8.2535186034120223      8.2378443308158769      52.061820618649016
    86   1      9.4768314485018319      3.9994150034357778      2.8763395667169176
    87   1      11.654337940435877      6.3809213583919488      2.4232472270314984
    88   1      9.7074865304851823      8.5247150337807387       2.855687804362387
    89   1      8.1562889769987788      11.718055779647564      2.7768858513708157
    90   1      5.3849616001752016      17.727088194213586      49.994012155992081
    91   1      6.4894042255236446      9.1402390036548731      2.2862858537527342
    92   1      7.1208473972508086      14.182781254242071      2.6290119775938106
    93   1      4.5196035911705907      19.533392109844335      52.078800415664496
    94   1      8.9022263895589031      23.071847424142053      3.0923907686621792
    95   1      8.1418638422327874      17.084722690097355      2.3301518715798779
    96   1      3.1542676113478736      19.695579635176617      2.4995489529452328
    97   1       4.694456737404308      22.779058563305934      2.6376942727849206
    98   1      7.9465754048648973      24.836995663254452    0.027894571070900175
    99   1       11.42064661423327      22.520801429120763       2.390951914761839
   100   1      4.9398256484027323      24.822595804510996      52.078849784240269
   101   1      6.3964967949025873      27.569750760354751      52.047542074801939
   102   1      8.4833426952991893      30.342905343206507    0.027345992890651823
   103   1      8.3765992713454605      28.599564245021952      2.3232197533302945
   104   1      6.8140650765530753      31.367876579426039      2.2434523544799521
   105   1      6.4679266408222365      32.968491753576863     0.14398043186581877
   106   1      7.7581822764601398      36.163146684644026    0.014337540884731676
   107   1      7.6725247043914111      34.054678852183784      2.9023469872211662
   108   1      6.5673634169792487      36.909453080193039      2.5407344885691416
   109   1      6.4694706890697082      38.619559191391673     0.29681947662071018
   110   1      7.9801646595567339      41.826280420699845     0.12427989132954334
   111   1      8.2592257517903285       39.76346295176279      2.4626593773760344
   112   1       4.652835127910782      45.152647040558044      2.3124423534748551
   113   1      6.5517034606590601      44.932035912384428      52.120265371426022
   114   1        10.1680893900553   0.0082725957606868735     0.16968798892793244
   115   1      5.7530326268141909      44.802337102993938      5.0756353593529848
   116   1      8.2101758877060504       52.99805929006363       5.341945213192286
   117   1      6.9226356537539271      55.096638865463582      52.125477954947755
   118   1      1.8936732683092994      53.423517040664947      47.186620245593041
   119   1      7.8350244072579152      50.921796017739432       2.420287101473432
   120   1      4.9488422324234111      50.671053120007819      2.6284886090492448
   121   1       8.001109170910599      2.4257180016027098      52.012923964891371
   122   1      11.632482985187879      3.0296447786447369      52.081698674613349
   123   1      14.742992923095164      1.1138557814800789      2.8101404363259537
   124   1      6.9305070286558657      5.4761840410207236      51.468377296174395
   125   1      11.289299691431635      7.9962583098787894      52.020983990271574
   126   1      9.8630799897976207      11.237186559798653    0.043620096960893973
   127   1       14.90914352538865      3.1865101490998686      52.116142468037864
   128   1      11.778648837989694      8.5173852371153398      5.4500870235189511
   129   1      11.265020506124719      12.394337652310762      49.424809302982695
   130   1      7.0016557684074332      16.541717773634272      51.811510819088696
   131   1      11.370915686783297      11.944848053655532      2.7796684514553438
   132   1      9.7218777365121536      14.598552341285284       2.997627652090046
   133   1      9.5787012782086354      20.338269786162506      50.159061015096604
   134   1      16.135565517902286      20.589887227499005       49.40396475920862
   135   1      11.227442947729955      17.162829967424305      3.0744542054847801
   136   1      7.8978610179456803      24.814740833030907      4.9437747908701777
   137   1       9.804164459686211      26.058437034263349      2.9479692630350756
   138   1      10.986719824395294      24.795745508963034     0.20313391437101891
   139   1      9.5909066036043154      19.591366642339963      2.9415798447385733
   140   1      12.762588904010464      25.546344977181253      2.8341168406528343
   141   1      11.118363002591096      28.555733363549049       49.65100878079231
   142   1      9.7347214256854251      27.574714484048211      52.015337620298098
   143   1      11.362878129668882      28.928130739482981      2.6511826371681217
   144   1      10.020751782602284      31.414964053955796      2.4447350343454812
   145   1      9.7103462354394594      33.307792000125502      0.3645307166063067
   146   1      11.328318977322244      35.546411093315747      51.801206590482067
   147   1      11.766939439145883      33.886240258287593      2.5365772316462589
   148   1       9.396031521520646      36.520134825626009      2.4754645880276582
   149   1      10.095788729582459      38.240449723539122     0.13423888023140951
   150   1      11.231557821708144      41.874385449543894      51.982798467185226
   151   1      11.325869008711097      40.025909778772707      2.4373369529928799
   152   1      9.4402302299914798       42.64727072608644      2.4031305132472029
   153   1      9.6306198638104767      44.690889296105468       51.76781848738004
   154   1      8.0069961991373741       47.36156511885909      51.971425556132935
   155   1      10.760717020673784      45.459958442142124       2.214428414429102
   156   1      9.6292443503236473      48.209098974401535      2.4335616336503145
   157   1      9.5539408479850465      49.911620970220625      51.884027592255251
   158   1      14.721347967169166      47.658395089445563      51.965913375961136
   159   1      12.818189828572958      49.911944798330929      51.909427279560774
   160   1      11.249541265258719      50.754134065452824      2.1628733949921233
   161   1      11.386377363343483      1.5823315883099245        2.59926904472412
   162   1      13.322380009878586      0.5151521580599373      51.993370090931741
   163   1      24.635911679533798       3.171590476985946       51.55664152868107
   164   1      16.185605991790421      3.6424332761055185      2.3227149915383785
   165   1      14.688714457681575      8.3936969542641808     0.11409693076428677
   166   1      15.882216905322066      9.3244260040406655      2.5579971343799004
   167   1      9.5891880576937432       5.474677179243578      0.1205858144596865
   168   1      12.698924450379986      9.5579379466437224      2.4495165359654867
   169   1      13.226105131941519       4.036142688584949      2.8868385352128083
   170   1      15.230695220202929      13.763642749082249     0.22776511415922893
   171   1      14.512628324654184      8.5878807028637816      5.3005594541210206
   172   1      10.041479782249459      16.427811220320461    0.016156194507401984
   173   1       11.47675229156456      13.958814732620533      52.080108851228864
   174   1      14.815574000502126      19.427069874025733    0.033683463383992265
   175   1      15.153370668318376      17.450775312165245      2.9311300497908341
   176   1      13.093119800966079      20.273421736693351      2.7310133876883027
   177   1      12.734585272838023      21.694722840027836      0.1663802709085952
   178   1      14.025408101886814      24.560846148710322     0.29022169896377642
   179   1      15.959987266273119       25.48325137217542      2.8389716776739728
   180   1      12.536995073360078      27.480855174892476     0.44042356141762506
   181   1      11.791294671081221      30.414263488681087     0.15979567872525485
   182   1          14.86205925857       30.19595949402602     0.32447186677455658
   183   1      14.205678069341932      28.517211202025933      2.7478744641827917
   184   1      13.293898777900106      31.387847326229657      2.6186089513878739
   185   1      13.119874477062954      33.362094424679889      52.117050414110523
   186   1      14.808503374947787      36.452036993366576    0.093628756206584535
   187   1      14.810329766083443      34.380208835705631      2.7567380548264233
   188   1      12.759342133167712      37.522172739418707      2.6351805881934443
   189   1      12.833700649136825      39.085713017159314    0.069727461651454145
   190   1      14.347327340299385      41.926171233316133      51.938097720846216
   191   1      14.554318564367806      40.020828385228491      2.3747221088306136
   192   1      13.481741480076451      42.834793242353605      2.6328490399535127
   193   1      12.971431386769783      44.641096622260264      51.812709546399716
   194   1       9.624684877738348      48.032111184377591       49.41335869720919
   195   1      14.120268914035305      45.467043733575103      2.6030908012837544
   196   1      13.187778611239104      48.413468201011845      2.1427381489162349
   197   1      17.282616177998246      45.587113811335477       49.65539315139911
   198   1      16.417302594807005     0.37903241509707253     0.33223585644870374
   199   1      11.554062580558384      47.282177315840585       52.11828336999514
   200   1      15.683418778225603      49.954790628667354    0.010222183635922174
   201   1      15.963053286773933       54.15949064157865      49.451253794803662
   202   1        14.9811265425139      2.7866909627233385      46.970188138947854
   203   1      21.521815868590476      2.9217358140971976      51.922013346024293
   204   1      12.624057795850463      11.133873789167888      0.1062496918375405
   205   1      16.339555567798392      5.6735542020946301     0.14861487223714995
   206   1      16.614923551675336      10.951282551359649      51.968521505748114
   207   1      19.282480365357209      4.1312920726643085      2.7763449650161212
   208   1      17.826902590319712      8.0792932989514625     0.20239896142057243
   209   1      26.136841614423805         10.924511337353      47.098663173892412
   210   1      19.662398806946928      15.112761808418945      2.5543220897942134
   211   1      19.387399309940655      9.2984317178898159      2.3573514164646872
   212   1      16.454929091159656      14.496577620212232      3.0969622906471144
   213   1      16.359341108081388      16.595838418349043    0.066418021610633773
   214   1      17.707119194914032      19.291437072395805    0.072880064467170838
   215   1      18.021365814117971      17.826647952882219        2.80031322762192
   216   1      16.179593742273362      20.343618233939242      2.4980887854998466
   217   1      15.940113890918312      22.166721298574352      52.052607385192303
   218   1      17.535370657917927      25.033808677692232     0.19149607242541175
   219   1      17.651893505865623      23.204086016704014      2.6746543089979729
   220   1      17.903575340795719      25.237744776285322      5.0286954436634703
   221   1      15.668786040970655      27.182878728234734     0.44566739077711148
   222   1      18.005436227170694      31.011139990564125     0.38413328130254987
   223   1      17.332416513304118      28.883087843796947      2.3732026206043799
   224   1      16.473996886270182      31.936759265947586      2.6833788917196641
   225   1      15.951067297741931      33.421170402620518      52.116085719858553
   226   1      17.553575591158886      36.186666625503769     0.21495538431910552
   227   1      17.511831697512264       36.46393091137282      5.0893585673651804
   228   1      16.252192401630744      37.919625349152327      2.7307092850037247
   229   1      16.073510282325923      39.190155115962561      52.065127545753775
   230   1      19.596781568844175      38.524672012431175     0.22891469988984697
   231   1      17.814640357108765      40.252061436273578      2.0403710285533241
   232   1      16.305166957959347      43.081084360227898      2.9637946108824145
   233   1      17.352783295321753      42.483440396867373      52.062085004330235
   234   1      15.882538692671636      48.255432265958852      2.3484221100128044
   235   1      17.195356561441578      45.583251386822383      2.4971078344484727
   236   1      17.205548629932736       51.04382493555098      2.5614452501778553
   237   1      12.306499735180434      50.038945670044669      4.9423259474313301
   238   1      19.493086281928107     0.21273332200336212    0.056737267467195401
   239   1      15.634764816402916      53.782719060838168      2.5729161756549299
   240   1      12.710231507440396      53.352277755605805      3.1598240414252343
   241   1      23.211282138145322      55.298462877056473      52.029789227698366
   242   1      27.531729474952218      2.9413134275895771      51.827930569466851
   243   1      21.285618748109716      0.8821089306503701        2.47802018085113
   244   1      21.238655360197221      6.4781265579247282      2.4682405708238315
   245   1      17.691826434223181      12.104916129234198      49.632936817702557
   246   1      19.392833010237222      10.595741985578982      46.715155426644337
   247   1      17.768217776697185      6.5766012380486583      49.662345090260523
   248   1      20.925257994705166       8.323156090571965      52.046810465412932
   249   1      18.196330609244274      13.873969968352849     0.14168872124915244
   250   1      24.546538807955489      12.060251507622182       2.738744975644873
   251   1      22.499223334284309      9.4394168110528245      2.3568322565756898
   252   1      21.204107118231782      11.933097627540121      2.4038764305995031
   253   1      19.316541919155998      14.558943513917994      49.616655308855783
   254   1      20.784196711611429      19.452706353253234      52.002184062929238
   255   1      19.659914278022391      16.758355042980416      5.2462773565213894
   256   1      19.215227862121296       20.56214717273275      2.8571691201750213
   257   1      19.019734834749759      22.083395822322782     0.28717800055808468
   258   1      20.955042600445843      25.055267984192284     0.19699030501805567
   259   1      18.962162310482164      22.424177067630346      5.2376502106683045
   260   1      19.186176560312564      25.999333894627853      2.4745798784913351
   261   1      19.212322182388121      27.889013802741271      52.016779836178763
   262   1      20.827185690499849      30.736913311613641     0.31375964858014438
   263   1      20.335162396633162      28.713649248190759      2.4901874087473441
   264   1      17.829180442729793      34.882678023852016       2.834819718615869
   265   1      19.080476062967488      33.537509358141023     0.20756160955814706
   266   1      20.855885019297329       36.08390830437488     0.46142471728532886
   267   1      19.576070963943181      31.997333972121609      3.0387213831922133
   268   1      20.945676928420138      34.567019596768034      3.0404834012131472
   269   1      19.596353509547022      37.351232499452578      2.7574608575691175
   270   1      20.731100472702742       41.74601472913676       52.04271185840134
   271   1       21.04185930368962      40.381960607888928      2.6535730553688315
   272   1      18.967651642464627      42.840087964440826      2.3208418048193478
   273   1      16.091899113649841      45.069345240251806      52.035187326796049
   274   1      23.931162675440127      41.599076536686397      51.898877751550835
   275   1      20.650353919428454       45.81221525254535       2.943752698677915
   276   1      19.338918554043431      48.505855983538943      2.7790801228608686
   277   1      17.391615273215596      53.407030408714107    0.066176490580212938
   278   1         20.768600736863      53.090538362769266     0.32885378199201193
   279   1      20.723119730173771      51.026579167687771      2.5970067014126776
   280   1      21.315609414117777      53.008581114335158      4.8323264880675705
   281   1        22.4791184318658      3.9355930312147893      2.5183059322796448
   282   1      22.626618778225968      53.637188579604725      2.3704053822437956
   283   1      25.930824884031246    0.096083367774632028      52.033483101717572
   284   1      24.746641071513178      6.8529802841994538       2.695367446485585
   285   1      22.737751780034781      5.4079843299050276      4.9937836268334488
   286   1      22.530569007763532      9.2662421646398858      49.652466147366589
   287   1      22.658277590798203      5.8276551192235928      51.912908149266897
   288   1      20.889835891890097        8.24313374627957      5.1203530573426965
   289   1      21.444372378176055      13.875512711204482    0.004843245176460639
   290   1      22.728426365326143      14.915378286182154      49.622210641945621
   291   1      25.125642093922618      16.546271282884923     0.34775993028396956
   292   1      19.533976074781258      16.503584606829758      51.885333007909516
   293   1      20.754364443494843      18.036941206138849      2.5396219524038663
   294   1      23.833474829237556      19.501394599954299     0.62919456387075512
   295   1      23.926349383653466      17.810353732316724      2.8479451642022631
   296   1      20.982793340256212      19.750542271072703      5.2665219869325988
   297   1      22.126214803744329      22.102941559508135     0.10862399127685857
   298   1      23.867303100848176      25.191340489185006    0.057761363281717618
   299   1      24.103270278125851        23.3516302482318      2.5436133723004932
   300   1      22.580701516593322      26.535170711934569      2.3748266068993917
   301   1      22.644846183721743      28.384419066808821      51.938543525503874
   302   1       24.22163063576745      30.712457919002027    0.055364474496137184
   303   1      23.953160475093465       28.85225672553301      2.7469862955797257
   304   1      22.938951671945684      32.123692786116358      2.6070543367311076
   305   1      22.318300096638545      33.411817061375487      51.884959249085242
   306   1      25.868130097274513      33.172229622993562     0.52055932251501968
   307   1      22.636662000700696      37.660032412422851      2.5096873935351445
   308   1      24.104523087401439      35.986306677847033     0.37429388608478187
   309   1      25.786011072740862      42.642327460144429      49.606208365827385
   310   1      25.892634412681989      37.474822533065911      2.5303680467899548
   311   1      22.157496705876078      44.616600035851121       51.74687451165051
   312   1       20.71398644236319      45.597311548499654      49.616111807228464
   313   1      23.694568968791806      47.265817172970671      51.743875037933257
   314   1      24.251426770107035      45.771142020244419      2.2770941619129155
   315   1      22.496874355069846      48.389389149613542      2.4806169530014066
   316   1      21.802474461188275      49.869399902807686      0.2368213184598367
   317   1      25.594594459947224      53.646721651999059      2.5417207926080456
   318   1      24.001076746986744       51.19117591500703      2.9951959901469678
   319   1      18.778726319975135      54.148888883774625      2.5620131620720383
   320   1      27.579686959517907      2.7322814180026462      5.1251288808214603
   321   1      27.267653040207975      1.2952133092199503      2.7278899158807208
   322   1      29.649683409610898     0.14857271610524947      51.930893760509811
   323   1      25.480818431946943       4.099439046843484      3.0560377038592441
   324   1      26.096170290017302      5.5177117181072379     0.24141260673096079
   325   1      26.613767364119269      9.2470400847198189      2.5872311593152508
   326   1      26.256384096180589      10.784754824081565     0.30785564511580277
   327   1      27.459442025438406      11.935945434060615      44.441360416164919
   328   1      27.514838120724121      13.793608668765561      5.0606689136494989
   329   1      25.821362476593713      11.030117390947179      5.0776886495135498
   330   1      26.728625328566817      14.941740833097649      2.3653432661519953
   331   1      22.170278160471295      16.910296205251434      52.128528009153101
   332   1      27.109193129808638      19.327968313390731     0.38220603760170091
   333   1      29.587023957402124      14.744079129457884      2.4949629330839871
   334   1      27.435810337218648      17.467550592988076      2.6334222018734481
   335   1      25.567694390321048      21.985090246321707     0.22728520774404809
   336   1       27.26812358746394      25.016073326593528    0.060654860290977573
   337   1      27.096491597744503       23.24287754940071      2.5693193366523044
   338   1      25.731911310199148      25.771258186437393       2.724702792692232
   339   1      25.728947816262227      27.795945003227391      0.2409536330340048
   340   1      27.427425731650228      30.218063594005983     0.26393534887351239
   341   1      27.618075600033709      28.406772239863159      2.5983042649729207
   342   1      25.873207789428825      31.260310365063212      3.0374400013332221
   343   1      24.393796155444416      34.660157256077397      3.0411322847727087
   344   1      27.606032447330676      34.439076063861357      49.546919184913705
   345   1      28.663823044018141      33.351676854825385    0.045342246013094167
   346   1      25.803921218694587       42.92082779905224      2.3720416397605857
   347   1      27.350094924930026      39.864023135872692       3.005990077847982
   348   1      28.681137696101061      39.059195687504015      52.120868823134948
   349   1      30.771144825536769      39.937785593521411      2.8784416263363335
   350   1      24.299465796638227      40.436737335990863      2.3409008996347804
   351   1      25.399072629170018      44.693195742686051      52.072192338679095
   352   1      28.351449399972754      44.357547310745367     0.25905147634450898
   353   1      27.132056395520493       45.53315058719879      2.7276113768892714
   354   1      25.700168074034437      48.402508682720558      2.5903204016424417
   355   1      27.546173050173973       47.31330921413263    0.075765496859638237
   356   1     0.33865694183493977    0.072462596283749195      51.970601732680457
   357   1      28.668385708085534      47.930543580149006       2.858431237927292
   358   1      30.984858557556187      53.098908539823761      51.738643519266304
   359   1      30.855610943557547      1.1345901850613653      2.5002822524620463