dump/Mg_1000_20/steps_11 (written by ASE) 

3980 	 atoms 
1  atom types
0.0      32.100000000000001  xlo xhi
0.0      55.598830921999998  ylo yhi
0.0      52.130399999999995  zlo zhi


Atoms 

     1   1      32.059963350544955    0.095980121597292925     0.29798102762731365
     2   1      1.7040284791588987      2.6128976013518987     0.33462183619816865
     3   1      1.6696397385527704     0.53188011723727202      2.7318562472801471
     4   1    0.044266153291630889      3.6600559322331563      2.7075450286937417
     5   1      2.0303068712581531      6.4130751632295402      3.1095988457936268
     6   1       1.550329713290113      8.7662480511606535     0.40824218079916175
     7   1      31.783583092538358      9.2401870749522548      2.9765304366402248
     8   1      28.822328935298142      9.5343111147991859      3.1285932675805244
     9   1      31.976717806832344      11.055079205343997    0.072223470366043901
    10   1      1.5623392244066743      14.285901379438817     0.15429414817900169
    11   1      1.8407384585934212      11.573950329229621      2.9458952337704267
    12   1     0.38532678019848904       15.26199725073198      2.9085696700575361
    13   1     0.17401514618987177      16.901354634631087      51.800605545917477
    14   1      1.7782607485389608      19.587750706948203      51.783863528639827
    15   1      1.4336992115401928      17.781198410718172       2.863554021932186
    16   1      32.012408824040762      20.541309915417092      2.9311173261191867
    17   1      31.992813902577637      22.482640399828199     0.19066376500305349
    18   1       1.668283302701459      25.038020390733262     0.12280080769498121
    19   1      1.5928861562122316      23.273587925657012      2.7582746306730037
    20   1       32.03263726639117      25.725999247609732      2.8759516940146419
    21   1     0.27707701552985131      27.616269529774367      51.885099844617685
    22   1       1.678906970440772      30.607470407927099      51.936682553040704
    23   1      1.3331126472347381      28.856350690825103        2.51642546494806
    24   1      31.900735721890619      31.354680581656062      2.8401617573032976
    25   1      31.978481472154932      33.028370091720085     0.38661551700411811
    26   1      1.8102866346187896      36.114252646457324    0.093707984514928289
    27   1      1.1930215404964586      34.483310953809713      2.8328716069916644
    28   1     0.10443152088355671      37.113820093429446      2.9038736404687118
    29   1     0.17921744802572687      38.876111947969747     0.32836775490675091
    30   1      1.9632648041054517      41.426597799157278     0.30950644134869654
    31   1      1.6216281346710653      39.686941990147467      2.8306911894237579
    32   1     0.01595554519389274      42.870691191524386       2.325014063540416
    33   1      32.015919774303249      44.172348825046072      51.850748311151747
    34   1      1.4303733926157134      46.825247238109327      51.547443206921344
    35   1      1.5861810318367864      45.284397424240808      2.8569650215229618
    36   1       32.00975454635816      48.401851089938518      2.3691222108718781
    37   1     0.19829753675516668      49.938402888425003      52.011772933369393
    38   1      2.1186575319094523      52.365095637822478      51.949989959612324
    39   1       1.785779357546861      50.786937870562262       2.272013898079015
    40   1     0.56769843745148896      53.333873610101335       2.359533257771302
    41   1       3.718446296586273      55.268848809317682      51.665136939484391
    42   1      4.6181875337700387      2.4999593482318407      51.838890682628467
    43   1      4.6634097001900496     0.62904993537183918      2.1898708519577714
    44   1      3.2498317542060855      3.7129593917759429      2.6422578779965393
    45   1      3.1401825247663098      5.7012479642126559      51.949154307564704
    46   1       4.849486030246144      8.3192243417816858     0.29565257020854602
    47   1      4.9478715729965055      6.4682767527255587      2.5663538449794236
    48   1       3.514539686049956      9.2989163428819896       2.738215889861678
    49   1      3.4259328710017378      11.322702856451761     0.17968095284825478
    50   1      4.7660422961533451      14.214903032728163     0.44955481832257443
    51   1      4.7362787869146512      12.066860225410345      2.8024120895231688
    52   1      3.3378651731824749      15.049758265525314      2.7515992001954999
    53   1      3.1136371684865845      16.942960049748486     0.17348237303210781
    54   1      4.9654580736229832      19.474487488836203      51.814359943471217
    55   1      4.4897033977345666      17.673979814414007      2.7118699157828425
    56   1      2.6996159744172368      20.428604270990853      3.0461833993447351
    57   1      3.0789225296540734      22.308344130409662     0.30485061118064466
    58   1        4.65247736027582      24.918847515320603      51.931815834239643
    59   1      4.5057446103973833      23.506479466644567      2.6916780609761495
    60   1      2.8631407770086765      26.141741830503232      2.7745259531222359
    61   1       2.852703818364438      28.104543804755458      51.507372752870296
    62   1      5.1016358621258338      30.514650217227015    0.064881766265426674
    63   1      4.8518944632760448        28.2451223538446      3.2848430922627938
    64   1      3.0056408296707455      31.773960206856323       2.322987846171646
    65   1      3.2718322274151834      33.382570651183158      52.107277664634438
    66   1      4.7647240421439001      35.894597621464342     0.12189464755563578
    67   1      5.0216079909721048      34.164670028879101      2.4985689445989996
    68   1      3.3065918235374534       36.87299072066152      2.7161586480423217
    69   1      3.6528977655880497      38.431072039275954     0.52268926746084232
    70   1      4.8217320688866936      41.363867675875483     0.03437633143820084
    71   1      5.0126488357147014      39.967785052377003      2.5998915562815723
    72   1      3.2278975014471043       42.55275580042094      2.5708294570747947
    73   1      3.3440074456808273       44.03006150403435      52.082906866170703
    74   1      4.7928218427285367      46.787874269929922      52.094190685071354
    75   1      4.6630001012704261      45.188480435535524      2.6285103643001495
    76   1      3.0392968280561523       47.79093717765835      2.5200104715892175
    77   1      3.4263117896964022      49.767586253700152     0.13058117166515606
    78   1      5.0549382433271788      50.847207806598753      49.317919817683524
    79   1      5.0312798247354857      50.841022669548778      2.8532567292060658
    80   1      3.5695725455366563       53.40362390904648      2.2910317645897385
    81   1       7.149571255469505      55.394004531710323    0.010576447307311464
    82   1      8.4793844823019011      2.6733561216918513     0.17527179328343917
    83   1       8.430922034728523      1.1908468483308394       2.468283326717041
    84   1       6.081580749105818      3.3696502947139568      2.4683686103553573
    85   1      6.4849332115413567      5.3170275141401735      52.122444820013463
    86   1      7.6047584398410617      8.1655684631586887    0.029145044161163397
    87   1      7.5392596990474559      6.4507900639404063      2.7220924986542263
    88   1      6.5049146284014219      9.2458796189967032      2.4497110043569692
    89   1      6.0600117441187145      11.313303581677856     0.25235902059978865
    90   1      8.0206113856346217      14.088085453485238     0.21467245490509856
    91   1      7.8091913816466487      12.170086418426896      2.6649970885949976
    92   1      6.3743109213894575      14.929396071726828      2.8466704840632175
    93   1      6.2588763551262989      16.690495436310055       51.94272112201682
    94   1      7.7184635892399758      19.458716913476387     0.17814986603293873
    95   1        7.70922354490322      17.736652653029648      2.9119478553940064
    96   1      6.3423186323484941      20.678840445261727      2.7025151744057481
    97   1      6.0662897339672028      22.320441094842554     0.05444424296024495
    98   1      8.2051297417412652      24.765071006006561      52.041065454807537
    99   1      7.6623090165897976      23.168019074777575      2.5359283084203628
   100   1      6.2136524331292966      25.919803515597824      2.2805204683802858
   101   1      6.4746625060784391      27.649715288687908      52.006305583913324
   102   1      8.2651527555169402      30.471594147223172    0.015507115561660727
   103   1      7.8468439342892777      28.926360802034527      2.9080855495877103
   104   1      6.0140578233964961      31.375814849734748      2.5837584572766104
   105   1      6.6362519522951828      33.147318429924589      52.019893105079731
   106   1      8.4528538490409275       35.92028028276934      51.950869953679067
   107   1      8.3919131767863302      34.695700862766593      2.3855256692232802
   108   1      6.6950539631176138      37.255449044288724      2.6351719085973442
   109   1      7.0178289602878818      38.765450414530171      52.101509690258794
   110   1      8.2340625790119777      41.487414549861022    0.096452196370890517
   111   1      8.1088457649226058      39.755722271655252       2.412729880482217
   112   1      6.2453672079380498      42.673915768432821      2.4580313504221656
   113   1      6.2824159575726375      43.930895832462348      51.799590280905853
   114   1      6.3989198726763714      49.475240514836152      52.050487952085867
   115   1      8.0640965086271148      45.534693665858448      2.2904528852711605
   116   1      5.9529214273082189      48.066917572745304      2.5067273825371044
   117   1      5.6666413767773065      52.503206209420824     0.22199687134092577
   118   1      8.7067748300951333      52.771656037593644      51.707553591433346
   119   1      7.9673197835207974      51.089020619848128      1.9077580760448607
   120   1      6.6595062966852181      53.729082116519798      2.7371218097252776
   121   1      9.8387183221503989      55.474995287424541      0.1709715549066837
   122   1       11.24019720802263       3.104485037100265      52.109835511095987
   123   1      11.609408849142362      1.4749178575579671      2.8035145087581474
   124   1       9.931773974410067      3.8660032835484155      2.6182075435698366
   125   1      9.2372923439213874       6.028131043215927     0.30899920897176819
   126   1      10.876646880454732      8.5330478818487681      52.009217645306393
   127   1       11.33337398141024      6.6661533302056615      2.3857699351209254
   128   1      9.2902869912983537      9.1474367621920756      2.7015824142287994
   129   1      8.9417237679211681      10.975197321264357      52.113462252597095
   130   1      11.023951253759952      13.849943456390237      52.008793058726916
   131   1      10.954454852000678       11.85239812518739      2.4435859896842929
   132   1      9.5582099352173184      14.571548186556601      2.8593596900072558
   133   1      9.0556547445482369      16.604795804937588    0.017396822891147176
   134   1      10.916391235557496      19.247225297113587     0.38331428266730944
   135   1      10.735722657568788      17.688863326065302      2.8458916698427497
   136   1      9.2931325123191328      20.626008980962073      2.5527094307238536
   137   1      9.3109872060910419      21.878321853338552      52.029538567164465
   138   1      11.150036318976763      24.772471908103004      52.040121869049052
   139   1      11.630009905043755      23.160249893434322      2.5200015325884468
   140   1      9.4236242358773392      25.754490374836465      2.4677301367401698
   141   1      9.2919138394122172      27.381712218546507      52.083516514148656
   142   1      11.121947782629315      30.618453628268899     0.32149841108197613
   143   1      11.372287071982244      28.348933171778462      2.5448085016977706
   144   1      8.9301236372414543      31.400166022112561      2.7179323787975074
   145   1      9.8487196284899206      33.082713986855943      52.111279267708234
   146   1      11.505394376649837      35.882602977070725     0.18275981952795933
   147   1      11.128358722476635      34.335181145854612       2.759604603975355
   148   1      9.8411644796348519      37.271161385286646      2.5055156601070485
   149   1      10.248040998754551      38.712115121892197     0.01682987967812306
   150   1       11.32131042561044      41.486314803569378      51.813253801358442
   151   1      11.513509933154872      39.815749796583994      2.5345435702998542
   152   1      9.4190711434900578      42.612458670180736      2.3913339424789086
   153   1      9.4731786614389257      44.082224849621277      51.881205853894052
   154   1      8.1177667149458106      46.774842562654385      51.897081921909134
   155   1      11.259735404094046       45.26256348784208        2.45806465794624
   156   1      9.5701962500594071      48.212631280775874      2.2127698118047014
   157   1      9.7142937042029995      49.529444964073249      51.747397882832381
   158   1       11.58432860385542      53.030036595358752      52.048960209934314
   159   1      11.342253269424164      51.479887147964568       2.386308449176354
   160   1      10.212693871276402      54.267962319220381      2.9321680507742971
   161   1      13.125178324868415     0.13476296497001095     0.13705948012497085
   162   1      14.244498267919383      3.1685139669920037     0.18414555173671321
   163   1      14.634098852084314      1.4256831399746277      2.5991331432042202
   164   1      13.136515552817981      4.1786368554641626      2.6045673238765228
   165   1      12.410310432247412      5.7693292811454917      51.783060701526999
   166   1      14.073890000566253      8.8006670814246206     0.18029127837794501
   167   1       14.43208748863783       6.746939200111715      2.8840135215935341
   168   1      12.949661468682699      9.9402370038893313      2.7077156229835455
   169   1      12.682903541256071      11.198698598147905     0.01343791036452849
   170   1      14.389837193596849      13.751924654527123      51.883478602112298
   171   1      14.572192623767103      12.043965746073987      2.3112451764460431
   172   1      12.930357065945307      14.424025584692156      2.4009840383269929
   173   1       12.33213484206528      16.598897747948698      52.054509428917726
   174   1      14.481236098540107      19.165378999941439      52.089478584634243
   175   1      14.228728808055839      17.255501907672436        2.64751582052283
   176   1      12.944825993209651      20.254994933994652      2.5332673583279273
   177   1      12.636766924841551       21.99416865755494      52.097523884022628
   178   1      14.272150438124187      24.805170293375099      51.901390020499271
   179   1      14.394304335803902      23.314225875869102      2.7162757436422615
   180   1      12.990158499844293      25.927055912164217      2.3865993051009822
   181   1      12.964257175953932      28.014685667013445      52.066340433480931
   182   1      14.400084500998268      30.753330461980134     0.31279928441558941
   183   1      14.270173828474421       28.95627182587987      2.9026794538299097
   184   1      12.430529168346178       31.27509181274576      2.9123749815523188
   185   1      12.837601072110958      33.745402515379325     0.24403868819526348
   186   1      15.100902700059201      35.902508442845942      52.053421563956022
   187   1      14.507020526980524      33.943521176426792      2.3544393186471022
   188   1      13.227510118394354      36.825699490239707       2.573184017347772
   189   1      13.341458719088971      38.536634516053219      52.072802416031962
   190   1      14.359743113463436      41.084757391374126    0.020020549083132659
   191   1      14.302360355188755      39.759895397385563      2.8120804278372473
   192   1       12.70686707861287      42.656129690504841       2.214932240402522
   193   1       12.15175793609464       44.12695175378704      51.873903808870786
   194   1      10.891951321769014      47.003713689338781      51.804311690951032
   195   1      14.292242717905879       45.63080390931551      2.8504091228386952
   196   1      13.005978047958292      48.142187904475144      2.2606974205719363
   197   1      13.858543357512868      47.042830863371613      51.770515626083366
   198   1      15.010975573138134      52.720727212332861      51.849562876252818
   199   1      12.843964702762577      50.177594267609756      51.926200128369523
   200   1       13.22644583222788      54.005201062971757       2.554277514002707
   201   1      16.082417941830638      55.230550497141991     0.30986529569451543
   202   1      17.264104209635896      3.1667861702242108      52.050541905536946
   203   1      17.854998097132491      1.1551288497757362      2.5290354486347484
   204   1      16.129623423824562      3.9891199408773441      2.6796644860104828
   205   1      15.441075051876242      6.2282093708928903     0.45328818907340124
   206   1      17.948463071870059      8.3581995758831962     0.25681161886044851
   207   1      17.891943677144376       6.577093284274814      2.8096249383869547
   208   1      16.239945510849569       9.042177100928912      2.6493399943918505
   209   1      16.272658223939491      10.865443165934074    0.058061404970480068
   210   1      17.349018252016339      13.570579373779319      51.916692420776045
   211   1      17.606433731288103      11.922662877689499      2.4470699749133917
   212   1      16.407374373956994       14.73325240454219        2.89843945901411
   213   1      16.393937782953241      16.251645201308332     0.29973309310240437
   214   1      17.443893749777764      19.106208543576603    0.024813685011478147
   215   1      17.899498110095994      17.302897998403136      2.4436960546294437
   216   1      16.101857624646016      20.284716152834044      2.6848681727610151
   217   1      15.920764848307739      22.256005946950914     0.23902271031471775
   218   1      17.505189134276726      24.711564340178771      51.975872504107095
   219   1      17.322808470809996      23.532838446903739      2.9039048010087258
   220   1       15.86941028539222      26.128747045043646      2.5774493446801423
   221   1      15.897897950433155      27.705616640773119      52.087570973863542
   222   1      17.524276019565534      30.428605245339114    0.016412031613514025
   223   1      17.609950097227859      28.643047742977913      2.5932490687510894
   224   1      16.236612971472887      31.541761862827602      2.8482330753060499
   225   1      16.106026089182645      33.232460473180787     0.10559157972422728
   226   1      18.032360267780387      35.927946526588919      52.050368975182749
   227   1       17.65380290809194      34.251862517232013      2.6698829685558136
   228   1      16.402803773463848      36.793432763430218      2.6784180880863935
   229   1      16.198448669109087       38.45139912170373      52.076503757589762
   230   1      17.347769020761788      41.275737769649702      52.042583861164573
   231   1      17.521493690094879      39.697112699359813      2.2639892803843047
   232   1      15.746147318125745      42.560349255104306      2.4371865325752209
   233   1      15.503211530255602      43.993582748899534      51.959911918867945
   234   1      17.425996757043155       47.12994867074373    0.047598274394318255
   235   1      17.616551268060611       45.37590253866432      2.5706317779623156
   236   1      16.132549599066937      48.198108077557961      2.6651821856682969
   237   1      14.471922986055544      50.889266728075953      2.6578342167582121
   238   1      17.802476497099175       52.86126929747617      51.804022960630455
   239   1      17.326850829549393      51.180100315921713      2.4016856497587309
   240   1      15.828685814728063      54.033391017310308      2.6500144830947607
   241   1      19.351544802349665       55.53012932838017     0.26635626697685733
   242   1      20.468103032316481      2.8316300554341751      52.037805027438928
   243   1      20.983769261159051      1.0590868433771938      2.9041954582638727
   244   1      19.461482273026718      3.7428227721936977      2.7267451813908017
   245   1      19.378272153198104      5.5609228082116529     0.21366578867230065
   246   1      21.142492980932499      8.1772977057809797      52.081351693806596
   247   1      21.009124258633037       6.534763163942392      2.7512202508360772
   248   1      19.702638328548307      9.1321992730822679       2.531941946559209
   249   1      19.159104456183268      11.202565990726836     0.13229328783132971
   250   1      21.036702791037804      13.534419396416778      51.869728858801068
   251   1      20.930744275457243      11.822879865824955      2.5510268921424788
   252   1      19.198375522187721      14.547857856657949       2.565543402929011
   253   1      19.754715256808744      16.729441621164021      52.038862006019421
   254   1      20.971780444875382       19.64543728560048      0.2401567466526035
   255   1      20.962143198437836      17.647848152621453      2.5700863749438239
   256   1       19.37915893284006      20.474980201179513      2.5821624118930218
   257   1      19.168133765398355      22.210730961671384      51.985662689447011
   258   1      20.649716519531111      24.618098672303447      51.897630106946401
   259   1      20.944151718447454        23.0045422655325      2.3742317431800197
   260   1      19.065178813024485      26.022272389695026      2.5186763287879539
   261   1        19.1184044499199      27.701821146633407    0.018305087841288949
   262   1      21.229407682330532      30.243274367771285     0.16155000862472671
   263   1      20.593767278629077      28.616856040575843      2.4677592559367114
   264   1      19.465541084743442      31.374268319268634      2.7740450105818626
   265   1      19.281616721041978        33.0120181037964      51.970903527484303
   266   1      21.133606023869543      35.796884805928158      51.721084861630494
   267   1      20.983357646175666       34.11211049884723      2.2770879343043404
   268   1       19.57524968490662      36.974108937357585      2.4496011055683025
   269   1       19.56062533515869       39.28470635275454      51.938735311000912
   270   1      21.598860402681041      41.936974821872532     0.32146926038587481
   271   1      20.600807171681613      39.780986175350534       2.477170478570649
   272   1      19.286653886499035      42.782076483164431      2.5159946123471353
   273   1      18.861027580025684      44.198952629955741       51.89761337495402
   274   1      20.630921409245001      47.370581218930397     0.13902462908283222
   275   1      20.679852048332929      45.448162557529152      2.8697558095060671
   276   1      19.032047076075106      47.808040738534224      2.7557901780660568
   277   1      19.226857198525348      50.169040485505541      51.868748958282303
   278   1      20.941985597427092      52.676026317841853      51.962184581506961
   279   1      20.885387221946502      51.182589804882184      2.5134604469361319
   280   1      20.063214909206152      53.958977693470466      2.5889585959496841
   281   1      22.553115654849972      0.4753160402653212      51.935316945401212
   282   1      24.771427031955092      2.8297297786126752     0.11411507137083396
   283   1       23.78840753476792     0.90715556033749012       2.701504183019384
   284   1      22.927149181159564      3.6177440784392059      2.4154684507696191
   285   1      22.915811115965759      5.7463745207036494     0.12166409154150325
   286   1      24.124737449520005      8.3206890185184221     0.15112459672623468
   287   1      24.493984807883841      6.5444591082479455      2.3790360780056399
   288   1      22.869597906640998      9.2446899854467404      2.9552603615279711
   289   1      22.360825416647959        10.7883784870223      51.946090153844359
   290   1      23.921882176688705      13.879849133778166      51.958896671772251
   291   1      23.994064049794993      12.313496638125581      2.8660188756777067
   292   1      22.585920650537219       14.96138153560268      2.5949335609216537
   293   1      22.470334123254926      16.821291138846583     0.13254015073301972
   294   1      23.930030318356188      19.768687352853842    0.033711637481072469
   295   1       24.08053900806831      17.567261083891299      2.5785020287028222
   296   1      22.338843079969685      20.096107435589907      3.0215029376495872
   297   1      22.578028178195428      22.413590717078499      52.019906986829952
   298   1       24.06882396994985      24.650696305354856      51.744847738947129
   299   1      23.930393324213441      23.370618054223868      2.7035119631464068
   300   1      22.408557939282304      25.752173244259584      2.4736406489148193
   301   1      22.328374482190672      27.298343139404441     0.15554365898876507
   302   1      24.266166605372245      30.009958040500372   0.0065227179881560977
   303   1      24.219658427880358      28.409931289664726      2.6597284310378924
   304   1      22.455151541244003      31.099372629239735      2.7802299887746105
   305   1      22.712513597484303      33.077871726088944      51.943867204133859
   306   1      25.649915493059741      33.074709131772956       51.83112275012779
   307   1      22.892265736719136      37.419513052075899      2.7077319054241218
   308   1      22.759861651408677       39.20241687308188      52.121108081165289
   309   1       24.73570095305492      41.707595358935919    0.072059931960308757
   310   1      24.045112813400465      40.291594063663702      2.7375584019197423
   311   1      22.399113872313215      42.930326695998033      2.7868065140831444
   312   1      22.656637457672698      44.402277187065728     0.07020804899055888
   313   1      23.893441551226026      47.181322474089377     0.28235123065404549
   314   1      23.777548666648496      45.601463622583502      3.0253662681250728
   315   1       22.15436023409428      48.187710691262559      2.7274285313916149
   316   1      22.346592277918138      50.108824544888463      51.882905125744948
   317   1      23.804356604592467      52.890585557986242      51.658975145629967
   318   1      23.802350608900483      51.128523200193086       2.576309692708239
   319   1      22.985827699121231      53.492416279132925      2.1078141386206437
   320   1      25.791587112442386      55.323837687758271    0.041358924881982742
   321   1      27.604528823175411      2.4123062190559641        52.0655738975763
   322   1      27.341529197738659      1.0545176854334495      2.3069286731001517
   323   1      25.854967499342386      3.5776565164531289      2.7467777034129344
   324   1      26.179693682413856      5.0922705116556193      52.100933380750313
   325   1      27.469605788298534      6.3877612093082616      2.9751904519118488
   326   1      25.679776335067206      9.6146052376135227      2.1717785976533399
   327   1      25.274035493689521      11.246105163098331      52.035362110343861
   328   1      27.285417257809559      13.679080649764485      51.849954970323104
   329   1      27.805539354623505      12.156467428763165      2.8494177053867245
   330   1      25.809511506437691      14.853652901750142      2.2125926478382683
   331   1      25.794290006726804      16.908220121204419      51.888946520356228
   332   1      26.720905612693212      19.817477925599025    0.062439654504213286
   333   1      27.494888098485212      17.746002676849724       2.644435663664928
   334   1      25.486948961447229      20.121700277680596      2.6662296561727183
   335   1       25.68418116880056      22.419673292942147    0.024594428242802776
   336   1      27.053658596945514      25.325916263233527     0.13274300251804216
   337   1       27.03556037841296      22.908843443030456      2.6373556549784873
   338   1      25.423805644962414      25.849914749551051      2.8960936085862978
   339   1      25.082100206096293      27.528898448361108       51.83810913520022
   340   1      27.394204464160378      30.113926555069355      51.838950759677353
   341   1      27.092620256927809       28.07572518783542      1.8861306364064214
   342   1      25.409258227335208      31.534405272872139      2.6339742236818031
   343   1      24.189496670327692      34.425287587852651       2.483854317380576
   344   1      26.920203882823152      34.094742656653814      49.084935573498683
   345   1      28.474185741836212      33.382009998766797       51.36188459281221
   346   1      25.990840886067446      37.283156816177929      3.0876781756021607
   347   1      25.657337206388537      38.778780163127315     0.53601708981412088
   348   1      28.810342388397679      38.919630833474116     0.24760889551256135
   349   1      27.265462078031803       39.97556197441034      2.9302671624575418
   350   1      25.472874496353551      43.193707112149113      2.6980349560254395
   351   1      25.857314927784934       45.21846994499834     0.23829197125890011
   352   1      27.067105217020369      47.835267092475171      52.009886533650942
   353   1      27.460046196187584      44.961100433569669      2.7528178069718416
   354   1      25.501113214918654      48.087858469907509      2.3224059728537942
   355   1      25.320243472393564      50.443906257668573     0.11962493757827511
   356   1      27.238475014807658      52.508448319812281      52.058759200587076
   357   1      27.064388594682612      50.930524332310711      2.5127093116562258
   358   1      25.806612873072638      53.483150628181214      2.4947104490247409
   359   1       28.99821488961658      55.328725330954541      51.865338707064552