dump/Mg_1000_20/steps_41 (written by ASE) 

3980 	 atoms 
1  atom types
0.0      32.100000000000001  xlo xhi
0.0      55.598830921999998  ylo yhi
0.0      52.130399999999995  zlo zhi


Atoms 

     1   1      3.3147258724102042     0.15109610021596134      0.2261807484220151
     2   1      1.8831892489132922      2.6822609368042678      52.114282832824451
     3   1       1.156718428263616     0.95922701527737619      2.3242952280060352
     4   1      31.981193964524294      3.7071036710918164      2.8197243575508053
     5   1      1.5389163724983532      6.4303890892038167      2.3657617011218934
     6   1      1.0385937872351771        8.00955159748829      51.676518336243078
     7   1    0.071545895465488452      8.8993495415625716      2.9784603777407126
     8   1      29.578048522292455      9.4380877367366054      2.5407252435573873
     9   1      31.626295346537113      10.703373152683966    0.080013691292895414
    10   1      1.9608615983425155      13.590461364049755      52.094479205390876
    11   1      1.3814869868782136      11.911458789181127      2.4896982246651711
    12   1     0.32076989314528059      14.894489901364448      2.5174322125996684
    13   1     0.70096640191995874      16.321743883356842     0.01855067103697974
    14   1      1.6187694172813303      19.122744964108012     0.44894255239024311
    15   1      1.8164649509231034      17.896698647313553       2.819622894018837
    16   1      31.915258190761023      20.688537353699981      2.5798842148372918
    17   1     0.37864479859807998      22.332498892070525     0.10776293514377613
    18   1      1.6453255757427576      25.028111737195857   0.0017604806763763937
    19   1      1.7387609198515086      23.074726114266525      2.7682637490687405
    20   1     0.23428588632946412      26.094591980560129      2.9157639429155671
    21   1     0.18821153516938857      27.770781647917865     0.17945526491212521
    22   1      1.6225790241739573      30.521734052530874     0.03854759933655167
    23   1      1.5879973436790356      28.924492638096968      2.8826351050113335
    24   1    0.089828164667576385      31.417072964530291      2.5225941945170658
    25   1     0.41788721380167115      33.471317356345565    0.014495392449064913
    26   1      1.6633359163127173      36.371712714889512      52.056046798532527
    27   1      2.0078217029115226      34.570981632473625      2.5589795006891003
    28   1        32.0822108878344       37.16560940045273      2.4342365399846706
    29   1      32.013564486217255       39.04670990277652      52.089139027346704
    30   1      1.4377620459107505      41.691838147412795      51.992916603332418
    31   1      1.2291221380365454      39.893640567810856      2.6177072032614768
    32   1     0.11982031417918798       42.38771294388706      2.7321767418270166
    33   1      31.855799134932241      44.119576107875098      51.863765754892796
    34   1      30.735236907672395      45.374910776960206      2.6349152705726433
    35   1    0.051787322251110254      44.421712524749275      5.4945959236908886
    36   1    0.094141500730828193      48.554680351849321      2.6246819966373685
    37   1      2.6091807549576815      50.166525550380882      52.087574729186187
    38   1      1.1504027942389317      51.188611174728621      49.252237250977601
    39   1      1.6632799131962126       50.87484988286829      2.5199223726427484
    40   1      30.540431198416407      53.053418018638517    0.036778666335041274
    41   1      7.7888677010212231      53.363120240050804      52.056574259169459
    42   1      4.7440472254565256     0.78963656997250509      2.7223223414092321
    43   1       6.339969732649676      4.1383086829354765      2.9873218429847408
    44   1      3.2649902477391177      3.7244965554076588      2.4102402358762789
    45   1      3.2898589698350937      5.5248064999125157    0.070528413473574969
    46   1      4.5068737099424085      8.5989474404323474      52.093209946566446
    47   1      8.3442694711610716      6.8856557563712437       2.107499802543328
    48   1       3.033128089741671      9.4542594926401939      2.5036096889996591
    49   1      2.8338847518418162      10.875926359110247      52.046215639190784
    50   1      4.8692537742488939      13.944944583671562      51.762732923269247
    51   1       4.365367379813371      12.265267005294531      2.4161973887202031
    52   1      3.2622531577403717      15.142967596500563      2.4535856681140338
    53   1       3.483285088566046      16.512698655044975      0.1432181843405827
    54   1      4.8601308517091999      19.375117821735902      52.094305804282683
    55   1      5.0263105628514255      17.451643818158697      2.5510522029560585
    56   1      3.2717408499144196      20.421403603387489      2.8486989230608217
    57   1      3.4592686341817021      22.405525719942538     0.27956213918841666
    58   1      4.8814081230626396      25.044577561403155     0.30596630495326915
    59   1      5.0653285535885999      23.100437604897568       2.378594965923345
    60   1       3.366886204306998      26.353205100560785       2.447398520611956
    61   1      3.6500529044933883      27.974212897063683     0.15254472606535285
    62   1       5.025284380748273      30.877536632028558      52.018096909782329
    63   1      4.8555304303905444      29.243892947444447      2.5020870928008541
    64   1      3.1560606402473033      31.628602851535273        2.70815756159893
    65   1      3.3558873394520403      33.479017312029569     0.19642124432329214
    66   1      4.9866309545484375      36.122027142401031     0.11481588984925567
    67   1       5.012678985977745      34.239162562858056      2.8770875087768957
    68   1      2.9051215162634216      37.319242339971396      2.2923877793769698
    69   1      3.2727441268406077      39.125816307493906     0.12952737619688215
    70   1      4.9462527129247666      41.498033850892313       52.10529855489002
    71   1       4.585362034618055      39.907266223783523      2.5595767527449564
    72   1      1.4462481552149069      45.111207622344757      2.6614907681793185
    73   1      3.1528793080695592        42.2913882482855       2.632347141705869
    74   1      4.5030707998761219      46.971583079081874      51.833784849302326
    75   1      4.5815706076980529      45.162940549241661      2.2843244977628965
    76   1      1.4062219834452376      46.670645685596782       52.03051155776096
    77   1      3.0905525176600754      53.622000067231106       49.78858292588103
    78   1       4.356655154975309      51.322070185403099      49.406114354241922
    79   1      6.4297715477912405      48.020487297530721      2.2812941471942989
    80   1      2.9524681803557233      53.738206950124173      2.3012528998799393
    81   1      8.2139345190677773     0.91566352746056767      49.725210620156346
    82   1      4.8885132379760838     0.75967324974727435      49.998739125215053
    83   1      7.8654192583384539      1.0606818089390926      2.8399284869574033
    84   1      5.2237331978316437      2.8621848464232764     0.11990677035118669
    85   1       8.134096332263697      8.4881293143582379      51.967497666526121
    86   1      9.5786540864051606       3.965939010910724      2.5123111230282116
    87   1      11.574623189504377      6.8670251220945042      2.5068998419802671
    88   1      9.7107046522532041      9.7526014734857984      2.1107049329734289
    89   1      6.1956373824012809      11.467786585506888    0.094702415126677847
    90   1      7.7151743134872097      14.031239954540597      52.117734782548752
    91   1       6.388819033088196      9.4980724702779256      2.5549541934631064
    92   1      6.5957578901550935      14.431916298409114      2.6247120399830517
    93   1      6.4231082845991345      17.018932656670714      51.449796161454827
    94   1      7.7314781726120625      19.279564577076464    0.053205977683703172
    95   1      7.9663175806194912      17.624232321037201      2.8747471016630199
    96   1      5.9308301519070534      20.104027822707334      2.7289759299779597
    97   1      6.4720347024685987      22.312928253793615      52.094386168702876
    98   1      8.1599366968989262      24.897512667358342     0.12167898633600402
    99   1      8.0240164882901617      23.376908932387511      2.4718405207267407
   100   1      6.3035123664469861      26.345857465639096      2.8029348197734092
   101   1      6.8270425456123194        27.2137466395967      52.111710706402505
   102   1      7.9608340730868523      30.023844199202319  0.00022065864437699926
   103   1      8.0568599910126455      28.884364158022724      2.6639389499624007
   104   1      6.5445348938839096      31.718429974736726      2.4352447903461374
   105   1      6.4259855003123407        33.6624308021701     0.36658982126595491
   106   1      8.2280507834920016      36.197595761245182     0.22971801855881879
   107   1      8.1932752659271522      34.301493163461579      2.6565620244978208
   108   1      6.0338970231120213      37.050522397273426       2.861037905805671
   109   1      6.5536651294422681      38.998272764452501     0.27165601252720073
   110   1      8.0051624351629673      41.805069700896944      52.081082372078853
   111   1      7.8099283763571252      40.300096330494092      2.3907505767455968
   112   1      6.3174951709599956      42.570692014191884      2.5562220705087317
   113   1        6.42986111560975      44.576637330054162     0.17469264471620766
   114   1      9.4917312142896222      55.253822957270955    0.058489818254820504
   115   1       7.832834951824319      45.216425881424414      2.5844489360697911
   116   1      6.4081062662076347      49.847421898422773      4.8158905678501389
   117   1      6.4152572949194218      55.461042688351363     0.35679945530878521
   118   1      4.2298814039387214      53.091963084975269      46.693498528586076
   119   1       7.722491088653844         51.114582796872       2.142251689424663
   120   1      4.6199338340083225      50.677820035573824      2.6893402873026844
   121   1      8.5276201526599724      2.7244959394718133    0.017840442954924141
   122   1      11.405515192235047      2.8191018722362831      52.084582602843952
   123   1      14.408465150849219     0.71084632927150881        2.98644918803737
   124   1      6.4518782376749026      6.1375804868702888      51.801075589096811
   125   1      11.332541628446965      8.5843807996017727       51.89046461253254
   126   1      9.9143021358365324      12.015538943814628      51.738846835825427
   127   1      14.460601245126577      2.6128849014642097     0.35331912686766975
   128   1      11.233828683023054      8.4915542821427525      4.9815154440861518
   129   1      11.858140047823161      12.422749879303575      49.417210107394091
   130   1       11.86438640258763      14.306707803407607      51.936360560827467
   131   1      11.549922529936188      12.329602161680421      2.9569560585045775
   132   1      9.8699618827484716      14.981635317448589      2.7326868928354071
   133   1       9.586356163748885      16.793458760467388     0.36184445730045678
   134   1       11.06133685757519      19.255457364871063     0.15980895579945528
   135   1      11.293596746146374      17.588575200933686      2.8173552968649562
   136   1       9.355109823207016      20.318989669083411      2.5919863951011881
   137   1      9.6774071487191904      22.030327711737588     0.07299868388730503
   138   1      11.354068435985235      24.990196932212392     0.15448690612945648
   139   1      11.290683128389018      23.110462504449867      2.7392602729941835
   140   1      9.7724104768937856      25.740625746029483      2.8031207582080051
   141   1       9.893298899730258      27.451954850779455     0.45721862441374039
   142   1      11.304643119630207      30.367506479026936     0.30747992325541734
   143   1      11.587444659968479      28.484458026063372      2.8520557666470348
   144   1      9.8443321704458526      31.574635077577437      2.3783235758152403
   145   1      9.9603764247971451      33.395699623811211      52.063582337717499
   146   1      11.428251988258637      36.338962262899493      52.086175712696559
   147   1      11.212882154058105      34.551567633169441      2.4081962844734828
   148   1      9.5369623402737496      37.255303308791341      2.7437562089624437
   149   1      9.4637928388513188      38.846677612783445     0.15204702620850449
   150   1      10.900340075433965      42.145975322343595      51.790068771090397
   151   1      11.260896730125332      40.031775966268533       2.957894224960504
   152   1      9.7598530550696179      42.701975937383381      2.4789856134937236
   153   1      9.5748985790381571      44.700314201467059     0.13607098954827915
   154   1      7.3954605014323249      47.304947807195248      52.023222457587821
   155   1      11.221603340011264      45.438137677261757      2.4355643812615515
   156   1      9.4694590506777807      47.727461167495171      2.1215891619422687
   157   1      9.1877657161147912      50.247605986263288      51.880267891115523
   158   1      14.157166325711183      47.665096228750542      51.799846589989777
   159   1      12.454568773475772      50.354026236398745      51.679680965633047
   160   1      8.7900752116182677      53.970266519137041      2.6350547888467508
   161   1        10.8934735236174     0.93741250964289391      2.7444873001377257
   162   1      12.524649213041345      55.298632241374143    0.032043443657919127
   163   1      21.299226903113563      2.7855161063722349      51.993097308717836
   164   1      16.487207723718804      3.8022527692536086       2.816813932297725
   165   1       14.65524437088474      7.8847847647015241     0.10674691677700608
   166   1      15.829785939924685      9.0873321126967479      2.7355561584318799
   167   1      10.009042970387414      5.5613464852417946    0.082311351468569535
   168   1       12.81118655102587      9.6357313343939062      2.8458802060706043
   169   1      13.010359065936798      3.6298473631016259       2.903024287901522
   170   1      15.037168804294492      13.644247427267645      52.085594570482641
   171   1      14.430020622486596      8.4895375475703609      5.7969613092600323
   172   1      12.927253464996832      15.291243647587267       2.664181065432667
   173   1      12.935988128114323      17.050835791887085      52.067966977738898
   174   1      14.715450663303145      19.541732465268002      52.049922108924655
   175   1      14.556051009734283      17.902235912020224      2.3010502103043304
   176   1      12.501956297421534      20.542214481099784        2.88890891422052
   177   1      12.978025086953931      22.167145469465613      51.965243307349056
   178   1      14.523689916668856      25.007554523078355     0.18726220556933357
   179   1      14.497837096770519      23.118728743465219      2.4460268875833666
   180   1      12.834529871350419      25.621571635416657      2.7322275988385809
   181   1      13.213950673753187      27.589540414661172     0.29034317220865319
   182   1      14.486796487737569      30.365058538343924     0.19147962439729643
   183   1      14.763103820574159      28.441910057416152       2.623034711055829
   184   1      13.184776021389986      31.806770856162554       2.884804778620973
   185   1      12.828557376565898      33.290578395871051     0.22166440701390008
   186   1      14.332009919190281       36.58964353652091      52.046954219204657
   187   1      14.418057508279929      34.238714679278239      2.9229258855182447
   188   1      13.105756495022232      37.118844380631543      2.7129747680878347
   189   1       12.52502850501682      39.117856464377994    0.013506257811529856
   190   1      14.435178834030078      41.802396979248314      52.094315207936077
   191   1       14.17667580035222      39.807572665591934      2.5067072321873947
   192   1         12.880362120853      42.549181054673916      2.8216549061927934
   193   1      12.928545339482634       44.68680216506749      52.054271473114248
   194   1      9.5985862410300182      48.205231812540141      49.746520967200595
   195   1      14.169749020898006      45.380314532979057      2.2145599595803458
   196   1      12.556900954861645      48.306216806390154      2.1180950288818909
   197   1      17.488794870837218      47.075671636679374      51.988507338352214
   198   1       15.83842236827881    0.088331851414261628      51.852780990482273
   199   1      11.261377898686737      47.242909160474554      51.969269570090397
   200   1      15.970264072240765       50.16813151526128      52.061035619212518
   201   1      17.918725644685743     0.49850016714354817      49.872693592831197
   202   1      15.996688602967797      5.0586657124764338      46.757535738971193
   203   1      19.135779781451586      5.0888738311016439    0.063259940692192068
   204   1      12.762233362575978      11.263486374817205      0.2801542260450971
   205   1      16.278746706606796      5.1673449785754926     0.18627116374741581
   206   1      15.812559246637447      10.776749037336094      0.1980284496667862
   207   1      19.328791596184775      2.6989459820833668      2.7176544630173374
   208   1      17.580889116196392       8.036424060591699     0.18260034548431373
   209   1      19.257306738559528      10.620998214112575      52.129707362547471
   210   1      19.137699494022439      14.895249669766905      2.2467903176970028
   211   1      19.248341721680045      9.1309108536475083      2.8559992194020651
   212   1       15.93222591112033      15.069135703258016      2.8479943981892744
   213   1      16.031424811611686      16.624318864607233      51.865808879258744
   214   1      17.367586862849929      19.428674173240665      51.704775695392051
   215   1      17.781096492493756      17.605596398865735      2.4776656529330845
   216   1      16.300700274942372      20.739445060894845      2.5925889611953519
   217   1      16.336484862268943      22.525378651527681      52.050758362957644
   218   1      17.557663998175059      25.196677545807155      52.114894766944609
   219   1      17.813056684881239      23.224060701545799      2.1739177438552693
   220   1      15.932828624440527      25.737639179739119      2.6652597951480739
   221   1      16.345836044239284       27.72195071094939     0.13909196248100425
   222   1      18.003899673453176      30.485081127208922     0.16843385696354185
   223   1      18.041462483035616      27.833758157385798      2.9021243650902724
   224   1      16.541441907909817      32.120101456366676      3.0840956513753892
   225   1      15.923698992549928      33.369736708918353       52.03040589130439
   226   1      17.290990529214092      36.308647700490006       51.87208100093892
   227   1      17.791171801889163      34.476861797764037      2.7338004794443984
   228   1      16.054042278559557      37.044396270084853      2.5088446425352924
   229   1       16.00269129865006      39.408940583860684    0.044123985162986358
   230   1      17.518393181413693      41.650919781956958     0.19561598131645633
   231   1       17.30384667938721      39.712384283175595      2.4540041576199561
   232   1      16.003105762912593      42.598288929739361      2.6338186442700602
   233   1      16.111347300163793      44.059426623674774     0.18249845214186136
   234   1        16.1133533777727      47.813160710735922      2.4600028802548612
   235   1      17.289624651595755      45.437335624157932      3.1011910027880671
   236   1      17.409100249188278      51.042483532583589      2.6861113897508946
   237   1      10.788625404913139      51.281447566400182      2.0425502972376788
   238   1      19.336468198331389      53.703131559790258       49.74989603488644
   239   1      15.922961282100227      53.649127129947537      2.5957475478965986
   240   1      12.477393100339693      54.087659516279537      2.9108406487590153
   241   1      21.078682833197867       1.088657476935514       49.94523479385758
   242   1      24.069971723649108      2.7196114887910046      51.934509147633825
   243   1      21.346881809067959     0.48201433710061636      2.5263048631514202
   244   1      20.421376663779434      6.2905665150938006      2.5849030567421574
   245   1      19.397154804389515      9.1640852152815064      49.421518069258937
   246   1      18.969747591178365      10.848215367288924      46.561685196923221
   247   1      17.693794506220826      6.5145906095492334      49.525207256335641
   248   1      20.864289093747804      8.0915959630595342    0.076427058249052965
   249   1      21.024868057321431      13.391876797545299      52.007548102584884
   250   1      22.132498423401046      14.662445828010409      2.9660698269891062
   251   1      22.188138754650502      8.9469583471190823      2.6550619441976657
   252   1      20.803959623436505      11.847655035927854      2.6002341001483495
   253   1       19.18124201251808      16.558888100111503       52.09449464764954
   254   1      20.807223204385391      19.568362453581091      51.728104149109427
   255   1      18.809402409676863      16.458584084526667      5.1462781269452575
   256   1      19.231806727055545      19.995349264784284      1.8727545932852487
   257   1      19.352781864716331      22.645817777283625      51.724111614454266
   258   1       21.11130907625072      25.180111468815188      0.1493811675657222
   259   1        21.1664294607023      23.003782205213941      2.2171456685926074
   260   1      19.741549580144785      25.660134034233927      2.4971381539827835
   261   1       19.42852834985505      27.714390030836075      52.036845177686232
   262   1      21.009460209308219      30.871508046116762    0.075035603544831145
   263   1       21.08398292312059      28.966290007911653      2.5418324604038061
   264   1      19.511101346582066      31.489924660939398      2.7452070638631474
   265   1      18.891379119413081      33.778350819020012      52.036169623764742
   266   1      21.212787814057751      36.191755207794628    0.010650067733550548
   267   1      21.077947028922779      34.072829885315599      2.3749566177760237
   268   1      19.136493250887995      36.941377697999059       2.026486275118299
   269   1       18.90288022222769      38.679035566658904      51.831433084649539
   270   1      20.482131228267509      41.645197246516155      52.054083656108595
   271   1      20.473559771290411       39.96659876679449      2.4141889246644972
   272   1        19.0610922839297      42.551799624898109      2.6370737011204302
   273   1      19.271952945041498      44.463504337729397      51.866542078237721
   274   1      21.210082787021715      47.108398827416316      51.932090338750619
   275   1      20.441066732701753      45.363885718087261      2.5060656520042266
   276   1      18.964062950782058      48.281860411816545       2.680231325331258
   277   1      17.719581331903012      53.096335881270889    0.081475011906721656
   278   1      20.732208595885965      52.785482848407533      0.1446137203330938
   279   1      20.736515026066325      51.058786241387693      2.9104921475990944
   280   1      20.915566123929349      52.523816534809114      5.5954547117692703
   281   1      24.200921630171091     0.87687525932759158      2.6293804845491935
   282   1      22.952302541433689    0.062005408983654024      52.098413272257318
   283   1      25.404325828312977     0.16890488791503377     0.17602421716508157
   284   1      22.587693833558781      3.5375570482954801      2.7046530529740407
   285   1      24.445325989516824      6.3563015665988036      2.8433406168380655
   286   1       24.30622362622945      8.5910421040740701     0.66973968463527156
   287   1      22.590824404721559      5.7475517885558745     0.19019991172467982
   288   1      20.461896940740797      8.2717215750511919      5.0902598800864434
   289   1      22.511588205444539      10.768429067738857     0.41288881643180181
   290   1      23.929465791764326      13.645689875907744    0.068449780632420659
   291   1      24.301520156672662      11.332864648359431      2.8924203383890026
   292   1       20.66838870329871      17.398947971064072      2.5091562053117733
   293   1      22.723577388395036      16.565048875605484      51.887806970397861
   294   1      24.469801141926528      19.323613087985589     0.19133645917918721
   295   1      24.206118642533209      17.379919007872186      2.8332553119848356
   296   1      21.341123435579892      19.433273650121127      5.3229988754954043
   297   1      22.713803249977278      22.034677188217444   0.0078348232455497831
   298   1      24.554115844921682      24.743910235435049    0.067946703252163052
   299   1      24.399438479364793      22.681970218126107      2.4136593003069491
   300   1      22.816559507868316      25.683332641344556      2.9220758555415656
   301   1      22.784056265886516      27.896196220132914     0.13799840052572912
   302   1      24.033217643259952      30.793927405024235       52.04238348787058
   303   1      24.120387347554409      28.642140205146905      2.6335787700988149
   304   1      22.596298865131299      31.529013311063579      2.6019677655825908
   305   1      22.085695296886531      33.485308972816277      51.631623635121393
   306   1      26.136789001401542      33.291826900381572      51.866424277284665
   307   1       22.59295718425226      36.657362177929528      2.6668940831214254
   308   1      22.348435457574023      38.879775047586136    0.067668475273697806
   309   1      23.669102590360396      41.447444460236852    0.036111905846640341
   310   1      23.742880272132084      39.813020658306009       2.477423416170244
   311   1      22.099143825847445      42.795991867402634      2.5198150524917731
   312   1      22.474298974287592      44.307645400618938      52.129461069568563
   313   1      24.303022253674548      47.742254096366558     0.15653613716106984
   314   1       23.75309681089221      45.358533433551401      2.6143516739389172
   315   1      21.963496257471704      48.173420673750378      2.8136729914554364
   316   1      22.510875164255438      49.740037541804021     0.11319597317910063
   317   1      25.570203989927077      53.576323795179505       2.715246720549529
   318   1      24.144109214438735      50.487576037714476       2.667827529971039
   319   1       19.12767910581054      54.028101682254189      2.6890213010306971
   320   1      27.201348479375085      1.0755367083414842      2.2690629765447494
   321   1      27.147339218990712      2.8947424140635878      52.112133408703684
   322   1      28.873271652766665     0.25757152217686397    0.023104704068108026
   323   1      25.946727903725151      3.6361662491077062      2.5717068227149675
   324   1      25.947777435426442       5.734076379363434     0.27307592827380556
   325   1      27.703979170051454      6.4528133409962001      2.5522063017115744
   326   1      26.328436568030316      9.4492234111077025      2.6814941082665569
   327   1       25.38812428024346      11.031203816744238     0.12929053745142419
   328   1      27.096215995080723      14.050300722563225    0.042971060929231211
   329   1      27.303802633000689      12.209028967569175      2.7908265785908171
   330   1      25.277286336277147      14.556596929931651      2.4814968045941099
   331   1      26.190044676444696      16.956757461506058      51.721913002037155
   332   1      27.605088419889263      19.204304149785521     0.42605883645252129
   333   1      27.251995518060959      17.345320892197531      2.8576295758211643
   334   1      26.210009846223638      20.323900908522241      2.5303041615774045
   335   1      26.100699731946964      21.852133748634582      52.058246912998698
   336   1      27.422972297585673      24.878181437871504      51.876070755368076
   337   1      27.555879260845462      23.155785468946203      2.5348479580391685
   338   1      25.768886362520213      26.212781948838792      2.4219627168185602
   339   1      25.669841083012081      27.937922273772902      0.1277510312684649
   340   1      27.408037384902997      30.659013344838144      52.106506833363028
   341   1      27.446573172642083      28.500977399127986      2.3921182949861186
   342   1      25.832322199478075       31.07179663892153      2.7348045323810921
   343   1      24.142967717158907      34.018697083611379      2.4241499499137626
   344   1      27.412233010865148      34.646196955380233      49.320263566364552
   345   1      29.139495541104314      33.283501152340634    0.046872256136049686
   346   1      25.738585622973183      37.403228114337423      2.7197549114949133
   347   1       25.50582316919439      38.746690641191897      51.922043543780049
   348   1      28.830055228795818      38.968316521878542    0.099782551048060719
   349   1       27.27483929664406      40.253887753589304      2.5827468840521441
   350   1      25.635267605374455      43.087375669707761       2.191768013055539
   351   1      25.642472889008374      44.803399649826083      51.896137141929053
   352   1      27.437710601281761      47.366413159738521     0.24929249945474966
   353   1      27.400478225243518      45.024533486789622      2.8184156163340113
   354   1      25.713235549443329      47.871160555728608      2.7698649188235644
   355   1      25.528125388219078      50.509405287407589      52.058583849335982
   356   1     0.11278374571146901      55.462657177467612      51.943473156637374
   357   1      26.997936427348773       50.43187016171926      2.6578018022748644
   358   1      28.755818511353837      54.107745631769625      2.8208150926826594
   359   1       30.31235066091271     0.97173864764443019      2.4267901183258576