dump/Mg_1000_20/steps_61 (written by ASE) 

3980 	 atoms 
1  atom types
0.0      32.100000000000001  xlo xhi
0.0      55.598830921999998  ylo yhi
0.0      52.130399999999995  zlo zhi


Atoms 

     1   1      3.2944653026514534     0.15991023574453864      51.920651794873478
     2   1      1.8101583473657004      3.1036859709861497     0.41132427400594945
     3   1      1.4336999760456495      1.1905532991715591      2.9903322251958335
     4   1      31.874807688217921      3.7876171273311234      2.8085322982220577
     5   1      1.3866919791006249      6.7110185784818883      2.5817605329031692
     6   1      1.5420541425574279      8.5687871818315049       52.09981308739863
     7   1     0.10510246845506195      9.5692843200566458       2.252496097340547
     8   1      28.533931617286221      9.2867713600493538      2.5507422148317174
     9   1      30.412282452072965      8.7222461032427407      51.839031426351113
    10   1      1.4142831136730289      14.152919611124016      51.962564374844249
    11   1       1.432481989759834      12.176917776591484      2.3616931752643473
    12   1     0.39985394483029635      14.960845085311327      2.9829416763752294
    13   1      30.578029744549816      14.114625358852628     0.14811888631798409
    14   1      5.9111325806050594      21.663655788287567      46.998741939744235
    15   1      3.1022843911746301      16.562916002782458      51.794789902182202
    16   1      31.930439500434264      20.332741577332524      2.9586334168511375
    17   1     0.27229403139892172      22.426680222469543      51.747675721650509
    18   1      1.6188623400946349      24.976355247067062     0.31202285651065648
    19   1      11.454332763739295      19.365160215076983      51.774233644756734
    20   1      31.901493463413452      26.255224601500341      2.8140894451829053
    21   1    0.045392606665576977       27.65359179882871     0.26229167998098524
    22   1      1.9862031553682129      30.724386352038518      52.082788647971412
    23   1      1.6263396044733696      28.627535511358076      2.4949346760568254
    24   1     0.57617870669755766      31.429911584386002      2.3967786062231671
    25   1      32.066731990461399       33.52857284288384      51.979528548195589
    26   1      1.6818439349023551      36.303763309124101      51.751089751025873
    27   1      1.5465440809464013      34.475261841191589      1.9270210564166939
    28   1     0.10235008045731579      37.419545987265245      2.9208113102546744
    29   1      31.823614105437542      38.837663679229486      52.078344699066676
    30   1      1.2883705528968292      41.820832337104484      52.080932954751859
    31   1      1.8569067559544392      39.773484296794763      2.3846107018834917
    32   1     0.29787664170120542       42.49563946131061        3.08128197295196
    33   1      31.862179539315118      44.370694100081877     0.23743865225384542
    34   1      30.390755086304956      45.623048617419613      2.8589154723585621
    35   1     0.25478803722102472      44.632380297169448      5.4080160154351731
    36   1     0.40110599657430429      48.015853559724697      2.6043626257193471
    37   1      3.1729239255739183      50.040422736371966      51.986311790925463
    38   1      31.189997275092324      51.311931645286087      49.302960096718657
    39   1      1.8499634274830126       50.98323754163173      2.3385722552395944
    40   1      28.852628797848574      53.741642980113355      2.5824098200067902
    41   1      8.3011511336696522      52.986465637656337      52.115564853339272
    42   1      4.7601173630154081      2.7963008599240169      4.8040622518589924
    43   1      7.9110654496946617     0.85641341709982599      2.6765768305144655
    44   1      3.1926283898510066      3.8330007692062558      2.7778000305874215
    45   1      3.1090810490202889      5.7706479156716695     0.19863515128301046
    46   1      4.6682979570699406      8.2098075431135058     0.32558272385020937
    47   1      8.5612505331734088      6.1323229912010913      2.0422590218977152
    48   1      3.1421755438457235      8.7280790014802463      2.6282934960516822
    49   1      3.4265684945682136      11.348456904023342      52.073712686007731
    50   1      4.5752423326037288      13.869021434211849      52.017593460905779
    51   1      4.8530337116162938      11.502542917302437      2.5594841649479414
    52   1      3.0702448786429284      15.083904192472955      2.3900557810841474
    53   1      1.6002500696938369      17.780966391241854      2.4298841975692973
    54   1       6.396512046828561       16.59587160010863     0.14934908742815042
    55   1      5.1022650594322636      19.288365810696526     0.17053322972663754
    56   1       6.474503166969126      22.445829209695724    0.075802689408690407
    57   1      1.7922897814715049      23.111724918836753       2.348349598886748
    58   1      4.6819497786805853      22.818124127726183      2.4705192239979579
    59   1      4.9813134875241092      24.848919793924978      5.0733113803303391
    60   1        3.02146167211705      25.847814759801853      2.7936590573988194
    61   1      3.0625628782282233      27.407090913518157     0.12485325622755708
    62   1      5.0816058697501569      30.948527873497397      0.2289235682640389
    63   1      4.5562648998622812      28.884133109379224      2.2801166912499569
    64   1      3.4228055221507212      31.637583230652009      2.6839249787023927
    65   1      3.1265826095730813      33.519277184291191        51.9365093723613
    66   1      5.2593514130629071      36.283650956888927      52.124258724515656
    67   1        5.00056641168994      34.123805855244342      2.2962805607278289
    68   1      3.1400899338976545      36.888655820528889      2.2453486070805724
    69   1      3.1673703235059016       39.07303425158166      51.890311474725031
    70   1      5.0106111027460685      41.631900372731522     0.48871804521402784
    71   1        5.27017910273387      39.631470303729884      2.7493044685189796
    72   1      1.9399090895494644      45.349677658731359      2.4093403275139398
    73   1      3.2541370799077844       42.57964256296767      2.3058580386536005
    74   1      6.5954477854908395      48.270284378553079      2.5745809173572458
    75   1      5.1058077993122009      44.738325038370284      2.8235681816544589
    76   1      1.4823732823149214      47.186100525029687      51.922790949713345
    77   1      2.9485011750110934      53.741281272634446      49.015935506553404
    78   1      4.9764673462965741      50.207566913441582      49.589104323244086
    79   1      6.4434516457796986      50.214608466433383      5.5613628267793871
    80   1      3.3491195595098122      53.659693530318883       2.968791233950534
    81   1      8.4110243765461501     0.75130310263464506       49.44394755689536
    82   1      5.0006235588695773      0.7210221810305345      49.649783397796433
    83   1      9.6308025036568043      53.843739062533551      2.4689599394268136
    84   1      4.7125148203876552      2.8155755756679333   0.0014128156327647976
    85   1       7.725874971926566      8.4147850572811613     0.10831962259729842
    86   1       10.00284079427332      3.7723312071329413      2.3939937467933041
    87   1      11.479295744765949      6.3374093804699356      2.6321557835212674
    88   1       9.684117457248222      9.1214055242517933      2.6376454492878758
    89   1      7.9775204869118612      12.153635727939939      2.5358970755706305
    90   1       7.552546755665702      13.903345438874169      51.976005053279444
    91   1      6.6332060340170003      8.9760024524032183      3.1056289689244201
    92   1      5.9956944200288662      14.643441236140223      2.6306872184586352
    93   1      4.4354669529698842      20.750258463988612       49.43494442368177
    94   1      6.3939657604927582      19.999476231754738      2.5219786789915535
    95   1      8.1489447252781844       17.66969561568833      2.6873084070475874
    96   1      3.1965900836251109      20.480838374557766      2.5707684658037366
    97   1      3.3768578759377581      22.078620969242202      51.966171634627926
    98   1      7.8108429513235542       25.03818787214086    0.053988735139630303
    99   1      11.323548912228132      23.413736034868588      2.2832341042723892
   100   1      6.1175566893805149      25.881979237549519      2.5772746659313515
   101   1      6.0367501047742964      28.042478629645387       52.12093963515153
   102   1      8.0771001454821612      30.501410656476452     0.11906135637304648
   103   1      7.8379647977123419      28.672102839129508      2.6998967943442866
   104   1       6.557413814580376      31.712293229206637      2.8872028400258949
   105   1      6.4199099406231204      33.433626542201829      51.948661335694318
   106   1      8.1344498036532489      36.201965133103677     0.35786654272094937
   107   1      8.0456845507860102      34.416521982453936      2.7804649673509294
   108   1      6.5971009691573856      36.971756726059226      2.7814342934756726
   109   1      6.3629734431165481      38.791817555399042     0.36798506342059584
   110   1      8.0838508202502961      41.481680711428901   0.0089965701420907963
   111   1      8.3675345508913637      39.938555275957789      2.7600408154073817
   112   1       7.160511359447173      42.486309828696093      2.4993023591025465
   113   1      6.7131930241473885       44.87961899234503       0.156493739716875
   114   1      10.057495848897281     0.24078029990410996      52.053030783147818
   115   1      8.1234273407598661      45.375508904362171       3.003015506146371
   116   1      8.3392475705450426       52.79251256978857      5.6943449613354744
   117   1      6.4071193137871294     0.10100360721357012   0.0093194001429271062
   118   1      4.9839135845068423      51.966988912978223      47.193125399810739
   119   1      8.1647263884027925      51.038674385251191      2.6794670468280617
   120   1      5.0993236571050424      50.893214391281781      2.4969176405979083
   121   1      7.9863904842016273      2.8281082054547686     0.18995224742435396
   122   1      11.434312949043413      2.9000135617941392        51.9547523326478
   123   1      14.725201982340064      1.1498229299268459      2.4413616604707742
   124   1      6.3610934044415393      5.4421567751476712     0.22023641344617051
   125   1      10.882488717505066      8.4633362525119029      52.004633688183432
   126   1       9.387486877361507      11.047928441392324      52.042251930365452
   127   1       14.65714823283222      3.0013159515383183    0.040039662236663005
   128   1      11.060252802951714        8.47853452498771       5.167737586478971
   129   1      11.035919058378074      11.779181116389172      49.509399765186899
   130   1      11.088227495116056      13.952067615622918        51.9112601479519
   131   1      11.225037510821638      12.271299436296372       2.657965764161542
   132   1      9.5302447843303764      14.915492829586155       2.389117460561875
   133   1      9.9079296795226774      20.100993216431544      49.257023025763552
   134   1      12.948410727886502       20.28134528236113       49.02924411531778
   135   1      11.169791786939458      17.459977996551853      2.6816978520314572
   136   1       9.252451895509779      21.888194880923866      4.6963313577672574
   137   1      7.8048473209860498       23.39455093210842       2.562060959477527
   138   1      11.385086102984499      25.174975319560126      51.667651489638203
   139   1      9.2093727789681346      20.308885142417768      2.2651872377073454
   140   1      9.3965270711131339      25.860158866610139      2.5014643653751016
   141   1      9.6018427603710759      27.562593369529875      51.906596112607311
   142   1      11.352544167620859      30.598537587152922     0.15947828764085892
   143   1      11.166863202715385      28.658422936205312      2.5797334669545755
   144   1      9.2062657940417676      31.778339337597082       2.723553077425223
   145   1      9.5588211861348729      33.543206973565667    0.060608992436638046
   146   1      11.661796193075393      36.100698142089513     0.18335112330494033
   147   1      11.700569469342703      34.317112817574248      2.3358433048946678
   148   1      9.7494168925450939      37.106123675452238      2.6784242864415613
   149   1      9.6391691217520439      38.750598442221033     0.49142650178401148
   150   1      11.079274131759973      41.556091696830386     0.08366724105763923
   151   1      11.509975248600092      39.512708286608664      2.7330689577415215
   152   1      10.119862537947677      42.208215499313695      2.6482477852168187
   153   1      9.6625248405595148      44.394620068178156    0.083483911195696786
   154   1       8.389108810212619      47.484107884417909    0.079865628707821601
   155   1      11.337770358503375      45.409030729737452      2.5799241433144204
   156   1       9.853642946902804       48.04384081975887      2.7557741697161138
   157   1      9.8722643409204842      50.168802415125008     0.21042897300186661
   158   1       14.55705412520604      47.314739842577431    0.036737553432902748
   159   1      13.357849255727251      50.047493222927095    0.063749411186280108
   160   1      11.146926303369503      50.967753070026191      2.7961777130478649
   161   1      11.618270460895777      1.0822341108136901      2.4553654510462741
   162   1      13.180245375299775     0.11584967011743415      52.127543140139984
   163   1      20.869252591867028      3.1103462922747034      52.049283187488221
   164   1      16.250530825946601      3.6886414126805986      2.2878554901051862
   165   1      14.137278474358268      8.7876276575289136      51.681019858420079
   166   1      15.890650549617799        9.54380953833817      2.6127702974419642
   167   1      9.4766125204819005      5.5582694108587161       51.64618702621388
   168   1        13.0788077839988      9.4666281542582222      2.4480640465249621
   169   1      13.280652477139892      3.8437576116499832      2.5742590581711258
   170   1      14.339501691582811      14.247280239870616      51.847327691466511
   171   1      14.771524439323223      8.0908114935447877      5.1291382653419459
   172   1      13.002530858020437      14.923453037706214      2.3954201726488802
   173   1       12.57701346803087      16.537575134469797      52.083898578379141
   174   1      14.209450230699643       19.65398396855624      51.826536584838138
   175   1      14.393526773111113      17.706499503418868      2.2945878863105005
   176   1      12.399656577423137      20.517358734788147      2.3018758951497582
   177   1       12.88797537535236      22.325200496516526      52.031073660984816
   178   1      14.351338749550379       24.93991713312278      51.664053341693958
   179   1      14.430371977444373      23.208887021646913      2.5197457203441727
   180   1      12.858436592680324      26.069519839623062      2.3203660556292189
   181   1      13.050613289682666      27.966811951372318      51.645679808522928
   182   1      14.600464607962916      30.614014617556879      51.760233192322865
   183   1      14.616654907258189      28.566346431072951      2.3335129091297637
   184   1      12.991933939633304      31.533516607408341      2.6708475388986437
   185   1      12.975213954811124      33.495016269580113    0.092704315878814794
   186   1      14.409938571154411      36.179848860300545      51.708559522244734
   187   1      14.498335115938508      34.128989547779391        2.77953427674557
   188   1      13.100527825147227      37.011814278451169      2.7098105335892382
   189   1      12.852664505013722      39.257089277894728      0.1022633013156355
   190   1      14.627133191109806      41.667337005373597      51.904732762478396
   191   1      14.654701460126196      39.672228863078907      2.4100596016537916
   192   1      13.058512851746851      42.081768792928891      2.6801953912652627
   193   1      13.101626030228712      44.190348842301248    0.059132182157752455
   194   1      9.7550712996411182      48.478566388379186      49.467880558826451
   195   1      13.954322609461981      45.505432710910419      2.4478608493352438
   196   1       12.55632895155235      48.326072861249592      2.7287834979694408
   197   1      17.910516331743295       47.19350242203501      0.2828618537054447
   198   1        16.2046020303797     0.20888134626246577     0.12906100787851715
   199   1       11.49506591515744      47.485733649636579      52.112776693232419
   200   1      16.517219559328929      49.850949854929866       52.11873541369367
   201   1      16.189192401090793      53.507823577475932      49.539894816392476
   202   1      14.565226682113972      3.1060337822866098      46.628162447536305
   203   1      19.433117443277968      5.7406696682600176        51.8971502922059
   204   1      12.540911643919527      11.403192533368028      51.906225894499705
   205   1      16.138904673330693      5.8022162216830786      51.919566803460036
   206   1      15.922154804156584      11.328576116896095      51.994568205041404
   207   1      19.344371156409007      3.6559229728580416      2.6755479543347347
   208   1      17.386572231878436      8.7303018754823825       51.84873658855971
   209   1      22.955737364867851      11.271951405331203      46.970431671210939
   210   1       19.36610967221857      15.020709401680074      2.9451625171110734
   211   1      19.316757103959908      9.4327524858121965      2.0155241636458197
   212   1      16.029273164169879      14.910162997499329      2.3662486149894542
   213   1      15.964182230389611      16.580352849253494      52.054638781429809
   214   1      17.018864625038592      19.815709560412799      51.887953408556754
   215   1      17.449322530651717      17.469493391087884      2.6414309812328769
   216   1      16.146614306254246      20.219176986195073      2.4354687506127903
   217   1      15.895826354676453      22.272376503941885     0.12156071768408563
   218   1      17.349852204813423       24.75277219908029       51.81540098030424
   219   1      17.490181798504942      23.166628228575913      2.4192959419504203
   220   1      16.173148878161115      25.963586306467899      2.5675774972921617
   221   1      15.878197743722062       27.63646755612702      51.854576361919456
   222   1       17.51587880286305      30.396511196185926     0.14194844228976067
   223   1       17.24354908250611      28.607691520906474      3.0027590995590003
   224   1      15.972465101853613      31.542594532352897      2.8477324129435648
   225   1       15.94285189550191      33.340557963576529      52.128325530188945
   226   1      17.704913336342265      36.271359712164411      52.097048934219082
   227   1       17.56493686623557      35.950346444940536       5.406601136993002
   228   1      15.986459813253262      36.827290361448625      2.4083530760168133
   229   1      15.847915284048558      38.622385057717828    0.025684976534543144
   230   1      17.621735351456074      41.723694753682061     0.39379864556016242
   231   1       17.61899908270648      39.573555582061736       2.373801025567905
   232   1      16.012872646617289      42.472318287253962      2.8921428622040342
   233   1       16.20755055395605      44.463481011049183     0.31082156217204454
   234   1      16.017897374525148      47.771260913730792       2.775089406160105
   235   1      17.643658910816711      45.622304132649283      2.8424780163019085
   236   1       18.16240333254774      51.277511309215619      2.5605328514776882
   237   1      13.026912225454842      50.360993664594425      5.3960244555221655
   238   1       19.71669381099171      55.530423050222048      51.933519939279016
   239   1       16.27646920444651      53.678385190474735      2.6042978983098504
   240   1      13.096691033031684      53.913648119685632      2.4034745642746698
   241   1      22.783143517768835    0.042204940281676755      51.970382846486494
   242   1      24.327158563016546      2.9960307614020194      51.889894647646265
   243   1      21.305279632951962      0.9986920292182212       2.222211640224848
   244   1      20.650381009461807      6.5547531907767302       2.230127603965125
   245   1      19.992945664042804       10.84718206316046      47.372773186773308
   246   1      17.636114550334227      12.175366484555539       49.57600265326618
   247   1      18.097824464033117      6.7092174225694876      49.066315555408863
   248   1      20.922188951114087      8.3057355176295431      51.790793249992035
   249   1      20.644196930206451      14.601927506210457     0.30461585350426279
   250   1      22.269132360695821      14.782127844554056      2.9502217607332413
   251   1      22.574822913129708      9.2446796533451359      2.4012949595554791
   252   1      20.947749129205789      11.927011106445132       3.069672616057153
   253   1       19.04101499560543      16.741402118028279       0.268533519238838
   254   1      20.233198363502304      19.154668583737219      51.834864145752036
   255   1       18.94637456594986      16.864173514573043      5.2041459606365166
   256   1      18.846806097154801      20.433258262694395      2.5836036069715633
   257   1      19.205008093214246      22.171719996754724       51.86338552579479
   258   1      20.587711625156064      24.874792653399446      52.082540858810745
   259   1      20.550350106318998        22.8397252640166      2.8439964621563774
   260   1      19.242657053804162      25.858109343056149      2.5399385271191814
   261   1      19.220584683011946      27.667886053121645    0.091592818179711974
   262   1      20.758728098122528      30.292347442521049     0.04211780543298238
   263   1      20.850209853906271      28.746624907683994      2.5616023199900289
   264   1       17.44731373028656      33.761302509441663      2.9215518709923991
   265   1      19.582905891116532      33.027383496449197     0.14560835613944839
   266   1      21.044004169694958      35.772032947416591     0.28865684716066614
   267   1      19.008040567494703      31.271665057562409      2.5467289638718769
   268   1      20.572386535439541       33.94667805554554      2.9071012668605731
   269   1      19.521694629861464      38.933543262194164      51.966556763549455
   270   1       20.82826025221803      41.714203193536306     0.40627821420387444
   271   1      21.070034154049889      39.487933842911097      2.4590329520054763
   272   1      19.508637956017512      42.367862178117051      2.7745654999360929
   273   1      19.362232687499855      44.504283509425385     0.55140885987727439
   274   1      21.028400892219029      47.700856806716821   0.0001274949239535999
   275   1       20.67153903089752      45.354343176375437       2.954716426057177
   276   1       19.07020123215808      48.210258003198291      2.8750166228603415
   277   1      17.969327781540976      53.194928273392982      52.094077349556017
   278   1      21.288040552425443      52.819932062702243      51.947889675139891
   279   1      20.905609608779521      50.706116648580405      2.5434396675786002
   280   1        20.6100432447729      52.825466369811146      5.4929526203532815
   281   1      22.464654114292983      4.1790530726525672      2.8245002816918592
   282   1      22.602345841007015      53.580913875839997      2.4530599449964834
   283   1      25.645101265193553     0.11287387671983554      51.752829032114867
   284   1      24.204813319716553      6.8243391421361936      2.5562771445085746
   285   1      22.403414105788436      5.9875284755271707      4.9696979199515647
   286   1      22.372056105393618      11.214898427498083      52.092403492769492
   287   1      22.584168339192271      5.4411065268857977    0.054130711914534203
   288   1      20.825158604546296      8.5972649247294175      4.9433664058725233
   289   1      19.399101600676669      11.461489418010046      51.975261020587709
   290   1      23.712457015242293      14.248757187991616      0.3867861886886127
   291   1      24.268634053255795      12.083773806236799      2.8951461147634059
   292   1      20.778494794029015       18.03320967410523      2.7561722492780056
   293   1      22.386800213311226      17.327698519446503     0.17076679709888068
   294   1       24.15153786380862      19.661468462825844        52.0197939023451
   295   1      23.738776999309135      17.390657410472176      2.4651605663432075
   296   1      20.419058734928619      19.435590903493306      5.3193476047047152
   297   1      22.333241336782475       22.11983688281591      52.124398209414451
   298   1      23.701484386564612      24.770717501014893     0.17902052749957525
   299   1      23.987134547880117      23.616751343072718      2.5313680754813119
   300   1      22.513433716606489      26.112560399727098      2.6888338865201189
   301   1      22.736016587877469       27.67496686062842      51.947640784611714
   302   1      24.016392137281386      30.200696241697859      51.779895317057338
   303   1      23.641838736803198      29.119179922360367      2.2581656738887199
   304   1      22.095052831057085      31.531464385569752      2.4504082473358317
   305   1      22.782405056801622      33.063977770890169     0.18389846706388402
   306   1       25.79542516603885      33.079419617447826      52.097996638111148
   307   1      22.672375853728415      37.026345061980031      2.4250037111928178
   308   1      22.418497499352021      39.332985368253439      51.845407323951093
   309   1      24.443696720367466       41.51958768456295     0.28213635061169395
   310   1      24.105397877250855      39.748107188193458      2.5924148831488352
   311   1      22.554130284772135      42.653756335629531      2.7795238199993042
   312   1      22.577665525237354      44.913201257491892    0.060630526627586986
   313   1      23.994043090289551      47.500089109674967     0.04369917876516119
   314   1      24.170230110338444      45.631054402433172      2.5855340349195552
   315   1      22.423870564189006      48.454506313686451      2.5536919283533366
   316   1      22.875358583363628      50.128862788287663     0.18729573141529912
   317   1      25.912580262592684      53.878639570215547      2.3024168123758044
   318   1      24.402557526326124      51.099802271041973       2.876164045623026
   319   1      19.574328111484324       53.68034366848633      2.7559582352928462
   320   1      27.116392852066863     0.80033052686556749        2.30373961652012
   321   1      27.495196507264829      3.3084846844913498      51.759254804464611
   322   1      29.125414416203313     0.10755119163669098    0.080025002320314453
   323   1       25.50171660614529      3.9357266767996801      2.7817552514957766
   324   1      25.771671409484767      5.5808122954652024      52.053065476347392
   325   1      25.691242488723191      9.3012064477193768      2.6650650467097892
   326   1      25.793103470605264      11.537808870664582     0.53010569121276307
   327   1      29.185090643588225      11.014187079009966      46.710092356696656
   328   1      27.621861699566875      13.894129018586382     0.29088737867643055
   329   1      27.610190993002824      12.171464179446817      2.9308734237733063
   330   1      25.799373646463575      14.720880768272728      2.8026918444510422
   331   1      25.627709311062862      16.523340999019602     0.10922195205211259
   332   1      27.543304388823252      18.714734558418982      51.860599735219495
   333   1      26.986544268183657      17.507971448685307      2.5235938284178667
   334   1      25.848735211327213      20.257443071648201      2.4654163080023901
   335   1      25.507652018125455      22.255886053176784      52.013256177346364
   336   1      27.483121172301939      25.178055500213752    0.011636720175980808
   337   1      27.631468825644156      22.636691858135652      2.6208034832486247
   338   1       25.75651188304041      26.204030609976996      2.9580700080548952
   339   1      25.373522681516743      27.388373848662933      51.939215648817864
   340   1      27.673780579871753      30.509287279148751     0.13129218568350379
   341   1      27.705390393906971      28.432724587088721      3.3402232305931574
   342   1      26.084080321258558      31.125672373281375      2.2198484125822198
   343   1       24.18778350795278      33.599745347633018      2.6994849027371832
   344   1      27.412954679553312      34.318595455337274      49.623654333659267
   345   1      28.871703847318127      33.255871729241292      51.936435223234312
   346   1      25.763540977761281      36.639100712800264      2.5774584068581299
   347   1      25.574590663642475      38.764403684247739     0.33155540914288406
   348   1      28.740815559466551      38.799653594387969        52.0688620811883
   349   1      27.372481988338826      40.326940107565292      2.6456595208166811
   350   1      25.547334204867582      42.856556925992024      2.9060527217380798
   351   1      25.626069470366886       44.29722563692831     0.06380691142876134
   352   1      27.263228198824816      47.092163397485976     0.28126009268339541
   353   1      27.149431374744182      45.420265536395135      2.7731558427759531
   354   1       25.42986254580067      48.327571412764435       3.103223351180584
   355   1      25.807836876873377      49.975560930522143      52.113997174140827
   356   1    0.072699423713252609     0.12667072381635827      0.3771249926971954
   357   1      28.815851821044532      48.159127196088271      2.7651146048041619
   358   1      30.274622249816584      52.640889303125903     0.23317075312893104
   359   1      30.528979681287801      1.2592317022592225        2.91299126158968