dump/Mg_1000_20/steps_1 (written by ASE) 

3980 	 atoms 
1  atom types
0.0      32.100000000000001  xlo xhi
0.0      55.598830921999998  ylo yhi
0.0      52.130399999999995  zlo zhi


Atoms 

     1   1      31.898849005732632     0.27190278797236128     0.46804193056306242
     2   1      1.3968958013773223      2.8099400809261952     0.31912200375006078
     3   1      2.2585531947445601     0.96580056172202366       2.791688585850653
     4   1     0.36300742935946972      3.5879090901339548       2.640563361681592
     5   1      1.6899622174590154      6.7780977149374753      2.5595307709528767
     6   1      1.3240670963285808      8.2551729609325708      51.931146572389707
     7   1     0.11460109399025747      9.5213532036289834      2.9558099238161679
     8   1      28.954450063553441      9.3736101083361927      2.5244129909337998
     9   1      0.1190586541056184      10.830481045838589    0.014881330343352324
    10   1      1.2714927019076747      14.132318057098081     0.17886187201189993
    11   1       1.481241539299369      12.297988859219631       2.577642248755379
    12   1      31.867038720900183      14.850540599319071      2.8616484749280242
    13   1      31.795572055053213      16.720867853229663      0.3461101351148555
    14   1      1.4929827435750702       19.79001498829674      52.075208286767939
    15   1      1.3376570952921982      18.016081922753695       2.427994929402379
    16   1      31.632191330609324      20.446494166027424      2.4462204665611629
    17   1      31.771839500921576      22.644766520706302     0.26820036119841417
    18   1      1.3329192115492501      25.005674691265494      52.055793940058166
    19   1      1.7708898040237637      22.940808938110862      2.3533292733948659
    20   1      32.008948130272763      25.641310171152483       2.406154696675721
    21   1      31.788074745874329      27.344547618726324     0.23452771101838035
    22   1      2.0315156337598017      30.531729356100637      52.038474958190804
    23   1      1.7333182155235518      28.916660016668104      2.5245366447365822
    24   1      0.6613311560120233      31.619037570325382      2.5133328577149934
    25   1      0.5817909576042728      33.510392044787622      52.109047389513591
    26   1       1.675542307496658      36.320854870962407      51.952697986594075
    27   1      1.9013929111740746      34.527655618266429      2.4473440651117842
    28   1        0.21388381142481      37.262360053516353      2.7757203876800731
    29   1     0.38108774463484096       39.23990323579924  0.00070267328996806162
    30   1      1.9698630306264058      41.684587270879341   0.0010909218889893942
    31   1      1.8082511296205688      39.989002573673019      2.8483258072246724
    32   1     0.23928540971598139      42.911859569150288       2.499415951394115
    33   1     0.13820828075736827      44.291616925913225      51.966718160198354
    34   1      1.9756513178997852      47.585424223891444     0.25821666502405527
    35   1      1.8807277159250069      45.549442552179691      2.9578437272158196
    36   1    0.092428381819664479      47.897835840940267      2.4276359676913515
    37   1     0.12220504651450352      50.118587369183849       0.145409607511649
    38   1      1.4865063587639777      53.181356986743566     0.13190973283889049
    39   1      1.8924543620375764      50.471755386023517      2.8767342345117801
    40   1     0.15988997159910598       53.43125548277888      2.7311119669271835
    41   1      3.2568021401185403       55.51983621473736     0.11141863430467944
    42   1      5.1457732432171914       2.761471181537023    0.024551660229821099
    43   1      5.0639657217704492      1.0789753154255388      2.7527295894471502
    44   1      3.7194993324019778      3.7387889790924307      3.0669221251561725
    45   1      2.7842228017050381      5.6249315785951239     0.17178964335571437
    46   1      4.4527004363607796      8.3270918957079374     0.12214347257481115
    47   1      5.0452974505303549      7.0604504912363959      2.8342418081681049
    48   1      3.3035694347593165      9.6882889675181474      3.2680561391385305
    49   1      2.9831276983558856      10.806174317764514     0.18515454648349847
    50   1      4.7142745791932308       13.51070835230421       51.80681210735515
    51   1      4.6647237259815535       12.38549622678031      2.9332439801401349
    52   1      3.2362776994686588      14.779597123377815      2.6380182280638986
    53   1      3.0613722651140427      16.578624552645095    0.065239838693148006
    54   1      4.6340158403837037      19.773518591300821      51.783504563088407
    55   1      4.6187019984524227      17.729408416377691      2.1894883937782934
    56   1      3.1337330736286315       20.31761780526341      2.5027614013902779
    57   1      3.0595371125920852      22.115525597885455      51.800590093527397
    58   1       4.484647312001921      24.664320553944933    0.095812771332627902
    59   1      4.7056429916729909       23.13993682783811      2.5335932153270142
    60   1      2.8097402126920694      26.055356774150201      2.5319974000887671
    61   1       3.030978458622736      27.639539656774524    0.095213650686019766
    62   1      4.8867527685768577      30.522699471881026     0.27063090952085606
    63   1      4.7022392470929537      29.216121925695756      2.5995108913131815
    64   1      3.4671442615624413      32.016494667038209      2.6818993553863208
    65   1      3.4218106941245239      33.407868616949827      52.087185145648782
    66   1       5.019688716468929      36.331018880314645    0.085031571764754899
    67   1      4.9669234579482398      34.352552135100773      2.4494324337770572
    68   1      3.3267945810558026      37.077448903164779       3.076960069840355
    69   1      3.4367118732498181      38.896439988670828     0.46710577997241093
    70   1      4.9749243680815747       41.93845628729391     0.19567612550118102
    71   1      5.1030780149056865      39.783682753392355      2.9627641629130714
    72   1      3.3820801119474573      43.016058073151832      2.8590690625033401
    73   1       3.705198062248467      44.780247751263289      52.021858770582995
    74   1      4.9953089082912294      47.710598702401327      52.065175307232579
    75   1      5.2872309165669336      45.111426952413368       2.565139970723326
    76   1      3.9504354544820175      48.154300763931211      2.4975794036852723
    77   1      3.0630675630607751      50.880519713418678      52.087834800858708
    78   1      5.0820100345833454      53.166360336624749       51.72463633763703
    79   1      5.3337077223300078      51.046769828335158      2.4104253978511174
    80   1      3.4249104656374989      53.517708238285628      2.8196546521615455
    81   1      7.0290918224802263       55.28844777299993    0.099009926233687068
    82   1      8.0161821163448881      3.6087344324225472       52.05166304121002
    83   1      8.7399837673083169      1.7932447764943527      2.4002095642186827
    84   1      6.4002437641686072      3.8594802865951636      2.8349018194708981
    85   1       5.830816578154268      5.8052430516698124     0.26463587862866977
    86   1      7.7290180770689139      7.7969407201919125      51.788761780265425
    87   1       8.215771549467302      6.9299720961715634      2.8655697767763169
    88   1      6.7683875035089347      9.5972512122597724      2.8632460487367291
    89   1      6.1511989897065611      10.940347953590196      52.053947082252336
    90   1      8.0016058380062933      14.007268741654867      51.944246007481098
    91   1      7.8218322115703511      12.615863737849043      2.5519683645470623
    92   1      6.1592035772180393       15.06943674604404      2.5335020679993328
    93   1      6.8144490201948713      17.001227957251253      51.635107620679406
    94   1      7.7753525464158102      19.946335039447263      51.584437812312224
    95   1       7.736299087049967      18.313054072951992      2.0631551658715206
    96   1      6.3394494556551502       20.97658382845912      2.2702982679841104
    97   1      6.2948151786576982      22.400729290578269      51.613246480712718
    98   1      7.9769331295897299      25.045264540878005      52.067080729646037
    99   1      7.9924097412723922       23.56288529512646      2.2864027487985483
   100   1      5.8879643080900408       25.94224855459732      2.6470333465170226
   101   1      6.2174371719047432      28.046820251495472      51.856253803821346
   102   1      7.9210147056792257      30.744509045685934     0.20792146742725953
   103   1      7.6725153547120444      28.408498476624889      2.3048053454032966
   104   1      6.5457013684037015      31.769624756765182      2.6652232253717343
   105   1      6.4545222076496191      33.694665935676269     0.17322216221628089
   106   1      8.1955393675739643      35.983980664136062      52.011992182555069
   107   1      8.0499704017484923       34.17329061861205      2.8840202330685631
   108   1      6.6170756737799197      36.796051232021341      2.5646205027964677
   109   1      6.4062603782541903       39.01056049562218     0.28525497037849207
   110   1      8.2477734542250492       41.50485349857901     0.35777346495314039
   111   1      8.4514360283438741      39.758833488055956      2.8185214787575652
   112   1      6.9042443244808434      42.577042106949406      2.9679001086972532
   113   1      6.5606750505644049      44.494390379617705      52.118188555312464
   114   1      8.2168055189276838      46.871129744390799      51.970273133856395
   115   1      8.6877731778678609      45.375992919082108      2.2497994756271011
   116   1      7.1699645411652293      48.055552723864267      2.4814729141529646
   117   1      6.6431892140803761      49.928898834015335      52.001222052765897
   118   1      7.8456605120026586      52.479636003482852    0.024852671376123368
   119   1      8.4563608073716132      50.964237698689587      2.5782784254628126
   120   1      6.4715077294542604      53.667447298262893      3.1659600243697961
   121   1       9.928628396192499     0.54022605250342137     0.07852747663165878
   122   1      11.360324133834705      3.1952269287044244     0.16711107340802708
   123   1      11.529182805924481       1.223574116852244      2.7017335660941373
   124   1      10.156327974142204      4.0110537351020028      3.2538467665038531
   125   1      9.6637837124194377       5.794025161099932    0.041420270548300893
   126   1      10.922696668820253      8.4953258646323224      51.897034677689874
   127   1      11.150579795519183      7.0223750288975557      2.5621815131426238
   128   1      9.5663420968774684      9.5575449898929374      2.3274572316007665
   129   1      9.1603510197204567      11.197241970217631      51.896770207087258
   130   1      11.053012079128509      14.095844240744594      51.739304271934841
   131   1      11.121260275099869      12.190980688213671      2.8313508248120258
   132   1      9.5284023066155115      14.836969943914546      2.3291722233598677
   133   1      9.3617045462412278      16.825545417607881      51.941687697199612
   134   1      11.280286276285366      19.651499363670069      51.956498739308095
   135   1       10.79148651320574      17.956064475113955      2.1913153316553422
   136   1      9.3538444501038782      20.894140830584245      2.1919353278409166
   137   1      9.6222424800343127      22.298009131290723       51.64890244770443
   138   1      11.293809744878025      25.164437843738487      51.649739841114794
   139   1      11.472088055945607      23.246341221084144      2.3887117903701083
   140   1      9.4180136437450166      26.009510185812761      2.6840965701148272
   141   1      9.4960616722847817      27.905720232004697      52.123551208077679
   142   1      11.168818371080098      30.966205042463354     0.67515161923837574
   143   1      11.058090408553785      28.836605069979409      2.9785594513478819
   144   1      9.3845593465143047      31.547356788581986      2.8097418868486779
   145   1       9.514027583256965       33.32901893902816     0.33538918659908201
   146   1      11.572731357725777      36.354674678363367     0.10125359715011967
   147   1      11.011212906264557      34.593365358924167      2.6956880124057805
   148   1       9.602541765023819      37.028360986515878      2.1747761493254139
   149   1      9.2009510644002876      38.712220569383227      52.106434137032601
   150   1      11.243381316784502      41.196178252778957      51.932237537118702
   151   1      11.541411734974938      39.828284577206176      2.7581169933945886
   152   1      9.7620647249790888      42.602538777859223      2.4045334909889697
   153   1      9.9207826826591159      44.322500288827115      51.951926081223171
   154   1      11.014320273989215      47.219642691068898      52.123409437967148
   155   1      11.603458759263992      45.505351615759537      2.3016297994742709
   156   1      10.341009775388658      48.365680694712943      3.1405032951952339
   157   1      9.4961919454835861      49.496595950487688     0.45749437833424106
   158   1       10.86770041655134      52.668883882192119     0.37875560907806116
   159   1      11.113748877235453      50.839084313202491      2.8986322646139473
   160   1      9.6608143335301424       53.92341370056927      2.4919186502680781
   161   1      12.753737058133558      55.512973400688004     0.27675520906754419
   162   1      14.275006181273787      2.4664950132917665      52.028116606062106
   163   1      14.429842298081219     0.78754274760823373      2.7277282944144541
   164   1       12.98186334935145      3.8512641773095555      2.7256328509772239
   165   1      12.486081971795224      5.6275937235250257     0.12679858296454061
   166   1      14.585368678062311      8.5344977786055018      51.915554780159319
   167   1      14.621188941201915      6.6559388332937557      2.1782418247689468
   168   1      12.588337442674312      9.5337103308429274      2.0222429441166367
   169   1      12.793958079838596      11.465854456081599    0.023428115361799041
   170   1      14.576351455858321      13.809572516455457      52.062618008801167
   171   1      14.485978242337904      12.065204843729523      2.5734329972748564
   172   1      12.891406666542927      14.697246668563471      2.5250608937990986
   173   1      12.459710969598653      16.423404804672543      51.990665315691544
   174   1      14.615125867350093      19.732316982100702    0.070547497769064299
   175   1      14.007812113496978      17.534919232193658      2.1601064914918906
   176   1      12.681682596980702      20.016905134680528      2.6668876149012406
   177   1      13.131764970371236      22.070081766702611     0.21496173223644821
   178   1      14.623306369679387      24.784656515707312     0.41960551412077424
   179   1      14.652909027858581      22.976112323982438      2.6930329733735472
   180   1       12.57719968733241       25.90323898371366      2.3427647667150584
   181   1      12.834976262075468      27.759105970814645   0.0098155345100751409
   182   1      14.560235545227233      30.327231183056778    0.093861318384249687
   183   1      14.011069086072386       29.17863517187547      2.7550516495449338
   184   1      12.860947329423043       31.68274326170355      3.0056221693250058
   185   1      13.064040405735897      33.822734288433459      0.2335240116590811
   186   1      14.814645745022402      36.245713618220798      51.796649998498246
   187   1      14.804975491291442      34.563390111409362      2.6639671283562234
   188   1      13.427731971215307      36.926916883531568      2.5865170512220694
   189   1      12.955246986447646      38.889296904792154    0.076562035127913472
   190   1      14.840747371896574      41.314654139977527      52.085343494261203
   191   1      14.531187216487156      39.582236884665122      2.6922320687563182
   192   1      12.564466541401591      42.541295926804224      1.8411224183550492
   193   1      13.213455021198023       44.91097171501908      51.835308913208827
   194   1      14.770053135424259      47.240235575106368      52.100034373233953
   195   1      14.582194911368733      45.539169461356636      2.3842924419979159
   196   1      13.316947025405183      48.074371551455336      2.7100960272868582
   197   1      12.823133176203312      49.766230194774238     0.27569079331012569
   198   1      14.253175996709059      52.574685332285362     0.24196744643144655
   199   1      14.413272867392699      50.667556553708636       2.802107124532899
   200   1       12.59738863642785      53.784983032693596      2.7170831249664777
   201   1      16.070462189678935      55.574318906367324      0.1466221800920586
   202   1      17.711669213083699      2.6759465426507778      52.047219645450042
   203   1      18.265319084459254     0.91826154397635851      2.1438988183736702
   204   1      16.010191403028404      3.7185539791180675      2.2169432160252649
   205   1      16.369817348787386      5.5352441172823825      52.105569749063733
   206   1      17.873053694983184      8.5267615454914552      51.927931541288771
   207   1      17.814575028577408      6.7039322290704568      2.5231764020562313
   208   1       16.09345854424366       9.172893414193279      2.3406014243691842
   209   1      16.110857898378871      11.026212692345482     0.22444113949754302
   210   1      17.726538099746154      14.037124981585739     0.13712006285589992
   211   1       17.88987201416305      12.163714812815456      2.7484256612123126
   212   1      16.343683300788914      14.909471616338939      2.2824393801418155
   213   1      16.042116149661325      16.478832877315174      51.910042673568512
   214   1      17.692208953926094      19.352508912749482      51.928263702259912
   215   1      17.753628175565268      18.099043950250877      2.4551869763839607
   216   1      15.968040647020299      20.552067752118685      2.6816239050172905
   217   1      16.372420979801866      22.289329637204105      52.099555461461144
   218   1       17.75634849713709      25.116301376458363     0.15676191633036113
   219   1      17.533681902127281       23.51605625571105      2.5335445327690245
   220   1      15.819705006578246      26.189986878509746      2.9231156767433606
   221   1       16.09824968815866      27.927256845592343     0.15793025508657063
   222   1      17.596843437406438      30.806950245675804     0.20246071954446482
   223   1      17.050096590229138      29.004699515846358      3.0430847646068027
   224   1      15.905331807790489      31.781087644494402      3.0642932309617583
   225   1      16.109565371601402      33.485832189777632     0.24974078342721534
   226   1      17.947525386629657      36.149265530270647      51.845863847438501
   227   1      17.631358393111405      34.071491209967917      2.6352734351402862
   228   1      16.546389278763275      36.768051464816068      2.3627233984222373
   229   1      16.446885423862472      38.882301604159409    0.064250583966126248
   230   1      18.018955800464475      41.666478535514003      0.2713280287891176
   231   1      17.496804379654357      39.978223473557364      2.3053678839997001
   232   1      15.409422762596575      42.423060387421934      2.8945527113791321
   233   1      16.143229186228616      44.446284163868768     0.16156778071899594
   234   1      17.560423639258257      47.035480927962006      51.957422924708688
   235   1      17.839734756878968      45.449790909993943      2.2763621259641305
   236   1       16.33823059216531      48.264439300419397      2.3160304546234851
   237   1       16.03254954163236      49.840493611605019     0.25791050709233848
   238   1      17.316659099111899      52.790821687934347      51.825546364731025
   239   1      17.983558597271394      50.820076417440148      2.7338384444290837
   240   1      16.414268860422858       53.56424062263153      2.2413664137819396
   241   1      19.409609218143956      55.413734267462942      52.061101753354514
   242   1      20.581775182819154      2.6619858151125975      52.109691653266815
   243   1      21.194022909066838      1.1049369953812662      2.4585124442967468
   244   1       19.04443430392632      4.0093972237263182       2.451209660888785
   245   1       19.75811519457929      6.0904068393305879    0.025701307543120024
   246   1      21.350147312343502      8.3712595783156676      52.094304466019501
   247   1      20.916337663085798      6.6463351547021903      2.6403163558139715
   248   1      18.987653075579658      9.5776475137860047      2.4217949653064239
   249   1      19.270643196183077      11.257135287631122      51.860009084230192
   250   1      20.958246971757134      14.153439435555955      0.3769434482351588
   251   1      21.115430738157553       12.06441792748759      2.9288305467752229
   252   1      19.225005793335104      14.802076489899321      2.6960084659232093
   253   1      19.449032153236875      16.887615393154707     0.40744675078800036
   254   1      20.881688877159394      19.840162210310446     0.37502824014054897
   255   1      20.624266120300479      17.855528714883668      2.7640484798621432
   256   1      18.977271344262704      20.845672057106565      2.8139182035963635
   257   1      19.345167149021925      22.456793459595925      51.984074671796392
   258   1      21.010161291443286      25.235206118693835       51.79601158668207
   259   1       20.68246978706064      23.364303434087144      2.3354989595137203
   260   1      19.166520807182756      26.227839367976248      2.5707067394164684
   261   1      19.232200646079253      27.900973447832392     0.20034358798032953
   262   1      20.911709488880934      30.672199690428279      51.826344913127706
   263   1       21.28291868345271      28.565955461674967      2.4673042685078235
   264   1      19.822163428079804      31.456948178812141      2.7165546237357421
   265   1      19.479264079756998      33.376160759133732    0.080633079119103085
   266   1      20.761407732695833      36.625166852544133      52.027851396597718
   267   1      20.796441238436508       34.46753939536093      2.4416008326848049
   268   1      19.437162441488208       37.22854972255022      2.6388915546542333
   269   1       19.49801617291439      39.209403329049266      52.129024403704243
   270   1      20.836176882196494      41.324474782020999       51.80160388154146
   271   1      21.150772470637431      39.782403207401799      2.3524681615286003
   272   1      19.226168662372551      42.652123909822315      2.8078480001348076
   273   1      19.334202760954046      44.345276568757832      51.976213923729894
   274   1      21.082939489825648      46.797254244402083      51.806134817244775
   275   1      21.227996149426357      45.457316595602279         2.8381587016542
   276   1      19.949388392468759       48.09928213651483      2.2708136743876901
   277   1      19.266702716252059      49.927100535312789      51.970665375621962
   278   1      21.257388529298257       52.67498339713255    0.014274337959206509
   279   1      21.138774240048075      50.848373010434933      2.5479970284510229
   280   1       19.51080319926761      53.766136995685265      1.8249521506494324
   281   1      22.464808607134511    0.017556123784817051      51.715154177483143
   282   1       23.77339908931711      2.8065881104489359    0.016686721358507104
   283   1       24.10682224160017     0.79126457496093439      2.3471055721655159
   284   1      22.012090905792725      3.6749186767397819      2.4381190491239506
   285   1      22.763869515128821      5.5622161962747434     0.37224437537380439
   286   1      24.331194477438867      8.4032748297213153     0.25096779853598039
   287   1      24.447306119071694      6.7651896790256929      2.7528674964668127
   288   1      22.476027151461128      9.3244737870959504      2.6378418083998074
   289   1      22.676378856346155      11.337480754139671     0.38793199540227902
   290   1      24.075567530709147      14.032422611471855       51.81815635252903
   291   1       24.09742498388076      12.133899619608533       2.665610367728664
   292   1      22.454790753799525      15.137704810351361       2.580940367432893
   293   1      22.566363977458163      16.840726040688164      52.063276476515796
   294   1      24.067761766641141      19.291630134740835      52.027902145349167
   295   1      23.863478571178817      17.784650498290272      2.7518293512313532
   296   1      22.265824700818619      20.710757020740218      2.8683769274889439
   297   1      22.552702153982327      22.308926327309464      51.947109979017632
   298   1      24.088763540406422      25.141449869363967      51.929387703275964
   299   1       23.87521237016578      23.225520759235412      2.2675430401120544
   300   1      22.463293124950081      26.000750819635456      2.2960056313135442
   301   1      22.261537604436036      27.591899210520918      51.968134190205838
   302   1      24.224031807624936      30.359128722527419     0.13637817533766394
   303   1      24.143185600366987      28.541368023457622      2.4331556614420511
   304   1      22.992196495099442      31.734811599248211      2.6724900820092774
   305   1      22.463932003015639      33.333059797998594     0.23063813377450426
   306   1       25.90526073834344      33.239477439265521     0.13490455021268427
   307   1      22.832557332814751      36.880364257057522      2.3030083184137515
   308   1      22.787984238361439      38.729632235703278      51.948137344148847
   309   1      24.177909027101965      41.579108767207899      51.923425478466228
   310   1      24.345637775770072      39.511108076437203      3.4259396441756018
   311   1      22.758834016927246      42.398401986220307      2.5385885266976769
   312   1      22.522224256204467      44.185062298528514     0.31974718897135274
   313   1      24.411952763394556      46.440887879050464      52.095594404282565
   314   1      24.298948107209903      44.822759136449925      2.8787171653012185
   315   1      23.169313730685317      47.812515550229222      2.4441268637058573
   316   1      22.575297282464057      49.553830445528817     0.10983044939227572
   317   1      24.573751701641132      52.205115431253056      52.033353572834606
   318   1        24.1888034722685      50.938965511722081      2.5816310525170922
   319   1      22.629002687710045      53.994914365016029      2.4760986419372482
   320   1      25.666799147372654      55.179519843743513    0.052920048800225036
   321   1      27.151850571163187      2.4860084235058331      51.914274013199631
   322   1      27.149741826067221     0.39725683105161608      2.5055517301871468
   323   1      25.204607477490779      3.6006678792120961      2.3597078425488687
   324   1      25.647853378928232      5.7201046860389253     0.26854998559181642
   325   1      27.712588540975478      6.3650599296500445       2.720165207446231
   326   1      26.016101118325814      9.5506775327045013      2.7605963430132565
   327   1      25.609723217728348      11.235758073573871      51.828170933238503
   328   1      27.265271980856987      14.104821388747556       52.06873367155324
   329   1      27.258320289639403      12.143590889192792      2.5198553141471494
   330   1      25.584012994163672       15.01640486467976      2.2507486044520828
   331   1      25.636599531937975      17.071498830875903      52.016298162973023
   332   1      27.105061412708665      19.752990935942446      51.661222346844241
   333   1      26.998262969823667      18.054566892825783      2.8355690293925591
   334   1      25.466608534955128      20.577829507379153      2.8889663030321886
   335   1       25.15823171825495      22.241402923473338      51.521213731245723
   336   1      27.170056748138254      24.874430993320601     0.14544547427585083
   337   1      26.808947479087941      23.203336544930554      2.7813822598206501
   338   1      25.499940275357154      25.969104105847947      2.6671516019544712
   339   1      26.088279607669516      27.585191440885268      0.1110036295096446
   340   1      27.281754729678433      30.932447593080841      52.098487311826261
   341   1      27.288817283514781      28.752650568417746      2.5235748415724766
   342   1      25.930601765779461      31.404808811781546      2.4685396500780032
   343   1      24.786744307462513      34.163533891805528       2.660590283372033
   344   1      27.216165875828242      35.972732686984024    0.051965901143833773
   345   1      29.703586996179407      33.693945130226638     0.16396996495132793
   346   1      25.891443551806319      36.914510885329385      2.7412351271596584
   347   1       25.96113833859102      38.855084127297161      51.984379710773581
   348   1      27.433837041380801      41.333250245627852       51.84022854508941
   349   1      27.804861320314775      39.644307292615288       2.535136465779622
   350   1      25.949289614761618      42.179785011761872      2.4274564995097503
   351   1      26.003881346072156      44.224474857549836     0.18516192688713692
   352   1      27.721801744653401      47.529889132589098       51.96881712122098
   353   1      27.489352977092448      45.224255585462529      2.8275043909444899
   354   1      26.024118042197397      48.278238357388069      2.2284938556625393
   355   1        25.4285110810577      49.230066904433301      51.819105967807396
   356   1      27.297879850353912      52.891280230548723     0.31641773825752567
   357   1      27.234373172167626      50.883144173877255      2.6317196500647291
   358   1      25.698988741859839      53.542627605168562      2.6849820015096872
   359   1      28.869183144513951     0.23488664797617237      0.2287681235862625