dump/Mg_500_20/steps_51 (written by ASE) 

3980 	 atoms 
1  atom types
0.0      32.100000000000001  xlo xhi
0.0      55.598830921999998  ylo yhi
0.0      52.130399999999995  zlo zhi


Atoms 

     1   1   0.0070932987021658433        55.5627956124777      52.077138444252348
     2   1      1.4802549375994205       2.455545391525666    0.071524368261112234
     3   1      1.8832602444944662      0.8037014161430307      2.5516354845384241
     4   1      32.080347453626629      3.4833352781893439      2.4504240654260476
     5   1      32.034182155805937      5.4708619387204394      51.983743984124651
     6   1      1.3415372469985976      8.4539443317497192    0.064307070604268851
     7   1      1.4281328548457748      6.5765738090258781      2.3319387352758039
     8   1       31.88805766676133      9.2592477442304766      2.6496504279253354
     9   1      31.837681297523964       11.39341548393727     0.17276879111495583
    10   1      1.3122763513541844      13.618166956855697    0.024442105547938898
    11   1      1.5372712134440571       12.03172475612463      2.7924984971853015
    12   1      31.995790656840175       14.77606023762603      2.8443412358424687
    13   1      32.083999785628684       16.51261322015915     0.18601197635620487
    14   1      1.6736913693608386      19.345224405195431     0.12617505498171913
    15   1      1.7259590452120062      17.688701139334768        2.41790648358353
    16   1     0.15933572564246248      20.427013189657728       2.572461555748589
    17   1     0.29233064905551054      22.227977799118168    0.053307942986208473
    18   1        1.72107352000009      25.035788770102304      52.031162555421162
    19   1      1.7715658676921533       23.27073245604134      2.5367724144703234
    20   1    0.038531575446872537      25.837123890937367      2.7054293022234175
    21   1      32.042249118643497      27.572046716395192    0.092943583954637365
    22   1      1.7456586359643451       30.77594900886761    0.045890120037380321
    23   1      1.6228155556499044      28.691537601450889      2.6534262323848541
    24   1       32.09354189662983      31.377089266642017       2.612497079784394
    25   1      32.097328091091661      33.300698894067473     0.16254608684431884
    26   1      1.6350592469751211      36.041146187591046    0.014018358865041316
    27   1      1.6472974548272885      34.455639667401499      2.5476787930124258
    28   1      32.014910501168863      36.929859162597793      2.9744896993424792
    29   1     0.28894584918346256      38.788267469514423     0.23712645431226217
    30   1       1.805801565116252      41.383237471624668      51.967987090179804
    31   1      1.8872028444555236      39.928581216100028      2.4778529075396816
    32   1     0.11402801663055309      42.187380163670774      2.7554293357867405
    33   1     0.12525284328334274      44.229089661834344     0.11044091779307365
    34   1      1.3890997620941468      47.176164042631179     0.13478797295981571
    35   1      1.8530225450277304      45.227757681264883       2.532544433433312
    36   1      32.051760777416355      48.365032211421116      2.5816735343729964
    37   1    0.041900490669076466      49.927489198230695      52.026898677726486
    38   1      1.8048840923562433      52.747798639867256      52.049654294846533
    39   1      1.6473245260190699      50.735565075955527      2.5591578259492582
    40   1     0.20002921928392312      53.512796028235201      2.7525496948331893
    41   1      3.3163531868815013    0.034121834243004329      51.971549622980007
    42   1      4.5789945559338747      2.7554822080080212     0.17807230862374146
    43   1      4.9329815023827965     0.72087520681615858      2.5097449286316107
    44   1      3.0066164411709591       3.607715177380971      2.7210994709849539
    45   1      2.9555456185006865       5.367240453466664    0.095557264565947278
    46   1      4.6498684253288713      8.1532161588015626    0.048562225052163351
    47   1      4.8509041590576123      6.5069673452256414      2.4592565742578283
    48   1      3.0367896715203786       9.261045994932438      2.5552777630843178
    49   1      3.1969392184731444       11.02537093293096     0.17528188125665811
    50   1      4.9731862289447539      13.849912240081679    0.072693874439088105
    51   1      4.9337528868871958      11.900076250040259      2.6043496687138803
    52   1      2.8428371913546382       14.70418186534649      2.3367139332912084
    53   1        3.17480661729534      16.335262323737293      52.005991358671203
    54   1      5.0664547895088985       19.50918141700209    0.022611515950098766
    55   1      4.7040566174028955      17.333303055555671      2.2274168798356193
    56   1      3.1482480067023095      20.604603834773613      2.4797073586097387
    57   1      3.2345836349247654      22.345171585215194    0.066022004994457456
    58   1      4.7537386116719995      25.229793084847735      52.062123264844821
    59   1       4.791547965266278      23.106613882232235      2.4890325414617829
    60   1       3.347879869149466      25.720442226406259      2.5545535060397482
    61   1      3.0392752315424914      27.766411723174151     0.25955672215697334
    62   1      4.7653456917311674      30.729573842137128     0.20680933860495121
    63   1      4.7784296257848657      28.333126009298329      2.7989705828370406
    64   1      3.0773878579342204      31.358301549365127      2.6551606624613311
    65   1      3.4483937637684394      33.350584154049741    0.044946892138215858
    66   1      5.0235019199759972      36.206625977442407    0.036823286729687314
    67   1      4.9985317649854055      33.969535367418587      2.4906789595933945
    68   1      3.2436384083925516      37.338830598194896      2.4646871676486044
    69   1      3.5045312433055944      39.034091687300943      52.024303741224287
    70   1      4.8796472895169369      41.732773223623362     0.19543243819388728
    71   1      4.7451931137443735      39.940041587446167       2.833302540626172
    72   1      3.2473320305554281      42.557986790120871       2.626868372671872
    73   1      3.1544080808965456      44.390297053921003     0.13471371247314762
    74   1      4.6853043594628936      47.213751432772931      52.022963176536528
    75   1      4.8333050983368846      45.379404783765281      2.4349986705437048
    76   1      3.2182644196047496      48.263183911928571      2.4487972339590436
    77   1      3.3092035836960823      49.934490284335951      51.972651460768056
    78   1      5.2534307428226912      52.785380730060403      52.072275985919617
    79   1      4.8041290848947797      51.048218224571407      2.5358993150561284
    80   1      3.3508125567035085      53.711048504165362      2.7719735184809857
    81   1      6.5300573303949303     0.30678450462076606      52.065160213226306
    82   1      8.1121523658212045      2.9608009356972511    0.076078771979558285
    83   1      8.0288385423353308     0.87134357090473735      2.4115649871676403
    84   1      6.6931671218508608      3.4701869942802523      2.3913974516939636
    85   1      6.3222452394873745      5.4748763867746337      51.898422764338271
    86   1      7.9784484026337008      8.1419558448507665    0.025839943870982065
    87   1      8.2535795004385424      6.2934715621481434       2.316190505396551
    88   1      6.4371076228604833      8.9905692286833876      2.8577574616656447
    89   1      6.5460464013997584      10.749001230508627     0.41565195404829913
    90   1      8.1629107060255404      14.224680180871752      51.994016202355027
    91   1      8.0354793949100305      12.039243526470804      2.8373828309507396
    92   1      6.3961884157957813      14.618631977102243       2.664529781974919
    93   1      6.1643031266501529      16.414308566851265      52.065707187729188
    94   1       8.098340935772141      19.335885907910043       51.92410387733451
    95   1      7.9971693052778852      17.419848434334547       2.411816276946039
    96   1      6.5028244902444632      20.333798602284492      2.6730059917894882
    97   1      6.3777404270637916      22.030722152903266      52.041992223655221
    98   1       7.766065568452289      25.043988836747538      51.912525967690918
    99   1      7.9178311327291402      23.036359190546914       2.402118284867413
   100   1      6.3723645292054778      25.858876372793919      2.4059292699340773
   101   1      6.2703556554800004      27.781822114336936      52.052654505449063
   102   1      8.2124877144975255      30.923742686109374      51.956998187544727
   103   1      8.0284882270182614      28.578039551593921      2.7285221191036375
   104   1      6.6075064524787468      31.134397411702771      2.7083726244513446
   105   1      6.3629975024908818      33.397876782916519      52.012751093918141
   106   1      8.0060124910634514      36.063848260737771     0.16303251513265385
   107   1      8.1625472067254137       33.98715038070938      2.4471745765366086
   108   1      6.0904136578070087      36.983161598671636      2.6415208130760361
   109   1      6.3855244870682224      38.906132936164028    0.090964371820340367
   110   1      7.9372073237297558      41.639564499108886     0.10759889363403301
   111   1      7.9844219580536393      39.780866820378726      2.5343403758718996
   112   1      6.4100164147218317      42.530401999111554      2.8669845393309177
   113   1      6.2714494992591323      44.739745055135742       51.95322684877187
   114   1      8.0019175120176609       47.48486063615271      52.019954535602253
   115   1      7.8623517329635231      45.319598240007366      2.6381597882622794
   116   1      6.3764776797245428      48.324676528134688      2.7549626242446492
   117   1      6.3379803139398287      49.872544459690907    0.089178211675869992
   118   1       8.138776038941014       52.44080003364396     0.08533235200119324
   119   1       8.043855444338762      50.974747840263333      2.6672018077518582
   120   1       6.450953410541814      53.851222200951256      2.4468613841571196
   121   1      9.5818261687971287      55.329490942567354    0.082875071408180456
   122   1      11.130631995557746      2.7584975717863331      52.001953804791903
   123   1      11.287638077349087     0.75876605310973422      2.3636592703114041
   124   1      9.7656365930748592      3.8025601759525753      2.3440078855969939
   125   1      9.7859307320498807      5.7170479580022588       51.91715139342697
   126   1      11.226503373696779      8.4521400742062696    0.027147633482461488
   127   1       11.25222174793312      6.4916110921819445      2.3510250901014653
   128   1      9.5870894183124502      9.3029649470176565       2.393178534073511
   129   1      9.6192783706239613      11.382191650910082    0.012737833480023797
   130   1      11.379363656570705      13.854004023250212      51.953285308927178
   131   1      11.374337714014031      12.006064549847673      2.5326112493200554
   132   1      9.7240995060127542      14.784801808320266      2.5689524000345312
   133   1      9.5683680848700945      16.925656874480801       0.156149388450874
   134   1      11.417826160303051       19.62149831359606     0.09354956521766486
   135   1      11.159560696450008      17.564651507049561      2.8142830336431581
   136   1      9.7183049210968768      20.213379927485054      2.3598973180019946
   137   1      9.5760963606641649      22.384466554553171      52.013200608560403
   138   1      11.095657389355006      25.264437051867453       52.02315625578548
   139   1      11.248532270578682      22.988839152629328      2.4209267529410905
   140   1       9.594283019465438      25.771347707560192      2.5426994889960506
   141   1      9.4782551273978815      27.947025418512798      51.891597746839146
   142   1      11.513643052508968       30.84079945481945    0.021784121173326551
   143   1      11.044131897538996      28.761062186636497      2.2579038901987238
   144   1      9.6933068071414272      31.476904760168178      2.5993587214815759
   145   1      10.020101427477536      33.552253424810104    0.034206754036038067
   146   1      10.983288582543894      36.263566057183752    0.072954703902753271
   147   1      11.362747578670803      34.384791924144366      2.6191063944892194
   148   1      9.6198331605560039      36.954048837812465      2.6491629001037547
   149   1      9.4749451786681789       38.96770805728039      52.124933243295757
   150   1      11.157371472691588      42.133147420572527       52.12723324226797
   151   1      11.166630338680369       39.61205819000638      2.7194873528654937
   152   1      9.4784806148498806      42.619843580171995      2.5822633511928665
   153   1      9.3511660141550799      44.505783616388904       51.91246165182929
   154   1      11.324594462655531      47.186633375821479       0.113123386205184
   155   1      11.142719919787829      45.171289747649325      2.6665524350393661
   156   1       9.408970160307355      47.794803716808005      2.7707131790701114
   157   1      9.9367882644761352       49.85736188227169     0.16632150886419339
   158   1      11.483835933075083      52.617534623296365      51.788608530976724
   159   1      11.321846730984328       50.85890597094096      2.6715766168755897
   160   1      9.6159153294754276      53.472738723431135      2.5771885244855874
   161   1      13.196997085165998      55.171378778720431      52.048060307676316
   162   1      14.555014666263903      2.7702129554973078    0.030026912733334386
   163   1      14.418006296461099     0.87545895562216813       2.517940454438286
   164   1      12.813417633533513      3.4667594564991759      2.6875529975774097
   165   1       12.81207880107984      5.3164891981219808      52.084658322963421
   166   1      14.415507412164038      7.8746033346233677      52.047233932181506
   167   1      14.216776837584282      6.2949426243203188      2.4249059599805172
   168   1      12.845133794265935      9.3003776205788053      2.5019280113786522
   169   1      12.952411306381395      10.994084886462412      51.897402833085856
   170   1      14.596295189727751      13.698356298245438       52.11471658853818
   171   1      14.371611691589749      12.007357667232752      2.6967476356248765
   172   1      12.860861872952116        14.8905132217289      2.4991726973228454
   173   1      12.763422703564133        16.8196529686461      52.119752237343931
   174   1      14.709495401478263      19.426754816234904    0.012652250492154939
   175   1      14.491574112582752      17.627471820263768       2.483398206001096
   176   1      12.999142774706383      20.394651664253772      2.4049811528939835
   177   1      13.088360151850521      22.316189380679802    0.036647908459487032
   178   1      14.588824014613738       25.31797542948302      51.824951362653621
   179   1      14.277697843476052      23.235024140846903      2.7293302436871296
   180   1      12.846611734558071      25.998847943128357      2.2531153293520823
   181   1      12.880591152219194      27.935377104120246      52.076137863491908
   182   1      14.589028327055335      30.585140560952564    0.048079252754700784
   183   1      14.545515298834601       28.82926671321993      2.4625032462152365
   184   1      12.720948269023333      31.573458975948284      2.6641111835273303
   185   1      13.002985787481411      33.252781214374856    0.026119113167773794
   186   1      14.251743371204105      36.321999193031559       52.12343212640814
   187   1      14.690880090182031      34.069790814449071      2.7211378313410015
   188   1      12.925038552696849      37.014890475499605      2.5765351118698359
   189   1      12.662774447652419      39.084018746283746    0.061771850440958787
   190   1      14.499223272603324      41.698546145540988      0.1483205478699863
   191   1       14.41904938199878      39.693097296856479      2.8411602932236057
   192   1      12.996836669058974       42.38504161669497       2.729927238015522
   193   1      12.980538066899472      44.584916634030797      0.3308574402991406
   194   1      14.755161965678134      47.150301663071474      0.3087125320759298
   195   1      14.377149766246168      45.299536115405658      2.9503841435347287
   196   1      12.786767792990165      47.794555644451542      2.6812451686814329
   197   1      13.016430091169431      49.924283938590399     0.09333111452959196
   198   1      14.562352316946249      52.506390482203486      52.122746412817101
   199   1      14.344047190356765      50.901143840261732       2.615034963737934
   200   1      12.814810208081139      53.695186159670627      2.6454618464869166
   201   1       16.28047737081798    0.066438281955617892      52.005378056349947
   202   1      18.235690518547703      2.5547644098708875     0.47255956670095645
   203   1      17.690248062672858     0.85096823291241885      2.6327338574644976
   204   1      16.056210031922134      3.7179762582433988      2.8553021285041513
   205   1      16.190168895320728      5.4916160076644616       52.10127552696698
   206   1       17.77279558137452      8.2823607579597951       51.87349425177235
   207   1       17.38137813837394       6.724024444704197      2.6003765804006345
   208   1      15.854574230449387      9.2755322624916747      2.5205199938272425
   209   1      16.171267945217156      11.003744146856418      51.958919173319778
   210   1      17.918805992847503      13.771610169601589      51.917834807704075
   211   1      17.791613370669317      12.274593611287612      2.4529819034185767
   212   1      16.182457120547671      14.826357595861975      2.2922626466475329
   213   1      16.320261523730235      16.681742299196593      52.104330551471271
   214   1      17.850350388930263      19.431554130551227     0.15468740552246046
   215   1      17.636205827218816      17.584255592075202      2.5980604501975937
   216   1      16.047925290087228      20.521787650329532      2.4999736802533805
   217   1      15.938920061382353      22.381293051920075      51.917743357041246
   218   1      17.882935140537075      25.111440920780755      52.003345686491507
   219   1      17.802636586382977      23.351194605898474      2.4772943932715905
   220   1      16.192269324429589       26.13856356257735      2.2486620536048925
   221   1      16.389047106621657      27.689615306189065      51.915439558196596
   222   1      18.004467240287205      30.616876030862375      51.980608929649648
   223   1      17.671867771668737      28.660881070879274      2.4839912023861395
   224   1      16.239348574351567      31.504350168038542      2.5638359122379129
   225   1      16.324725208063764       33.26005681585653    0.091942188674200412
   226   1      17.599819819813238      35.966813368806022     0.12211921606904903
   227   1      17.866419182036704      34.228535022351707      2.4277118033753928
   228   1      16.088037181409298      36.829224888165726      2.5018002785692999
   229   1       15.86458119675172      38.691873182731214    0.036793112940856382
   230   1      17.718832470992485      41.596013482465899       52.08782894212095
   231   1      17.649825769345004      39.597172783482755      2.6125164038795612
   232   1      16.036517600138556      42.349220352658591      2.6864506714839353
   233   1      16.174189884694719      44.260027895391218      0.2859890008866427
   234   1      17.905045218507809      47.229616810513434     0.14161394243319461
   235   1      17.429689071363818      45.217878553314669      2.7412936793571228
   236   1      16.378841218577072      48.144901186792836       2.650060449786015
   237   1      16.334392293931195      49.944580476742971      52.107728479550758
   238   1      17.582724239541818      52.794372811798205      51.985021929817052
   239   1      17.710668128641696      51.161167665586291      2.4883247593162618
   240   1       16.14726043734321      53.736365857765001       2.337155057434011
   241   1       19.43928397647058      55.390216071728112    0.020505627163344316
   242   1       20.97833253578699      2.9756569686122964     0.08083791724338027
   243   1      20.863453529347794     0.95251365338515659      2.6269245745634588
   244   1      19.184761787857102      3.9617373180434305      2.7818025662556689
   245   1      19.429053972895478      5.6789790512183833      52.104552841801848
   246   1      21.022923135700402      8.4100698624932466      52.021751155408836
   247   1      20.791869522173577      6.8077366336686653      2.4888866049045193
   248   1      19.108810947820231      9.6122340384279941      2.4353768987854063
   249   1      19.245756284717373      11.139690533170297      52.011104883286549
   250   1      20.822745907921707      14.257625874068768      52.075969919713913
   251   1      20.850444193405298      12.251376876210575      2.3569101974379718
   252   1      19.479826184098105      15.024777701979973      2.6469648819793647
   253   1      19.303589617533426      16.689956553127832     0.18231589885820373
   254   1       21.10993127053576        19.6168703732659      51.867873934917554
   255   1      20.792449040401699      17.933842989696455      2.4358363985398639
   256   1      19.328372223560798      20.490564203007381      2.5159034545354002
   257   1      19.507451315218052      22.282759599978196     0.18252021707673136
   258   1      21.086127783732223      25.198006684937379      51.973733429844465
   259   1      21.042135646127242      23.192637563671838      2.5072947784666906
   260   1      19.612255219366016      25.865061580258196      2.5318447283088252
   261   1      19.571938572965653      27.871806658110174     0.13507230519184393
   262   1      21.134089676556378       30.55191915931136      51.988180469034866
   263   1      21.331266083569218      28.924572468666003       2.388378701569454
   264   1      19.409911569652682      31.269866955684947      2.4250727043541671
   265   1      19.546532037826257      33.294388633816546    0.086654236186433753
   266   1       20.94350240105851      36.226595242593255     0.11825168715534899
   267   1      20.960587397623669      34.127301763763647      2.4584127360222983
   268   1      19.418147693606674      36.852337742287212      2.5498865412477465
   269   1      19.385371859618022      38.971130711587648    0.077137944823078022
   270   1      20.759265327346977      41.751159109327375    0.044806625484302254
   271   1       20.90271652438603      39.787351665812629      2.7202859473291565
   272   1        19.1351039107753       42.35676586473565      2.8270394408709323
   273   1      19.382152553443337      44.507815865209807     0.18558337931355509
   274   1       21.04815829701818       47.29903288900254    0.025167659129886756
   275   1      20.669204956103552        45.2838416224551      2.9351560063167295
   276   1      19.494173526566641      48.155182392683884      2.8107318033331925
   277   1      19.278255266724621      50.057677875339287      52.110629349508073
   278   1      20.968581142142799      52.805686351654906    0.061529115913920629
   279   1      20.947388516623448      51.115152723683302      2.8177891030994906
   280   1      19.292757224386367      53.739405422056485      2.7356671984470009
   281   1      22.678254519110485     0.27096039253978726    0.036059710723025065
   282   1      24.455554185307339       2.876067935357618      51.976414124878652
   283   1      24.088549530265453      1.0417426177700275      2.7627090808478214
   284   1      22.658147368653765      4.0883492687208118       2.709720697413776
   285   1      22.386804665150219      5.7502254535795005       0.131038337731754
   286   1      24.003505275893065      8.6134578919062541      52.125036950121022
   287   1      23.950400322225796      7.0078803316750324       2.828364391708905
   288   1      22.388228030866564      9.5473046947263427      2.5973457683323398
   289   1      22.456284115044451      11.414712774313019      52.118250992496378
   290   1       23.98806509642003      14.281957876183787    0.045789352281245831
   291   1      24.206035930747454      12.044736813504549      2.7200554368427059
   292   1       22.39144393102131      15.077851914503949      2.5569852756858396
   293   1       22.60529762658183      16.779939036447658      51.960124778751236
   294   1       24.28896923829954      19.247570427125581      51.835889935789616
   295   1      24.181724877247184      17.795003077591307      2.6539035025919264
   296   1      22.569304895560784      20.488248793643596      2.2057703222685752
   297   1      22.788597446723319      22.416360553580052      51.877185729060123
   298   1       24.33809110756431      25.083161160109817      51.949324179693733
   299   1      24.321854525861028      23.009744864004837      2.5417385010690512
   300   1      22.644476364164102      25.741120305010561       2.570509272254847
   301   1      22.698160008902043      27.810847014340748      51.798430497166905
   302   1      24.483959613492264      30.878001753263355      51.977849645721548
   303   1      24.474166463725762      29.051651428326839      2.4400516085758812
   304   1      22.831280971081114      31.485412586829241      2.4148635714104594
   305   1      22.717567731859781      33.523254042067386       52.09208288790601
   306   1      24.015786563310694      36.242887169238173      52.126357908079868
   307   1      24.037205936719189       34.37972303025574      2.6099502416107327
   308   1      22.551759268279429      36.869992339561215      2.6382969528286799
   309   1      22.406728519129842       39.02071680858726     0.13413228912194314
   310   1      24.080675985935887      41.889902259213777       51.99137156701763
   311   1      23.939341969656628      39.504974915362986       2.608533646184636
   312   1      22.347841415074274      42.455304820985752      2.6687689404669812
   313   1      22.433933950637016      44.386444261101857     0.29431765720595254
   314   1      24.190671111471584      46.815093730004811     0.29579723366197541
   315   1      23.958710438725525      45.197667253621042      2.6930521965812151
   316   1      22.740974787414196      49.990758132573724      0.0787527071099937
   317   1      24.341748702471008      52.963625780016045    0.082731945127441489
   318   1      24.086444432677677      50.971860823063089      2.5821022282256871
   319   1       22.66862619393714      53.896296799708551      2.5526220978834693
   320   1      25.823228194893435      0.1871280662460077      51.856516203815232
   321   1       27.32406760463158      2.8892620923997603      52.080707835855449
   322   1      27.631797361279503     0.94763350019063974      2.6921831147035178
   323   1      25.712705842206486      3.9137342174594223      2.6243457273055122
   324   1      25.558520585042423      5.5532325273550915     0.30435385820714406
   325   1        27.0751177154815      8.2627504847219999     0.22179553998019144
   326   1      27.253693307333297      6.5538417889500158      2.6551020259943927
   327   1       25.81623383918717      9.4229956247127582      2.7792590832031636
   328   1      25.865486829594836      11.013509140848598      52.115800936601978
   329   1      27.421448606628331      14.115934908318678      0.3193445772181307
   330   1      27.567550111967488      12.105637738494311      2.6476394822790281
   331   1      25.699988708962888      14.748409451439112      2.5899138126946837
   332   1      26.018537299939389      16.840242007542937      51.944884550564232
   333   1      27.516232783902776      19.486824891846531      52.076961765711054
   334   1      27.286374396393061      17.637025715432664      2.5483061421439763
   335   1      25.813415654132903      20.318397924550659      2.5798452968056611
   336   1      26.067786156534101      22.073332903571892    0.082448887777208796
   337   1      27.468171482123061      25.202796598776661    0.018561055752072588
   338   1      27.522073553759817      23.153538173940472      2.7702820886963861
   339   1      25.742511344990394      26.214372412750798      2.5451111932493866
   340   1      25.926550019976823      27.901467565017263      52.032668107755278
   341   1      27.532602685061168      30.730421933101763      51.660825607584243
   342   1      27.541203252463529      28.935218670378692      2.2990144207965573
   343   1      26.023956183293933      31.726808942577581      2.3062315001670672
   344   1      25.782777776555363      33.417101183116536      51.895140061445552
   345   1      27.239227523565781      36.115242691101137     0.17016724882868189
   346   1      27.550692392271685      34.175320669481962      2.4684149456774178
   347   1      25.757243834308873       36.71305719642104       2.631524898123855
   348   1      25.481172821453924      39.005910673148428      51.968647564063879
   349   1      27.387988042362217      41.592646177416796     0.28252368940973033
   350   1      27.094274334418049      39.490405097316582      2.7771819905216768
   351   1      25.417193172359624      42.338723525328064      2.6531439499949627
   352   1       25.88963458700923      44.310620095698404      52.061145952813668
   353   1      27.166049730417139      47.263258315600787      52.118926744622108
   354   1      27.074950491581053      45.262783939590712      2.6561210459404823
   355   1      25.872775260947304      47.990498172432815      2.7470998605203132
   356   1      25.800088476110314      50.201664920462399     0.22347467325446538
   357   1      27.228835685428368      52.808632500639511      51.993464215877729
   358   1      27.370971807751268       51.01707271329991      2.6174114164019531
   359   1      25.889920255438309      53.943369871910406      2.7143299677268637