dump/Mg_500_20/steps_61 (written by ASE) 

3980 	 atoms 
1  atom types
0.0      32.100000000000001  xlo xhi
0.0      55.598830921999998  ylo yhi
0.0      52.130399999999995  zlo zhi


Atoms 

     1   1      31.953711816842517    0.072893970383977699      51.988365158039187
     2   1      1.5087029279452995       2.891497351909186      51.876880797095495
     3   1      1.4077201585882322      1.1140496638865125      2.4056349371393706
     4   1      31.946599714570873      3.9601551089787996      2.5274937350347986
     5   1      32.053586852549543      5.3433983646178751      51.996158380969106
     6   1       1.423938286008354      8.3060665028126213     0.12520763194019138
     7   1      1.5291703917780088      6.5110350868378584      2.5819545566441091
     8   1    0.038754761321082042      9.3187426870859031      2.8118742257611973
     9   1     0.16424094620032378      11.201278953808551    0.086217130101659212
    10   1       1.634832357257711      14.029798628440165     0.21259927632419748
    11   1      1.6034586488670246      12.311073127902128      2.6446829114361465
    12   1      31.885609313013809      15.095983802504708      2.5402336936299479
    13   1    0.047318297940516452      16.975249695802241      52.060383763940436
    14   1      1.6370502695622149      19.517577301095059      52.036524536736025
    15   1      1.5590315548915465       17.67518991852145      2.5667232633774439
    16   1      0.2949807845553678      20.348717860281237       2.601884822109839
    17   1     0.02960344146053014      22.299000010881521    0.057814598708735496
    18   1      1.5901233603995137      25.370794819672277    0.068216879397383329
    19   1       1.638778082994373      23.385965175319431      2.6404542708344616
    20   1      32.005939273515985      26.105118259656617      2.5537479195267787
    21   1      32.029818260689922       28.08322618437273    0.053827018238284827
    22   1      1.4729110316690839      30.869815502199984     0.10723910464909844
    23   1      1.4350443992485944      28.819153116335592      2.6559652511819674
    24   1      31.865737405802431       31.60633949536922      2.6302229581691763
    25   1      32.016293246571237      33.541757594025619      52.110747706924741
    26   1       1.551842465638545      36.190428377894015      52.055167863867474
    27   1      1.5092455709475674      34.542028422105922      2.5684650446397157
    28   1    0.014729473151023924      37.246173686867365      2.8143766828598409
    29   1     0.11320295677147098      39.113765009786491      52.013063792764989
    30   1      1.7940566059393341      41.672755784712763      52.049402402522716
    31   1      1.5120681029950462      39.896417104501118      2.4179362259024426
    32   1      31.984972645140228      42.577604197726934      2.6369457499714049
    33   1     0.26030878906356342      44.278658464095358     0.14734807999731683
    34   1        1.51288458913918      47.021874534353238      51.930317143725055
    35   1      1.6158854815282828      45.210702735863045      2.6696029613884575
    36   1    0.014612399612909378      47.988793327834571      2.3909697772951124
    37   1   0.0024987446839790086      50.307487674674668    0.010895903026487141
    38   1      1.5772915555161424      52.909836434687755      51.995651656315935
    39   1      1.6366085658218961      50.656464078717171      2.5464578301399801
    40   1    0.027124681216506637      53.737211633785961      2.6472227359404861
    41   1      3.1016175726025992     0.22933234106803888      51.901669914208931
    42   1       4.633904705574718      3.0284374445003714      51.834135021355458
    43   1      4.7697750981852938      1.0251624294118127      2.3695863214924873
    44   1      3.1064458287028733      3.5669114580620507      2.5763338648852572
    45   1       3.207088372761715      5.4579970844583219     0.39050069628687617
    46   1      4.5460408183643652      8.4150367968208748    0.012138148585290855
    47   1      4.5760058765288516      6.6925853071273602      3.0106465451961606
    48   1       2.973131060210584      9.5675349613661247      2.7482933822012852
    49   1      3.2515445364393876      11.285345237641364     0.12500337701711453
    50   1      4.8461483212804382      14.072789206324305    0.054848417109513437
    51   1       4.897408933146127      12.313148759167335      2.6449640974812714
    52   1      3.1581488040014518      15.026335812941937      2.5576777677129146
    53   1      3.2728739288064372      16.775490237549885   0.0088533757476238883
    54   1      4.7378479417021095      19.744931943574688       52.06344556002675
    55   1      4.8094997028880799      17.610596310650273      2.6198099291958967
    56   1      3.1808443980525354      20.503051568378506      2.5713665367593022
    57   1      3.0740907722931801      22.541238288705348      51.993226983598142
    58   1      4.7691347612055317      25.344647226012373     0.01777453619946566
    59   1       4.970965534684276      23.265498484756083      2.5522187437777313
    60   1      3.0591075607811287      26.183730840457851      2.6435012993216764
    61   1      2.9301607953184035      28.352835853060252      52.098060781637891
    62   1      4.5250569489510832      30.989314644681826     0.13897190741574167
    63   1      4.9321173905423681      29.050505826385628      2.5966766821806138
    64   1      3.0812010702617423      31.529653221309907      2.8771675172668649
    65   1      2.9136645082133263      33.477730521643615      52.115282444711113
    66   1      4.6860624991058133      36.036501898273876     0.17983930148337823
    67   1      4.7543616439824259      34.023396916692008      2.3788177541159001
    68   1      3.0280461063050477      37.206632008176825      2.5576246763719461
    69   1      3.3402559897172277      38.787097702659104      51.958831650773803
    70   1      4.8850602370253124      41.532559284019328    0.083555809837514414
    71   1      5.1004379798909829       39.77649628929435      2.5858932521355875
    72   1       3.491474645251281       42.49954288312486       2.580634869095479
    73   1      3.3182809753707523      44.538469071150644     0.13700200290117229
    74   1       4.832665252048348      47.223909533787911        52.0052717853833
    75   1      4.7533842865395108      45.404991301960308      2.7791092701551379
    76   1      3.3453332781259837      47.879738690779774      2.4242537006398814
    77   1      3.3426061754133047      50.222641900435434    0.063096491889820638
    78   1       4.778741915579845      52.968393247524844      51.953591585143769
    79   1      5.0540938193186609      51.002685984995459      2.4811101105740287
    80   1      3.0575892657745403      54.064924536159765      2.2580340496655746
    81   1       6.248246309477115     0.15228927936118905      51.917818586330569
    82   1      8.1127442994652306      2.7776319176425397      52.056594653716338
    83   1       7.861317817728807     0.91868797653283674      2.4057330498232177
    84   1      6.3816384539274154      3.7099206435447893      2.4430747019062053
    85   1      6.3246003306509433      5.6473831164072017    0.091941372388095105
    86   1      7.9498650862025135      8.2049849684795646    0.064759872141362682
    87   1      7.7744999308009382      6.4898081392124132      2.5345190381803353
    88   1      6.1663196955893085       9.263761397827583       2.656621375302521
    89   1      6.3421017340628207      11.398772401982455     0.12825547152778896
    90   1       8.152516946802276      13.850923106311708      0.1705729100713754
    91   1      7.8595940759831011      11.956052317125195      2.7213816100829562
    92   1      6.4128238241908093      14.975675427742235      2.6851207711965586
    93   1      6.3184837376802836      16.844769469528753      52.027134229609636
    94   1      7.8804913205977787      19.635746921763158      52.101076288291338
    95   1      7.8341323765041802      17.693662275048879      2.4057976196282254
    96   1      6.2109160635555369      20.469700513790166      2.6072067598393454
    97   1      6.4946739695454836      22.609990787772375    0.057912566672395922
    98   1      7.7802403064333783      25.352408148292298    0.063179942763321548
    99   1      8.0668591095537501      23.328784604897802      2.5332687718255777
   100   1      6.0697552043332959      25.989898620042261      2.6647613775812675
   101   1       6.407548896562818      28.405553925520891      51.778672577565146
   102   1      8.5643025362458349      30.800991566564942      52.049464939758479
   103   1      8.0221358791236188      28.811894702966068      2.5383619890793852
   104   1       6.761281867158468      31.579793283286321      2.5685132353719036
   105   1      6.4753042074397484      33.437972800860642      51.952246173194972
   106   1      7.7163700201234056      36.279221348575547     0.16669546134411151
   107   1      8.2122223070778446      34.296605656950675      2.5252845939024851
   108   1      6.1534215550167159       36.94420097174423      2.7789385346358753
   109   1      6.4172098974097054      39.125520276172665      52.105155528109968
   110   1      7.9959997523984603      41.586947966434821     0.12571147325149679
   111   1      8.1498848239524762      39.824631884966493      2.9375283390810543
   112   1      6.5871534160313434      42.608585124938216      2.7929818430563058
   113   1      6.2079591593913515      44.253999456995572     0.20799597413204526
   114   1      8.1346663463173439      47.163570064386612       52.01574317819675
   115   1      7.8536611095292432      45.407680958589744      2.5521006251146936
   116   1      6.6624047769674162       48.23893433425296      2.5479403094687925
   117   1      6.8328235518097413      50.003929360441603      51.732396046668903
   118   1      8.1908469054053654       52.85427313295952       51.78943744673191
   119   1      8.0725939626213243      50.943090039278545      2.4541104966499563
   120   1      6.3986246282171386      53.724920500137792       2.296357439228125
   121   1      9.6114603627761657      55.390475299708349      52.096821614925673
   122   1       11.04534008489254      2.5489062993598748      51.990036605829303
   123   1      11.167562124703119     0.91711255385446389      2.6825941149788455
   124   1      9.5725686020125398      3.4280180165551934      2.6220663745151551
   125   1      9.8086959867398598      5.3619774022397229     0.18581501191929675
   126   1      11.197023457944818      8.3276617713330214    0.041730418487732374
   127   1      11.175745074197263      6.8031126246386515      2.7181835785102728
   128   1      9.2550950986689973      9.3713148278624026      2.5296919482905267
   129   1      9.5414879633911394      11.058906912964073     0.12282478602671965
   130   1      11.145001032068736       13.86895097514512    0.043998934231658571
   131   1      11.011378609978223       11.90368391196977      2.8575555455568855
   132   1      9.6002806833288243      15.173835454318635      2.5139519818279394
   133   1      9.5985879442242688      16.596257057076119      51.875545285337495
   134   1      10.962540833252113      19.600701287778332     0.10294165756023198
   135   1      10.772124536544958      17.857221024524268      2.9641517821500449
   136   1      9.3806926312272978      20.663738772944289      2.4245543592340764
   137   1      9.3214996799384338      22.543495117178896      52.077530129895081
   138   1      11.190885515050557      24.896197123970648      51.988894855269471
   139   1      11.122190243966507      23.020691298713519      2.6291661551120731
   140   1      9.6493283172640378      25.756505887322088      2.4571470772392332
   141   1      9.6783553080868536      27.648698242747283      52.077202978625536
   142   1      11.431175804504393      30.248882324803187      52.082811174454868
   143   1       11.21042475705053      28.552591927322624      2.6602976266147849
   144   1       9.998355500985511      31.334509547359076      2.8193251284060334
   145   1      9.7437775971999798      33.573186950104187        51.9958196295429
   146   1      11.139490706652861      36.274995853864041      51.915780142574306
   147   1      11.425803165881993      34.292647394978964      2.7968073412186416
   148   1      9.6816669320020807      37.115330057659314      2.6847706366762019
   149   1      9.4391838094464937      38.912318402852911      52.017606093122019
   150   1      11.096036433269743      41.616290328973641      0.1222513239452974
   151   1      11.185620780451519      39.817415431716029      2.6896572275788642
   152   1      9.4315863134536517      42.592057050546238      2.8548092625647259
   153   1      9.4918161444553135      44.387959931079301      52.106550049315793
   154   1      11.171236229717678      47.680786201986173    0.014545122724558974
   155   1      11.103631656602229      45.526684343548908       2.494170587985225
   156   1      9.8482333949553489      48.320538526663853      2.6383058713532548
   157   1      9.5616203967206932      50.203283926480758      51.985940905187157
   158   1      11.184795028559403      52.641795141734057      51.970543792288638
   159   1      11.318054448686514       51.05727880426106      2.5396671229236909
   160   1      9.9949827134479623      53.709721044897265      2.6536588416370321
   161   1      12.884719079833072      55.304637302687077    0.038203211651960285
   162   1      14.505195947994068      2.6029002320192336      51.755072436725172
   163   1      14.402516987001565     0.77419022166375484      2.6218823807266074
   164   1      12.690041454880811      3.7126094807195917      2.5333973092279725
   165   1       12.90958663908636      5.4809342151941527       52.03321563684009
   166   1      14.302901057822007      8.0914434863573597    0.083959853081360281
   167   1      14.305962944914926      6.5590848017257226      2.5601139400495057
   168   1      12.840374314370623      9.5581257366305579        2.77203771417906
   169   1      12.944996642212494      11.044952129950104    0.069808597345683621
   170   1      14.393599523648907      13.779982099745276      52.094230980759868
   171   1      14.294863199994051      12.070450773447247      2.7776354458984027
   172   1      12.818818345414757      14.882751687217281      2.5610499953117598
   173   1      12.892215856729081      16.660967949371223        51.9374608761999
   174   1       14.34141202219948      19.288666663262706     0.11224988825486218
   175   1      14.505970684672315      17.473905498090829      2.7449236372775996
   176   1      12.691534397520043      20.209824004473894      2.5781399473913602
   177   1      12.802081105955782      22.310156790632615    0.052970014193426965
   178   1      14.400250527306959      24.858848200375288      52.070022169533658
   179   1      14.488254150798934      23.218335182977341      2.7292756694368685
   180   1      12.736216542756772      25.640107072075967      2.4681568974857884
   181   1      13.099466502331191      27.528589593080124      51.999289797493645
   182   1      14.473844090126208      30.276737400969157      52.030495697138925
   183   1        14.3668740519553      28.433091100288603      2.5124103506602364
   184   1      13.160606228799402       31.28159853823102      2.4203944849198518
   185   1       12.70273642202789      33.374283494390838      52.120207423021526
   186   1       14.48294238699313      36.135852755115707     0.13237847760510091
   187   1      14.760806373364973      34.170612147273268      2.4877612082356335
   188   1       12.71152613939506      37.140670391790209      2.5279803785513733
   189   1      12.805775755833318      39.233488581250811      0.1943868657291957
   190   1       14.35011558027149      42.041817422151048    0.047125047308614706
   191   1      14.421005431826922      40.132272700723036      2.4887379345882974
   192   1      12.884654796525933      42.729114467445982      2.6093362638090816
   193   1       12.82127257960224        44.5829175819309      51.907862427834729
   194   1       14.24027599077251      47.302176629193355       51.94751513787935
   195   1      14.545234006006014      45.257939223361085      2.3304329314608112
   196   1      12.924293050258902      48.361118914218636      2.7968658392001142
   197   1      13.125924535925718      50.150045956575958      52.020590082256213
   198   1      14.737546585458613      52.869860535375899      51.852623971659085
   199   1      14.482379601654596      50.648987119166222      2.6372338638043584
   200   1      13.142568195440655      53.500250806887529      2.5322089046997087
   201   1        16.3973725146136      55.335640806217192    0.020440411460267371
   202   1       17.57583284327044      2.8347122214495077      52.061929720673604
   203   1      17.527259059633852     0.76759079963502808      2.5713044710953792
   204   1      15.983595436937144       3.573182265127262      2.2238062351825132
   205   1      15.803796453612334      5.4545669256650839      52.045082298104234
   206   1      17.668649707264827      8.1808455836454268    0.014944018240670189
   207   1      17.513708524100927      6.4024680501345452      2.8904810776438414
   208   1      16.022491366080356      9.1418200301127825      2.3878610487463194
   209   1      16.115944518125378      10.855954052736797    0.053297233887857426
   210   1      17.530462823646303      13.891500160784695      52.104939838522945
   211   1      17.474091092774724      11.626646762324416      2.7551170399979799
   212   1      15.978707362933363      14.569306757310926      2.7099751773303025
   213   1      15.865149223155385      16.611542150835074    0.068209182883937042
   214   1      17.876873668781602      19.155380298602303     0.29034000731166204
   215   1      17.643667723666109      17.283963578910917      2.6157624398125172
   216   1      15.611324233701882      20.414564636310061      2.4733403751901517
   217   1      16.041704200456099      22.198340766308938     0.15408220758212052
   218   1      17.671457335103465       25.19589048582262      52.055304902740843
   219   1      17.599996488316215      23.344846676200849      2.4037912862526611
   220   1      15.980623552110279      25.879124735372354       2.711337954074839
   221   1      15.925347555263054      27.618823212253766    0.021878660900103004
   222   1      17.672383396942159      30.622055152451967   0.0057339004017584686
   223   1      17.356529347054245      28.569989930677938       2.797429131059789
   224   1      16.328827793999213      31.463632836607054      2.8120872924540783
   225   1      15.908873803561161      32.863553499966287      52.046458388329711
   226   1      17.723738999286748      35.994662490770594      52.113100028847171
   227   1      17.942046874758155      34.074387674817856      2.8512712222265946
   228   1      15.818109747898667      37.085480425341984      2.4616953501176564
   229   1       16.07190296057497      39.127279038949531    0.090412712313245894
   230   1       17.66011997241268      41.947748489086635      52.065846342004079
   231   1      17.843920781805654      39.982839882561684      2.4568217847727443
   232   1      16.401554505945711       42.63895997086766      2.7515300322130662
   233   1      16.067398728290378      44.491303950564799      52.043081421815877
   234   1      17.925081629768247      47.083534370751252      52.054802944095812
   235   1      17.898127321087326      45.022113127689508      2.6884634993579613
   236   1      16.091014642081511      47.904547368634042      2.5640729350557856
   237   1      16.187934892612507       49.96768124329698      52.019529779615567
   238   1      17.724843042962924      52.792977415655272       52.00183562858512
   239   1      17.682245442199854      50.628662690018579      2.7080536115632641
   240   1      16.270210750062411      53.401564100304242      2.5790790312935123
   241   1      19.294067406644928      55.575107238373413      52.038456731136769
   242   1      20.608906966326384      2.8925113190117258     0.18956679304093271
   243   1      20.652239297996548     0.90739349892816235      2.2970101238869263
   244   1      19.375038729212459      3.7839450266840915      2.5668236698872429
   245   1      19.340247213083391      5.6904146817130261     0.12619879263665496
   246   1      21.248632386150607       8.461034670796483      0.1105273011602136
   247   1      20.942532153602777      6.5310046390756211      2.6048685850339264
   248   1        19.2568964111097      9.1204258391737874      2.5518277055739582
   249   1      19.299602222547186      11.236442409850325      52.084474835182888
   250   1      20.898057594126421      13.968767708026649    0.058556858010698924
   251   1      20.732639407163351      12.082707342604518      2.4695534115056139
   252   1      19.300521311719983      14.912647964071187      2.6506176167440634
   253   1      19.139172777360333      16.635564422496142    0.030454252501940011
   254   1      20.995960813756721      19.456835555613107     0.18520689820408862
   255   1      20.844211272312258      17.631301828049398      2.5679490608429387
   256   1      19.487964281553317      20.242962855682055       2.644304958914879
   257   1      19.139638946176589      22.176686958160932    0.071800251812829285
   258   1      20.766815708698118      25.163800132561963     0.17864484418540844
   259   1      20.867095407200939      23.256093439464806      3.0236278574700126
   260   1      19.053951654931321      25.984218459634121        2.56982472362311
   261   1      19.158334600653252      27.990561745184724     0.11662178201858683
   262   1      20.692313737612658      30.524133477577791      52.090770783706503
   263   1      20.789409937761711       28.62195053227218      2.7211055219529943
   264   1      19.502108879891015      31.390689211132713        2.72319478696601
   265   1      19.376695940842634      33.266516895983521    0.047773275683215037
   266   1       20.90080877106266      35.954373744349105      52.015600866195989
   267   1      21.044074757322889      34.124822223488081      2.3101228397032663
   268   1      19.429748824714856      37.017153340377313      2.4701213828607789
   269   1      19.370631102721038      38.819485380664936     0.02263098315343184
   270   1       20.92344451414349        41.6357436712088      52.035162507043744
   271   1      20.842353860186549      39.737804893167038      2.4491849583733525
   272   1      19.426891506101782      42.483684398011569      2.6698824819809293
   273   1      19.357792079497695      44.203156739165884      52.081757215929677
   274   1      20.865928369579514      46.961415708747616      52.115609516970999
   275   1      20.971386527815017      45.204808370045001      2.6716381740660595
   276   1      19.351911435136497      47.998621605376407      2.5873540919173452
   277   1      19.402779746982333      50.080835298721503      52.075627676432362
   278   1      20.800519229291652      52.884330858647289    0.036568018014351687
   279   1      20.794640615956553      50.927790237527731      2.6022511704888562
   280   1      19.444580243716402      53.701120148857079      2.5445163417209109
   281   1      22.461229113552001      55.519984012025063    0.071728532537754922
   282   1      24.006118097603082       2.980684765134288      52.046407665222397
   283   1      24.060427894536986      1.2748165156785825      2.3618903982999204
   284   1       22.53507855692116      3.8062707694704341      2.5835104518268404
   285   1      22.654166601211042      5.6481085607641406     0.30841894564600814
   286   1      24.334442495946089      8.3573726666418686     0.15138657488972546
   287   1      24.254025114939498      6.8598584208900641       2.585337115897727
   288   1      22.421952470140276       9.402976666723351      3.0280625819014109
   289   1      22.624163558696395       11.32572738773302     0.10877474993995102
   290   1      24.047969962534218      14.024216867042533     0.18368063019944589
   291   1      23.953379200439564      12.189809413335022      2.8015240888367647
   292   1      22.656302531737946      15.037649164380255       2.553912173206665
   293   1      22.428689031067904      16.838392873267118      52.012396414176962
   294   1      24.116323895597478      19.824155657639174       52.01151707693387
   295   1      23.836938669191976      17.886162548572429      2.5697965993800831
   296   1      22.503126410359581      20.482666537443112      2.8408899782432528
   297   1      22.423228562395156      22.273055374852923     0.17648710076070664
   298   1      23.652029083189166      25.011471401955525      52.069605800896483
   299   1      23.952623776925673       23.30070605181551      2.7681454603732587
   300   1      22.368671190202186      25.885589514366266      2.6957032640017156
   301   1       22.45669003076889      27.703972097469133       52.12658396109682
   302   1      23.597110284587465      30.488572899025598    0.033952250934887795
   303   1      24.274830706283144      28.701132306912047      2.5697723275364388
   304   1      22.388422643171015      31.193175472134772      2.6577659485727616
   305   1      22.423074393331017      33.362420148029088      51.814592569605153
   306   1      24.141865843114712      36.107983256995631      51.924960267774999
   307   1      24.234024113797723       34.23687725849534      2.5900119870797438
   308   1      22.611909846445442      37.012749342848366      2.7536154673238471
   309   1      22.619876090777403      38.940681424781339      51.978693758006216
   310   1      24.244688248129542      41.618251330144204      51.986455735382862
   311   1       24.12008806738033      39.842927787992544      2.3894267751112097
   312   1      22.400965362215743      42.324389926991621      2.3992528232327026
   313   1      22.622159829172571      44.193602222884479    0.067173724978924515
   314   1      24.122131052986209      47.194106162615604     0.12066564550310817
   315   1      24.141392070083732      44.960275842413452      2.7682503531377738
   316   1      22.686085848645853      50.042658996624503     0.16894999913525202
   317   1      24.273224819393597      52.843429478461012    0.074792922113667309
   318   1      24.224735929261385      50.812889399218065      2.5007561952189832
   319   1      22.428316106331618      53.688796125801602      2.4356253569991533
   320   1      25.770324524424709      55.500679085715461      52.063577590555717
   321   1      27.713871364634251      2.5494984932927975      51.826017574677252
   322   1      27.004627478355022      1.3342923842597156      2.4701778886297938
   323   1      25.742018511585325      3.9775829959725031      2.5325810977261174
   324   1      25.945398109745419      5.4695820843480005      52.118007222442728
   325   1      27.359321172653132      8.7579074360193445     0.16414142046819319
   326   1      27.278993469978261      6.5744537018274256      2.4336285554206305
   327   1      25.789906374461559      9.4457514193520051      2.9970916658463023
   328   1      25.764857928752953      11.352100603379972     0.19138108708275983
   329   1      27.147267563395818      14.303647806464751     0.22852122932132085
   330   1      27.446227219904628      12.239364105158961      2.5533626394784683
   331   1      25.708305884406439      14.973611721137145       2.896006371216548
   332   1      25.705190619570459      17.030741324132627       52.10671499181376
   333   1      27.488918867049378      19.658350378537794      52.119329147343308
   334   1      27.390814667725852      17.521562738016197      2.7084464263363968
   335   1      25.907989019218761      20.552682302221442      2.5763996396211031
   336   1      25.606605990229504      22.458136451537879     0.19025837422988112
   337   1      27.314039719295099      24.913177512590138     0.07608129897338145
   338   1      27.302143873317327      23.368382251778264      2.5438957529998372
   339   1      25.563697551173838      25.872427713643233      2.6434538996522372
   340   1      25.730175896825674      27.642506628672756     0.14511822490130605
   341   1      27.332260936019406      30.593343513125095      52.011513115969166
   342   1      27.464385505634951      28.674735663350074      2.5635412999475689
   343   1      25.602841288211042      31.383960284083805      2.7440256305761079
   344   1      25.678615481465812      33.301450807966546    0.032442801527147284
   345   1      27.266273025320398      36.071276461249106      52.027049767807632
   346   1      27.285920629756529      34.353897738643084      2.5000453642892455
   347   1      25.950172881673065      37.177004850357633      2.4697759630691918
   348   1      25.828590764612137      38.873363875955363      52.041641020715943
   349   1       27.50964429360371      41.630986539752186       52.02765636675543
   350   1      27.405181372767263       39.81064250279168       2.693703426351409
   351   1      25.768537081614337      42.467572029400266      2.4870509084068821
   352   1      25.707757030090676      44.459384871130077      52.026107657455434
   353   1      27.484618091007452      47.096068317583118    0.024389491820927384
   354   1      27.410858896771757      45.519987475429176      2.8123812354128113
   355   1       25.70343804749788      48.030122594993465      2.6802875682167211
   356   1      25.892992373206873      49.804301980745635     0.24430067844889652
   357   1      27.240750741837726      52.791475981527007     0.12938059414752312
   358   1      27.409065029190234       50.87737645596426      2.6751665978102128
   359   1      25.668145668840914       53.53417713864463      2.5826312345458242