dump/Mg_500_20/steps_41 (written by ASE) 

3980 	 atoms 
1  atom types
0.0      32.100000000000001  xlo xhi
0.0      55.598830921999998  ylo yhi
0.0      52.130399999999995  zlo zhi


Atoms 

     1   1      32.067409619586734     0.32451348165521865      52.047288012282763
     2   1      1.3448216797278527      2.9884506709155514    0.019722443944760373
     3   1      1.6357801389762832     0.96966637310105597      2.6655593624587697
     4   1      32.064155547735304      3.8667828264368524      2.6196364285247862
     5   1      31.895943707569749      5.6518807365671249    0.021702633193687312
     6   1      1.6543121995000323       8.229653434840408    0.063473758224394425
     7   1      1.8122841962088965      6.8347020966344383      2.6073293830760318
     8   1      0.1036931045624675      9.1634126880061455      2.5906167447670359
     9   1    0.010813174354826292      10.839811978349662     0.26037837732835556
    10   1      1.6624663870925742      13.893955117294704      51.939823743811125
    11   1      1.7928079446179606      12.077670292653817      2.6994203704708792
    12   1    0.058002096777637242       14.34390274304223      2.5206774924601714
    13   1     0.28724442590550286       16.73112021566121      52.129765940635025
    14   1      1.5318854718066297      19.422184148915147    0.085764744281736402
    15   1       1.836021107046534      17.917473164483507      2.4098626789812121
    16   1      31.951521224514941      20.191238318646015      2.9089610355011573
    17   1      31.881492108485677      22.275465946867136     0.48439640807962309
    18   1      1.4530082822637869      24.759220387339852     0.16879188473478146
    19   1      1.4609598310894079      23.219361210259091      2.8064292269125728
    20   1      31.979141348091503      26.039035816316414      2.6185048904725656
    21   1      32.065218300301829      27.873705687276978      51.972480737481156
    22   1      1.6502796517211935      30.774768689521355      52.018212278607692
    23   1        1.66665727146483      28.742005826651912      2.3638151934980449
    24   1      32.046266975877309      31.306403816432223      2.5077790847276304
    25   1      31.864580084320544       33.46715292211362   0.0058177729960160081
    26   1      1.4257770097270304      36.109877487805299     0.12267126487279789
    27   1      1.6086063387760343      34.083877036753407      2.6295723943761713
    28   1      0.1242879658023211      37.226071550480647      2.5569996315266921
    29   1       32.03711137462053      39.077857508981715    0.088406267886171702
    30   1       1.647847017007001      41.866589463065246      52.046957732445911
    31   1      1.5871248989842373      39.809887050123834      2.7130805153350033
    32   1      31.983517302587607      42.502300235766533      2.5842677540038417
    33   1     0.13097778000090132      44.611573858030624     0.10109967258252435
    34   1      1.8214113934920571      47.299280437442334     0.19829771276920402
    35   1      1.7107682132598734      45.404483862871324      2.7588717855276736
    36   1     0.20572575175780528      48.102276385096879      2.7045525917859852
    37   1     0.11017722783681459      50.107645746207268    0.063577878701435719
    38   1      1.3662967954814504      52.829477297016233     0.22210610408721129
    39   1      1.6680316508439124      50.980401677103139      2.5791910144167787
    40   1      32.032438357313957      53.569607453781465      2.5794034978491913
    41   1       2.837664105727677    0.035470812180246274       52.12282603624196
    42   1      4.6182875994767283      2.6192311928214425    0.057888720461020782
    43   1      4.8067784878975974     0.83135971096872041      2.6790264943652615
    44   1      3.3620189344158042      3.6846148065687547      2.7279514480730427
    45   1       3.131197393263712       5.480583603275047    0.093942538644282689
    46   1      4.6767576613707078      8.3439668197384798      52.071983089330104
    47   1      4.9133486965835482      6.2279857726793777      2.6008063228657301
    48   1      3.3192940991342006      9.5208309304913659      2.7113059701783571
    49   1      3.1289465162792496      11.207814215117233      52.027342046395304
    50   1      4.6756537154495925      14.049233388700882      52.022684654672773
    51   1      4.8730264097736136      12.382227420737607      2.5514252150303376
    52   1      3.1583326368961382      15.180000153085292      2.3412118715114825
    53   1       3.276724537851583      16.840784060798416      51.868917783852453
    54   1      4.8472350656956156      19.487761158754818     0.14283021825973893
    55   1       4.870821197340697      17.688548644005035      2.7265102049954506
    56   1      3.2483304012550822      20.498893206863986      2.7748541666500679
    57   1      3.0456907586305442      22.020899371307195     0.24428019417419908
    58   1      4.6330548793057531      25.157095163792107    0.026919942725367834
    59   1      4.7975126458563109      23.022089241554294      2.4620605500279766
    60   1      2.8359673289084211      25.942226967700886      2.7498878932924811
    61   1      3.2509380421433973      27.563693061980491      51.983672225017301
    62   1      4.5142735470387141      30.555351836611472      52.113628097040419
    63   1      4.6332188091701472       28.65209510811685      2.4902173225210729
    64   1      3.1803183286129886      31.511545906392453      2.5513193352301675
    65   1      3.0986110641534941      33.364794606481468      51.982401318042761
    66   1       4.750648201184223      36.151350747599501     0.10097166148061479
    67   1      4.7815875756261343      34.147885845517138       2.505587538225257
    68   1      3.2045838594154863      36.937182491738803      2.2685184961582046
    69   1      3.0431358669654904      38.994406201308877      51.961913353723837
    70   1      4.7514509486262098      41.430417050636017       52.01190467643746
    71   1      4.6802701420874175      39.843648951954727      2.5423077749059098
    72   1      3.0325210721511353      42.659410980843468      2.7738563357035892
    73   1      3.4483433662795893      44.447575796352233    0.026717942465659578
    74   1      4.8957461366166193      47.223096718302905     0.26725200100422619
    75   1      4.9437365347531461       45.54683501926862      2.5934682455766587
    76   1      3.4402269675343433       48.09003496044334      2.7274006709151979
    77   1      3.4852958007696193      50.148650063076502     0.20978533481571965
    78   1      4.5710446118942221      53.076629696386625      52.088372693012623
    79   1      4.9984015406003008      51.195076053882815      2.5301040116606304
    80   1      3.1770574931667555      53.669225282596244      2.8425075559390729
    81   1      6.2124289325699378   0.0021291454399617778       52.06088066937123
    82   1      7.8671072501017303      2.7243013984196196      51.969483221169796
    83   1      8.0016758422640901     0.83666406378278102      2.7274234541719293
    84   1       6.550491024687731      3.6710234497943182      2.6740535467767432
    85   1      6.4391570356971455      5.2346222343952604      52.076782222028278
    86   1      7.9956663321735322      8.2831928146339084      52.068419662170513
    87   1      8.1162306459200124      6.5148785087045669      2.5197550845149492
    88   1      6.2056929546109574      9.3534628704917306      2.5842483654101382
    89   1      6.4072849002728232      11.239582490588258      52.077881962662609
    90   1      8.0082267626548145      13.912550524016456   0.0052142834638966712
    91   1      8.0195629519307481      12.290942354438167      2.4934432193528919
    92   1      6.2247876693923416      14.941178327324337      2.6381959218511817
    93   1      6.3298240767204694      17.060077098159546      52.113751682750213
    94   1      8.4014724598450048      19.679933314860975     0.12768122134096094
    95   1      8.1421004532535584      17.556935708875002      2.5844123661393574
    96   1       6.592921144942852      20.279382078726442      2.6499412760684162
    97   1      6.5853251094188652      22.313819531572108      52.115772016466067
    98   1      7.9163101783444949      24.921137434527111     0.13830383955625145
    99   1      8.0701131707454064      23.115573003370873      2.5322352253779798
   100   1      6.1696677081227325      26.000261873175614      2.7055436761960201
   101   1      6.2021662593244784      27.914822163886228    0.054244102520009364
   102   1      7.8529308402706217      30.525858470673342      51.856771825953878
   103   1      7.8682952382731193      28.576880672253793      2.5163847732866285
   104   1      6.3757457672632558      31.426470050505763      2.4243147584896922
   105   1      6.1505067054987395       33.17181504916428      51.946223133488026
   106   1       7.746046666972771      36.064645691147305    0.052616092436002002
   107   1      7.9300444877694689      34.340869191087243       2.538333033662787
   108   1      6.1839497039555118      36.902394016693876      2.6880274967120235
   109   1      6.1907880942100242      38.831100069472733       52.05444380386259
   110   1      7.8402411986747191      41.503802414997104    0.038997506321717931
   111   1      7.9322688313957146      39.852538476709675        2.54947001288143
   112   1       6.192342073992438      42.550502811089423       2.462553144087364
   113   1      6.4647240296970523      44.454924583306671      52.049619709163288
   114   1      8.0056624126620406      47.478962674488628      52.122047864879256
   115   1      8.0945511690643936      45.720639670281777      2.4814260913196224
   116   1       6.631262997324086      48.589921629034919         2.6879073418616
   117   1      6.5212883581742256       50.26932361190255      51.834192392452714
   118   1      8.0709620123620542      52.902597775198167      52.115705212405736
   119   1      7.9777957556567154      51.326747951278165      2.2800597041332624
   120   1      6.2248381371165422      53.866224067463371      2.7872549852276096
   121   1      9.4693160629260955     0.23641185637706358      52.000086135198899
   122   1      11.155561482311111      2.8130354698799884  0.00091261719392768858
   123   1      11.224861703400441     0.93019356364308492      2.4888383522340614
   124   1      9.8189929915502887      3.8256353801841105      2.4494979030353101
   125   1      9.5148321742799808      5.7143456585371748       51.79219024335341
   126   1      11.020944599004856      8.4194936364217394     0.13990738328163016
   127   1       11.27496441352706      6.4949880708575698      2.5541632787822652
   128   1       9.391516556037951      9.5252466053516365       2.656221295604388
   129   1      9.8364111144255943      11.176290175603894      52.016012878556339
   130   1      11.377778667910395      13.944857445953676      51.978929120323059
   131   1      11.134910669114953      12.200857145115814       2.809265055673789
   132   1      9.8371805922773401      14.861223622832853      2.3495888959798892
   133   1      9.8716288260388634      16.702201872009734    0.083411035551854126
   134   1       11.61417328320209       19.49070186779646    0.038908076754336829
   135   1      11.207116335638407      17.693061239901823      2.6299264755278986
   136   1      9.4970794248331494        20.3712421064048      2.9874623885594245
   137   1      9.9258350932945092      22.188015612099061      52.070046599977438
   138   1      11.295101063940406      24.991201502800987      52.049446652532289
   139   1      11.276777996737623      23.065934178852167      2.7081261251784641
   140   1      9.7276528384230065      26.141668071261151      2.2427262989141137
   141   1      9.6230051643811727      27.812091140717161      51.985158820763978
   142   1        11.2067335877126      30.713971670290181      52.121227043512832
   143   1      10.854556975529515      28.951880091910002      2.5579033793803982
   144   1      9.4823047021964282      31.692039244897423      2.3703474485637894
   145   1       9.417205247047443      33.659492578469823       51.80704991046133
   146   1      11.119710727953557       36.30842588110427      51.963431110049051
   147   1      11.666059348377226      34.408075615485053      2.4314220324678866
   148   1      9.5588514813864887      37.039424089497849      2.6601307446742801
   149   1      9.5103731629066903      38.910492329060787      52.032473605132097
   150   1      11.009711943202534      41.536488866203719      51.946904284890543
   151   1      10.996245561713978      40.035374374889386      2.6117433672002663
   152   1      9.0889935680016691      42.804029673356979      2.6100026519448036
   153   1      9.8551427970962937      44.433929086369169      51.972359040746461
   154   1      11.294536034118128      46.981301999038962      52.099563691072817
   155   1      11.016672314108511      45.406916456151137      2.5700483142099553
   156   1      9.8368603232753014      48.262334518785558      2.4981986339425517
   157   1      9.7185003940780508      49.969633435711025      52.056737333953791
   158   1      11.181352944708275      52.728794023882962       52.03900988260002
   159   1      10.935206231805932      50.824518000588654      2.7774012131653323
   160   1      9.5135630903634016      53.655511303808524      2.6394284843794886
   161   1      12.769338295897901      55.462657098779303      52.101093682177506
   162   1      14.417715955122821      2.6411257074373786     0.24944594186273022
   163   1      14.283745633181853     0.80280586551698119      2.8080540822280464
   164   1      12.814611115611434       3.672670866540134      2.5188681836107079
   165   1      12.803148754218704      5.5308560078552489      51.962453338903622
   166   1      14.196967964377013      8.3080368804158322     0.26765178353377439
   167   1       14.34326911266804      6.4480654690426089      2.9775350840622532
   168   1      12.695733122843833      9.2085491740803906      2.9102465857626543
   169   1      12.760866865703553      11.170348698169681      52.038917104842575
   170   1      14.422997254230546      13.790361818649767      51.969664610469081
   171   1      14.276265831922698      11.979535657375953      2.5127514407170422
   172   1       12.83563484335127      14.867481818464434      2.5262022736064202
   173   1      13.091809238069612       16.77028970851925      52.098141424821804
   174   1      14.652726478121894      19.687351278393248     0.11829081141873454
   175   1      14.526385287053394        17.5738714905868      2.5486443784827109
   176   1      12.966752428059053      20.405426151788493      2.6747368438120631
   177   1      12.991919725267893      22.202719684308612        52.1054431364594
   178   1      14.528435235417213      24.977523975393208    0.030213524849619186
   179   1      14.401706417248933      23.257199388481272      2.6810522100998071
   180   1      12.902385659215513      26.177138611827917      2.6605907324911886
   181   1      12.651859149917286      27.888360883915656      51.880065137429568
   182   1      14.371930243924119       30.61746996774583       51.78651509793756
   183   1      14.232985809886344      28.727712879916389      2.5063174597741038
   184   1      12.984819246959914      31.648511655411028      2.5355230311522909
   185   1       12.85631540397358      33.576989165240853      51.910245093347271
   186   1       14.49180866595545      36.344219291040339      51.862407795924753
   187   1      14.641581522635619      34.568123498775485      2.6479216701168995
   188   1      13.025259944885043      37.159400154169113      2.5041987350788841
   189   1      12.929492284610211       38.92564367349069      52.103269305355056
   190   1      14.289745644207033      41.615614107505962    0.055425173405036256
   191   1      14.351322699439116      39.990869281266541      2.5414346138201438
   192   1      12.595782770678937       42.92723731284908      2.3844454397968384
   193   1      12.953455683317353      44.490547071918293      52.078632012736691
   194   1      14.286989259130086      47.187592228966054      52.037232757282553
   195   1       14.32602519225644      45.439213352251137      2.5147172399171303
   196   1      13.026445034368759      48.282563576106725      2.5849116843802791
   197   1      12.807946486424795      49.994885761912904      51.827027534164039
   198   1      14.399004098171041      52.717009193074212      52.093569077172013
   199   1      14.268954775400399      51.061875708193142      2.5527320191811351
   200   1      12.763531065857975      53.799765759066155      2.6307890838989358
   201   1      15.653322537288005      55.506840244092103      0.1265094932022659
   202   1      17.551164489985194      2.7871364039625837    0.022240802200010963
   203   1      17.636362851926567      0.8113296683546114      2.5831311517169824
   204   1       15.87163721003405       3.654808915897239      2.7908245550743773
   205   1      15.858062325124065      5.6113474094674665     0.35429869002997572
   206   1      17.450073331920315      8.3331102415687113     0.15980416991664048
   207   1      17.636019736808599      6.3778802487841135      2.7993165384708436
   208   1      15.994137843670554      9.3844573836670904      2.7972946760305861
   209   1      16.204555685746708      11.341398386646087     0.22582239834180612
   210   1      17.542323234678925      14.197559091780724    0.069988183412102056
   211   1      17.205689231627925      12.357980522643212      2.9505400008123153
   212   1      16.045020961090689      14.910498501929583      2.3503203634252938
   213   1       16.19987102037615      16.934853799708659    0.061310896011254654
   214   1      18.004971944443056      19.815809635556093      51.975489804717419
   215   1      17.833385336436145      18.001858989717405      2.6183617915072515
   216   1      16.142077324557413      20.477563914510046      2.6039540436464441
   217   1      16.092085989717145      22.191993820996021    0.020922283625902496
   218   1      17.626027360068399      25.161026542749191      52.129309389740357
   219   1      17.469762133311093      23.255571168021227      2.8030568914684775
   220   1       15.89042419482174         25.813078670501      2.6545950357225623
   221   1      15.813617632396575      27.747539437651259    0.018397171277868433
   222   1       17.51764968015387      30.486883086299809      52.029377987518806
   223   1      17.577346591124378      28.724144936566347      2.5017685060902881
   224   1      15.991610869032097      31.539140886816433       2.661633696069122
   225   1      15.982124129049435      33.465953321573586      52.033618429370577
   226   1      17.580413804852341      36.310197039192026      51.964385287071444
   227   1      17.539392357358135      34.692737628415372      2.4449445877437745
   228   1      16.008794037059072      37.347185929203825      2.4870069555006933
   229   1      15.882354057292725      39.153915388280538      51.920289715322205
   230   1      17.593853025028473      41.652741330901627    0.042027981015778614
   231   1      17.425199880215224      39.990897040939558      2.7344176416413588
   232   1      15.985374585897402       42.84448587645889       2.720143490095551
   233   1      16.069858715447886      44.417565325068722      52.036323762321906
   234   1      17.679130507877971      47.308588576424661      51.855812945596476
   235   1      17.503148412127555      45.347466206167098      2.5163737100182249
   236   1      16.003744818606474      48.150136484433744      2.6604035432543296
   237   1      15.971230407727333      49.849934414398042      52.058347544820712
   238   1      17.579180788177833      52.913301790683157    0.068623938408686025
   239   1       17.58079895701206      50.779892711459254      2.6449400441017552
   240   1      16.095437109761225      53.278989316889145      2.8895896347991141
   241   1      19.077221272847847      55.339326238221147    0.076311107733750064
   242   1        20.8738843491582      2.5251386742314859      52.072078499058186
   243   1       21.00077267548453     0.76330940707204742      2.6240603467692547
   244   1      19.350062632952795      3.5828756497835066      2.5857178719333334
   245   1      19.097712545067363      5.5089980746329426    0.040863977938674738
   246   1      20.692979284671758      8.4084019072217107      51.944531184387351
   247   1      20.998115823050444        6.65729568673859      2.3957343896975583
   248   1      19.289009485980195      8.9628600931328926      2.6328938764238923
   249   1      19.314361095611609       11.09423418647911     0.18873517093406494
   250   1      20.924382245610168      13.733922638383607      52.059845055298915
   251   1      20.415344319663223      11.795143682854368      3.0052706893673866
   252   1      18.942717401027505      14.908616801665628      2.8947240791654179
   253   1      19.217675052703179      16.780776915116153      51.969756826517923
   254   1      20.968952073379253      19.325482136988263      52.060297577568548
   255   1      20.712735627288165      17.434874835859489      2.5608393679354626
   256   1      19.377319106956389      20.693040046295657      2.5596298293643995
   257   1      19.385926841388933      22.557902121023467     0.30925027045390691
   258   1      20.844943420532349       25.20204980905584      52.046356390570509
   259   1      20.731583501405883      23.544981916264472      2.6519153485232225
   260   1      19.289492539980618        25.9140328089759       2.622529164453665
   261   1      19.122927140782959       27.70782762024669     0.20197277992315521
   262   1      20.967102119472482      30.607614923183373      51.957077406637296
   263   1      20.649214652523995      29.071993055067853      2.6048045079377773
   264   1      19.268447672505015      31.858946803771424      2.5426326527338587
   265   1      19.190621156730401      33.440933352988488    0.057008522521302417
   266   1      20.745473637519844       36.18755801601467      52.009315995608958
   267   1      20.695938637559049      34.646362117489048       2.722708851315411
   268   1      19.318613724542164      37.242684782670985      2.4730338212351581
   269   1      19.503069473738744      39.208015108530866      52.074140155543851
   270   1      20.925021086284481      41.878341437613216      51.902617675677334
   271   1      20.850880850076123      39.782504535597795       2.531314491194427
   272   1      19.361031606028035      42.615942246509171      2.2880051457502231
   273   1       19.18877358966111      44.579845257657894      51.975794010022987
   274   1      20.714253772193437      47.292048983607664     0.02864006387548533
   275   1      20.749709090252679      45.230706853919067      2.4338547229620331
   276   1      19.465631188468663      48.127583143413389      2.7047586621268951
   277   1      19.119540781690688      50.349562055288835     0.16384021147619535
   278   1      20.987511156018371      52.844850620224896      52.106447429637285
   279   1      20.765953698436636      51.167044814513389      2.6584075396666855
   280   1      19.155830795167308      53.741730936325091      2.5151066024805218
   281   1      22.586571700983068     0.20534213489715711      52.067143509781069
   282   1      23.901241261380559      2.7956997618907722      51.746097579376254
   283   1      24.072342241002307      1.1437639407581006       2.463845729584865
   284   1      22.631937740928052      3.8433989488006315      2.5707572476985407
   285   1      22.165451968409087      5.4741590902087554      51.976853289852421
   286   1      23.851348238753772      8.3806850324602919      52.124916985254742
   287   1      24.243598911440497      6.3771636878077196       2.750414538443398
   288   1      22.382546622076937      9.3618448140711514      2.8765199148949385
   289   1      22.523039216308252      11.011291997359139      0.3093954131510932
   290   1      24.093618560182595      13.510289561661777    0.016354701308650139
   291   1      24.090348242870324      11.949179719033443      2.8830811818690618
   292   1      22.101364631004298      14.340957856686396      2.5441829102239888
   293   1      22.342790162252751      16.531726500798115      52.028348330754447
   294   1      23.771239234120564      19.174786392513941    0.078264374499795092
   295   1      23.935755509966047      17.320182293250905       2.621654617813884
   296   1      22.372522061580661      20.244723667509511      2.5845430250535433
   297   1      22.272226757453474      21.854798737652242      51.720821212674537
   298   1      23.769972326415722      25.043074234665461      51.903409992826546
   299   1      23.742161259139809      23.302597879808939      2.4763275794309951
   300   1      22.753133827697706      26.052109244631037      2.5645082262738956
   301   1      22.283822776380521      27.809517438306681    0.049708908887870787
   302   1      23.882886910690168      30.604330217199944      51.858511960384682
   303   1      24.060461295306681      28.904138977446198      2.5265084364334602
   304   1      22.285182253780519      31.753886644142362      2.5251444355620207
   305   1      22.407671408277722      33.506400193734116      52.113787714295952
   306   1      24.004091832697949      36.204517594343294      51.933039172736144
   307   1      24.006685591493945      34.192733842504325      2.7998324513802695
   308   1      22.413165101766879      36.864830816414646      2.5154264168620655
   309   1      22.425912829059712      38.943345084668522    0.014697260724720137
   310   1      24.004765242254305      41.755426935527211      52.088330842007281
   311   1      24.053237654597282      39.803760945810446      2.7163837229489736
   312   1      22.485131127238251       42.35404835977058      2.5725427049079186
   313   1      22.406654024900991       44.45061974968759      52.067004285703376
   314   1      24.072962008423982      47.117690175084562    0.024117637925479912
   315   1      24.371981277841503      45.166145905900756      2.8307210513580365
   316   1      22.402010470747367      50.091311389791073    0.038997697114830567
   317   1      23.906300316408476      53.151101939061171      52.121457065273056
   318   1      23.974710806949695      51.119339405012397      2.7670483104904711
   319   1      22.713192609022578      53.729809853887062      2.6936406489929645
   320   1      25.772169628782965     0.20143325338730578    0.094086492507112637
   321   1      27.222446261334639      2.8581060048709457     0.12947919690291743
   322   1      27.386460478753801     0.91142663947065417      2.7442679810218489
   323   1      25.734030019900477      3.4916152310776432      2.7019544530940429
   324   1      25.486728213052473      5.7604810569410683    0.060165560664973715
   325   1      27.388529122159159       8.670809510088402      51.953875957934059
   326   1      27.576112907586904      6.3206053870545942      2.7455603421820163
   327   1      25.551670513628011      8.9811202866135371      2.3611056234200314
   328   1      25.777890034127623      11.000267659044715    0.078708300746424958
   329   1      27.503912911653124      13.959066440113521    0.019844008825803509
   330   1       27.31821577740855      12.048782037183649      2.4479487179052413
   331   1      25.645747234809775      14.588658001349879      2.7393749304924793
   332   1      25.495550056647392      16.451934501100787      52.078870722567977
   333   1      26.790951164996741      19.372176623169302      52.007186019456938
   334   1      27.091852150759941      17.353265177963088      2.5138220358528462
   335   1      25.575021823709911      20.227852119397241      2.6237876638515649
   336   1      25.274455987268947      22.339944860948485    0.068666454057727769
   337   1      26.996386846453316      25.156273576426447    0.032178028128691666
   338   1      27.054260457011797      23.163081263436606      2.9515569905686792
   339   1      25.730653620913948      25.996290671382919      2.7222172476520292
   340   1      25.462830477591179      27.617941265808543      52.053060963512159
   341   1      27.139462079422533      30.255001934222875    0.087421879352512777
   342   1      27.291203584142565      28.836716717268665      2.7351873959774147
   343   1      25.641427146669074      31.643794274125472      2.3873261429464403
   344   1      25.527100575621134      33.495853685315517       51.90638740039843
   345   1      27.122504107220884       36.04691745219278      52.067560602179185
   346   1      27.107440374557061      34.263839139362929      2.8230522263643465
   347   1      25.532501360219239      37.034343932951344      2.7133726711929191
   348   1      25.484091817116031      39.081419557710717      52.040943117858305
   349   1      27.206109602436566      41.802129061428907     0.13780802456443481
   350   1      27.252519650361183      39.737240364176444      2.8464347583575917
   351   1       25.59866387920767      42.300765446498936      2.4889680854463498
   352   1      25.521192967227623      44.154234428621656      51.782460108781109
   353   1      27.272256261130863      47.464025202308974     0.12381790432464485
   354   1      27.519968788415976      45.506633071052924      2.5217157554322798
   355   1      25.640106791507684      48.227541228803872       2.687214096541612
   356   1      25.454536562927988      50.239121102511739     0.13539238780267557
   357   1      27.126046075749187      52.683959541744009     0.13736372859651352
   358   1      27.121918267640492      51.027207163134541      2.6843621363480707
   359   1      25.795557188136335       54.01110306513516      2.4533852922716193