dump/Mg_500_20/steps_21 (written by ASE) 

3980 	 atoms 
1  atom types
0.0      32.100000000000001  xlo xhi
0.0      55.598830921999998  ylo yhi
0.0      52.130399999999995  zlo zhi


Atoms 

     1   1     0.10833407202575594      55.478022623560101     0.23449466147660739
     2   1      1.5391576701133554      2.7638643287863176     0.18643939105406002
     3   1       1.520698014975755     0.89460399982931715      2.6372897615814552
     4   1     0.12134812278287689      3.6880128379084618      2.8083804123902611
     5   1    0.016212946342958612      5.6384289970624373      51.930744342000466
     6   1      1.7126375564600886       8.507421014556277      52.052901500598537
     7   1      1.6953871888156078      6.5097295494272078      2.6401606876641366
     8   1    0.066847385850031471      9.2978987721587405      2.5604722083256797
     9   1     0.07973990987248207      11.288740053757936      52.127108104711354
    10   1      1.4837386239791055      14.065474586139862     0.13309429345458401
    11   1      1.5953053762644356        12.0208735987646      2.6828355734743399
    12   1      31.911767331692861       14.62788801700391       2.644616478806912
    13   1      31.631751359628463      16.508444082793744      52.098419275730073
    14   1        1.72381761877871      19.483753219506514     0.10011180529415233
    15   1      1.5562562142789609      17.620355766492381      2.5489600326285218
    16   1     0.13026104271251726      20.368132424992186      2.5184134992769467
    17   1      32.059654907087413      22.099086982330579      51.973278093452002
    18   1       1.688034653740377      25.109778314273882     0.26623534937476945
    19   1      1.4607108801504307      23.149536238701948      2.4539252938827398
    20   1      32.005544602788738      25.932945789195294       2.569356612540366
    21   1      32.082218552878253      28.112608744953196     0.18698779678976449
    22   1      1.7648596321779835      30.657443895886306      52.059543035511751
    23   1      1.5272276176045714      28.889871968789024      2.8350185677163062
    24   1    0.029851536992455078      31.439393570344912      2.2706521520724432
    25   1     0.40046799760738727      33.637003904545836      51.992981935625359
    26   1      1.9078980402422017      36.415561580864384      51.960833083727273
    27   1      1.8512835200410149      34.472317184352342      2.4730664452513365
    28   1     0.10510195834927126       37.04396337964328      2.5604353620466007
    29   1       32.05820322558575      39.158196427899611     0.10846556287642885
    30   1      1.6858512924142073      41.766628878035689      51.869776984299833
    31   1      1.4613227352795126       39.75310188992453      2.7628374692688515
    32   1    0.020352227689968947      42.546970252506682      2.5518675747679018
    33   1     0.15319860593882867      44.361967027546072    0.083517707600081509
    34   1      1.7268078704941487      47.472563547203301     0.13372951041215386
    35   1        1.51979376993991      45.534596945692392      2.7711365486908384
    36   1      32.050049729059197       48.37687388898707      2.7018663871524713
    37   1     0.15949655448111208       50.00067840318578    0.026073001489638769
    38   1      1.6589009220652906      52.682343998062606        0.14607062525952
    39   1      1.7860201079859988      50.998615221761654      2.7068956591223157
    40   1     0.24586528763524373      53.540069946662591      2.5358021370232486
    41   1      3.3390388296984308      55.340672566989973      51.960785610399817
    42   1      4.7209726418878661      2.6629574425602858      51.886178732669507
    43   1      4.5482995366908225     0.85114815770105889      2.3437470496082047
    44   1      3.2169799024626085      3.5874616179912753      2.5996156490533249
    45   1      3.2182374284468351      5.5107007205343246       52.08325916475539
    46   1      4.7435813007341538      8.5748521141275695      52.068250566033058
    47   1      4.7804809648821411      6.4506796576246197      2.6626826039314428
    48   1      3.1558688728537154      9.3143331227354675      2.6213799565281377
    49   1      3.2520015452876398      11.301164865644544      51.992676201162723
    50   1      4.6849905628669157      13.956242915499917   0.0062408898201660196
    51   1        4.70719037518686      11.962404918990451      2.3449287241528545
    52   1       3.129155805033133      14.705374250036073      2.7774084259664082
    53   1      3.1475839842384312      16.764634812689689     0.04735076956533938
    54   1      4.7821562514385123      19.449087377688087     0.24435726537595462
    55   1      4.6874873592117154      17.523983311835767      2.7888943291739938
    56   1      3.3077373080724262      20.457265768047428      2.5568667346145699
    57   1      3.1358710813057606      22.266172584489517      51.959888880369938
    58   1      5.0792143395745342      24.906145115173867      51.904351009047531
    59   1      4.6682564257036798      23.433078152945239      2.3879821947809798
    60   1      3.2675134176445102      26.032445460410454      2.6200642053164795
    61   1      3.1493126750175233      28.017416449706186      51.954678289549598
    62   1      4.9290398390924368      30.616747154444933      51.906461072658196
    63   1      4.6338064423938992      28.804561421120152      2.4258690643698895
    64   1      3.1621360350516987      31.631860480479109      2.3587157808997454
    65   1      3.2413352972391336      33.408803592210319      51.809286316218667
    66   1      4.8922062795058761       36.08645535768035    0.065870874547637001
    67   1      4.8256038847827423      34.261051358149217      2.4321481202385455
    68   1      3.2558975308048272      37.253814832384805      2.7822278055694887
    69   1      3.1404136227178303      39.008540789944398      52.076425624067497
    70   1      4.9016440549196512      41.761903308625733      52.000119331250687
    71   1      4.7878576193160738      39.856568048149633      2.7948884710317943
    72   1      3.2618430862448391      42.736139559710793      2.3829852753799163
    73   1      3.3143136877381325      44.493597230456253        51.9426367265091
    74   1      4.8373013385969594      47.198820188108527    0.022525786061074901
    75   1      4.7723455865557582      45.644351125357943      2.6447159066552519
    76   1      3.0718952569356182      48.289606824042231      2.6920983045246554
    77   1      3.2470750524496719      49.976057484573737      51.866691706205835
    78   1      4.8087342134666384        52.6682079072758      52.026372677152025
    79   1      4.9750012578297254      51.184454706057444      2.5838595533097393
    80   1      3.3711624615363553      53.639628433985997      2.5560792764105775
    81   1       6.298169057276346     0.18226186292623262      52.094377635690861
    82   1      7.7430611043039326      2.9548977028443835      51.924159362722179
    83   1      7.7214103123560118      1.4160608123695986      2.7563084281540711
    84   1      6.2702492149398337       3.646944218801579       2.709648845739792
    85   1      6.3507513882762829      5.6099569223030414      52.024811416355256
    86   1      7.9859970614052482      8.2548944653199232    0.097617242874684054
    87   1      8.0672168616424891      6.4382236614445967      2.9537797562541801
    88   1      6.2185692034814801      9.1045369622695453      2.5788871737030621
    89   1      6.4805106665210319      10.944168255013546     0.16975112864690495
    90   1      8.0142009143963904      13.701005078548588    0.095037929523975884
    91   1      7.9087298202166441      11.885704325545536      2.8024010592122548
    92   1      6.4343661737270956       14.63561471773726      2.7117812644294736
    93   1      6.2810013167454617      16.546267495333606     0.33651632407065729
    94   1      7.8986232783040604      19.693307103808607    0.070750691782157552
    95   1       7.653782331066739      17.469933155737657      2.5058972242501354
    96   1      6.5650020489672283      20.245496931203427      2.5708375381495885
    97   1      6.2072817271921084      22.266462658113856      51.964989388181031
    98   1      8.0241935598854734      24.675272816475871      52.110602519052513
    99   1      7.8265085237121808      23.115136820604395      2.4569481725419222
   100   1      6.3420878258630626      26.073808273258475       2.612749102823996
   101   1      6.4745129139274082       27.62980835135436      52.049259954578957
   102   1      7.8927967937009829      30.545035026613196    0.041981071773479366
   103   1        7.98129576791061       28.87649984225795      2.7994554528838305
   104   1      6.1955808126724596      31.409453247900544      2.3734258747059722
   105   1      6.4956070492290561      33.586422029507368      52.036720363517226
   106   1      8.0430971861394926      36.186680362365685    0.087445954737275844
   107   1      7.9245188465530711      34.455066384955536      2.5895961877015954
   108   1      6.3916972917301837        37.1049010459759      2.6926090627189501
   109   1      6.7747277236657268      38.948169161150325     0.21195821731506093
   110   1      8.0410835801383929      41.917212487269673      52.093813547938311
   111   1      7.7693182191346635      39.992323709545545      2.6507248725683614
   112   1      6.6013068924906371      42.961074428521592      2.4827112740170865
   113   1       6.436163788447681       44.67022442863221      52.074727797379737
   114   1      7.8045025473965497      47.366789302641301      51.970080468848906
   115   1      8.1439658094431007      45.624616811239235      2.5561500757621354
   116   1      6.3438733462446564      48.417737261333365      2.5867434901753121
   117   1      6.3988550558236748      50.202177383506211      52.091079881907483
   118   1      8.1909969763325474      52.766262504319307      51.848286128983922
   119   1      8.0810378899207134      51.081414778405872      2.3228060537194608
   120   1      6.5259844116547185      53.819898723547155        2.36640756475949
   121   1      9.4829258741643958     0.12744334498906895      52.045328911913423
   122   1      11.347105494354828      2.8183723494549722      51.840965933424194
   123   1      11.368024719912711     0.84073018913329656      2.5403186464191512
   124   1       9.613480570552694      3.5149010945043813      2.7261857654766462
   125   1      9.5402956775948713      5.7296219499742307      52.046599220485206
   126   1      11.064032404186708      8.1955475168712706      51.884295492911249
   127   1      11.329940609452953       6.381503580328677      2.6559700100812424
   128   1       9.412978275409154       9.129497449590211       2.795674952275244
   129   1      9.8659418312623757       10.81778489898344     0.10190198352628532
   130   1      11.336418432285774      13.882946672088186    0.031172489283880146
   131   1      11.041244916890827      11.805059563322692      2.7484180623030614
   132   1       9.671892178114561      14.775383013575931      2.7031404923282056
   133   1      9.4960436998760951      16.936868748835344     0.07865116743976136
   134   1      11.240641990451014      19.442448338352644      52.073527250934951
   135   1      11.210388814663585      17.806710751982628      2.6211487611469821
   136   1      9.7847030206069725      20.429331549780013      2.5716769753896083
   137   1      9.8258203420396057      22.232720503418577      52.053715687517176
   138   1      11.318318027848798      24.727610397146218      52.094353710137931
   139   1      11.349252099230455      22.974131219243155      2.4927555370866576
   140   1      9.4944883740354538      25.608596921131355      2.4745994678821472
   141   1      9.5979973709986304      27.502291692136659      52.061415174575522
   142   1      10.930587791545769      30.389779608284506      52.000931292157809
   143   1      11.166544798843747      28.677523840388389      2.4470458493663907
   144   1      9.3501177435077061      31.688784066934748      2.4779937123649445
   145   1      9.4948633330166103      33.345354094931402     0.17625826731922625
   146   1      11.182510987677071       36.08487121236076      52.057320600464976
   147   1      11.198153209675656      34.663207581890461      2.5158262060945309
   148   1      9.5359901685243944        37.3434171310004      2.6081637299631537
   149   1      9.7281726095230443      39.079013945747434       52.11997280650052
   150   1      11.281623340451352       41.91195523738056      51.998454322350298
   151   1      11.160505285066153       40.20724842130771      2.6485000202369133
   152   1      9.7639551500437332      43.040964561633437      2.6782996755025161
   153   1      9.6650604408906098      44.639007804363622      52.055615751072885
   154   1      11.413840744982014      47.286578021430195       51.85756869513348
   155   1      11.472979984853367      45.627145666796039      2.4713223467532859
   156   1      9.5551478293825198      48.323570665600208      2.4108317502825045
   157   1      9.8048693322598233       49.90532612938641      51.717692345972843
   158   1      11.068821278718481      52.914130113520599      51.961765859197641
   159   1      11.401989893072136      50.879421825806141      2.3582504624324421
   160   1      9.6986651976237273      53.981143387290132      2.5455442981489909
   161   1      12.741159030297931      55.402479828788174    0.023457092078382417
   162   1      14.390249207442961      2.8640319828600784     0.12103109795516928
   163   1      14.397704762309655     0.85877187049561643      2.6796259392647448
   164   1      12.901137953202076      3.6358170173852757      2.5109969200185311
   165   1      12.843101799732002      5.4473096859203434      51.941937034319281
   166   1       14.17195859251664      8.1402476745850532      51.899063966289631
   167   1      14.454675562003953      6.2492210988576042      2.6203246144402681
   168   1      12.543467951841617      9.1323938425087725      2.7295276060497353
   169   1      12.883358358947129      11.362420096859433      0.3083783066418867
   170   1      14.372242484263158      13.869127463815744     0.18995641806116501
   171   1      13.997556926001119      11.771818051140936      3.1979983128443914
   172   1      12.912860804307128      14.900726554010594      2.6774655304615025
   173   1       12.88480189860309      16.823939378672392       51.97836720180279
   174   1      14.630790722868195      19.273205331063178      52.038964787634697
   175   1      14.419583035315224      17.553713078898667      2.5408266052180513
   176   1      13.131563878066398      20.287279480148502      2.3985992321569665
   177   1      13.128261872495502      22.290466284768911      52.112847542349144
   178   1      14.637293949290619      24.998409779702769      52.072730700855089
   179   1      14.441551822791023      23.025088245006078      2.8530435967404406
   180   1      12.858709182935504      25.902490297944869      2.5956777942356686
   181   1      12.695654510001546      27.577910763959125    0.069166053690783519
   182   1      14.664835103921565      30.696362048840687     0.27853742973398238
   183   1       14.19927055404963      28.958343198222313      2.7384742215138078
   184   1      12.586094032689113      31.754838756992349      2.6182027901703866
   185   1      12.595166489099361       33.25926231348209    0.034079472994998306
   186   1      14.324632804540837      36.513135903933296      52.122436692092336
   187   1      14.484716741670526      33.952819948299791      2.6116108840910441
   188   1      12.660135647095217      37.331434826799899      2.4257657611390484
   189   1      12.691951769345467      39.506762780912382      52.096800772199011
   190   1      14.593776712186164      41.924197162563651     0.12942248522218566
   191   1      14.444820588491982      39.874255835305476      2.4730716750083155
   192   1      12.821721321160261      42.714367516709707       2.263619189910683
   193   1      12.649690917096178       44.53618627329147      52.050524953447692
   194   1      14.628154702646658       47.14159166242618      52.105534105753804
   195   1      14.912134460229097      45.413248043226936      2.4746806710026292
   196   1      13.223498272692344      48.468954634711707      2.4308482939252132
   197   1      12.702107267696205      50.121452426885917      51.790132433067946
   198   1      14.318906764891917      52.963569179702624   0.0081831424725355584
   199   1      14.560063702340349        51.3853320153829      2.6380805223796728
   200   1      12.786419962685317      53.866589208746916      2.3829125839151635
   201   1      16.297716042281852     0.26473660691740208    0.025530314770523335
   202   1      17.511681219365343      3.0016607742619308    0.067721193011492306
   203   1      17.918345561356524      1.1800020569633134      2.7190102502906135
   204   1      16.092565706973186      3.6738920502472654      2.5898162195313619
   205   1       16.08340948295162      5.5251760956987139      52.069795759824899
   206   1      17.500674506785661      8.3755818663191981      52.102408074068997
   207   1      17.565455041326324      6.4448849065387925      2.7348676756737698
   208   1      16.074793113772412      9.0851776940754885      2.6169713178647318
   209   1      15.666079925589695      10.924851175854672    0.054594546613203732
   210   1      17.623215523422736      13.664105339396627      52.018459601966008
   211   1      17.304431410288558      11.988655221017719      2.6651598100212226
   212   1      15.982801136380711      14.884879162352229      2.5822434966782715
   213   1      15.979536512397216       16.62466117054327     0.12369650382805054
   214   1      17.753906123540634       19.42799651978957    0.035531037219610435
   215   1       17.99017775955878      17.516397272141369      2.4670119463511897
   216   1      16.314625829860436      20.233404766707903      2.7681344059354056
   217   1      16.026177284364856       22.02058580700167      0.1219501179817619
   218   1      17.926715714815536      25.029739080156851      52.074694050621986
   219   1      17.773793536486465      23.254018880317858      2.6460625503258055
   220   1      16.067465872145839      26.084642064997801      2.6575928217478184
   221   1      16.147877353000545      27.668963195712511      51.991172275044619
   222   1      17.716586398100329      30.804628832055723      52.072863543746791
   223   1      17.710564459448864      28.620711389801659      2.8039968927694425
   224   1      16.228454042969219      31.559467192954692       2.961980114763342
   225   1      15.835927402946684       33.49556114123542      52.116987614684597
   226   1      17.549151507708693       36.21251246916875    0.051400093900426512
   227   1      17.763123795844582      34.180558865923992      2.4351426280928452
   228   1      16.062145754855859      36.975222956247841      2.5210677539078632
   229   1      15.897609968890714      39.084005728084087      51.868220213284083
   230   1      17.596900960166003      41.590588917932386     0.12321211254496432
   231   1      17.707153957167684      39.884514504490447      2.6491485500353527
   232   1      16.105894159205647      42.628323532632436      2.6430526226210906
   233   1      16.318719845277787      44.562670784035944      52.049981977142991
   234   1      17.608809735770983       47.38148866422717      51.969453377056617
   235   1      17.942089622554143      45.440829735424295      2.3728661746556918
   236   1      16.008749794391832      48.242789277901089      2.4900748102773216
   237   1      16.150419465687115      50.063953215905201     0.14315154665305277
   238   1      17.553817918875197      53.036918417727449      52.080517602623019
   239   1       17.72402325318857      51.218014426167315      2.5535420151645596
   240   1      16.099302222065035      53.979324206852105      2.4696353591773552
   241   1      19.414804516677627     0.14015288220314981       52.12869640835607
   242   1      20.779286052653593      2.7977617641214909    0.091177306825495949
   243   1      20.920023094667755      0.8052805486514566      2.5079592246233133
   244   1      19.315757767591847      3.8716890481279522      2.5628758628556207
   245   1      19.176319680615034       5.654006300363946      52.102830065994304
   246   1      20.842104934522958       8.148732592361748      51.834575595577547
   247   1      20.943225302691364       6.429987189940964      2.7996459668268372
   248   1      19.553016621104494      9.2697225735435147      2.5297339150234031
   249   1      19.078242317881301      10.836284783941744      52.080277373105304
   250   1      20.501722203888267      13.814150661656733     0.13140530107822554
   251   1      20.834039505557236      12.090902549099855      2.9131726220859773
   252   1      19.211997970517906       14.61091348458098      2.7441036787917432
   253   1      19.431763761771673      16.515917236298591    0.034895460218789164
   254   1      21.004738043137028      19.225769586642908      52.058691708031681
   255   1      21.223418588237152      17.465797362615699      2.6320112917063678
   256   1      19.834414492437194      20.163924136522244      2.8667341967321933
   257   1       19.44988525523674        22.0291020358429     0.11600701438690676
   258   1      21.251881610997081      24.787752406492761      52.082432229564056
   259   1      20.995289633389692       23.25812143041221      2.7685148178227408
   260   1      19.448943589988815      25.980557776986373      2.5742790643873747
   261   1      19.136085319384431       27.79890919184442  0.00048320515123195942
   262   1      20.977138355216702      30.671064683239212    0.033389872621769533
   263   1      20.757173371110628      28.679100466165693      2.4926138099850488
   264   1      19.090290236701502      31.352542584389266      2.5426730063691347
   265   1      19.326447022469878      33.521170184411332      52.120661830111736
   266   1      20.892753934915579      36.032611213355956      52.073718360219679
   267   1      20.998024348648542      33.994139393222547      2.4865838706680083
   268   1      19.316521564424047      37.244676984638801      2.3591002802152694
   269   1      19.278642635114831      39.092714225035863    0.063633903347980414
   270   1      20.969651444893618      41.481014023081485    0.025179395374721088
   271   1      20.947794159321958      39.802644478517919       2.448340574060476
   272   1      19.451382221347274      42.465613312340267       2.330773517275714
   273   1      19.608312718335114      44.961850981146377      52.084413438625361
   274   1      21.018952326947421      47.528703842105102    0.036405741297933475
   275   1      21.064104449853581      45.699884510200079      2.5185857250721848
   276   1      19.118789235440655      48.232752731047839      2.4494980931765036
   277   1      19.311495545486551      50.122575258603419     0.14375848736369359
   278   1      20.719184746298712      52.807298851705461     0.19513695413909216
   279   1      20.695545666537267      51.170210249737778      2.7953239349552135
   280   1      19.352684612266096      53.752421353596091      2.4850819036063276
   281   1      22.820908405089433    0.050869458561849053     0.11112375648754753
   282   1      24.245283442888859      2.7113672590379645     0.31655989571486431
   283   1      24.194896947166558      1.0041356266813342      2.8144337599888307
   284   1       22.46964996198006      3.7895492248297651      2.8508166101966244
   285   1      22.403796681202255      5.4824849924469756      0.1554271889766437
   286   1       24.18687903757705      8.2586703859957886      52.092548035022212
   287   1      24.031001822834398      6.2558363129047967       2.614245828234131
   288   1       22.59618050257065      9.0757861931508668      2.5338106020055222
   289   1      22.250969707481151      11.280288335837408    0.045392514803674837
   290   1      23.964825411228968      13.654513713513015      51.992090659426061
   291   1      23.844539076583132      12.032635196296393       2.536514673664632
   292   1      22.347456559847338      14.730223073633192      2.8926354747364447
   293   1      22.635583892032102      16.283261726134864    0.062219999715015815
   294   1       24.09374548994407      19.218994327238192     0.28972019259675486
   295   1      24.374053185799848      17.459453613101889       2.784044760461978
   296   1      22.767551974156696      20.197910658781705      2.6726127145743384
   297   1      22.464990710285914       22.11873809883657     0.26377500380030905
   298   1      24.384751159541967      24.945901889718449     0.32437015441086603
   299   1      23.902075011638829      23.170511839603481      2.5510141057917473
   300   1      22.385391561172757      25.860369313690079      2.5957358355653559
   301   1      22.405404606069929      27.429735826740878    0.077802053635100427
   302   1      24.206234369903679      30.705068148386836        0.17962058023096
   303   1      24.133838427288829       28.47322949508575      2.4828288323138832
   304   1      22.743847226014758      31.478933135575279      2.7285414698208204
   305   1       22.83962022344209      33.456766215914456      52.065421398015701
   306   1      24.231271762694867      36.042285919107421      52.036352132922325
   307   1      24.026061289704959      34.188962921789297       2.574787502904154
   308   1      22.462647029179539      36.942530423702166      2.4283532593264217
   309   1      22.797072965788931      38.635366193347366      52.018789053939258
   310   1      24.223413550890804      41.827503989606946    0.063604487528097373
   311   1      23.882447730491876       39.97277917191942      2.5263159250033786
   312   1      22.544979831901674      42.596839957692197      2.6940726044045142
   313   1      22.615496485665656      44.486831423612465      51.943102122308858
   314   1      24.160378226973517      47.355694726825163      52.073401529495591
   315   1      24.399978357490003      45.435696503604177      2.4146314169017211
   316   1      22.650082100981923      50.159105376072631     0.14396180633196323
   317   1      24.123822088009724      52.816784340132401    0.014848276267776425
   318   1      24.210085401981171      51.118677362076419       2.630180776605139
   319   1      22.587336550699472      53.625047576553222      2.5256437148300135
   320   1      25.980099792277638    0.047290733943916322     0.30727306530100479
   321   1      27.221018981634742      2.6408485039086851     0.19963433139454356
   322   1       27.29317226126042      1.2457603235159325      2.9949140186396721
   323   1      25.840510761004502      3.7467641733787951      2.6618063818113016
   324   1       25.56625900321977      5.5835710817147941      52.071953965555316
   325   1      27.260942283374867      8.2132650967400043     0.12685547574849124
   326   1      27.503041131500837      6.4167749307025312      2.7077886137622831
   327   1      25.765196029890088      9.2044939805163413      2.4055682344258371
   328   1      25.824464305678145      11.191954369882344     0.13536880011291599
   329   1      27.034869576362059       13.96781779234389      52.120437887595067
   330   1      27.390242197332881       11.98582547831332      2.7754578125065423
   331   1      25.322152759599728      14.591317235823039      2.5220743640281746
   332   1      25.471842097189192      16.567120443559396     0.22418820347440591
   333   1      27.434639349021637      19.585753210037893     0.18532630273672579
   334   1      27.268288730389685      17.289573350470711      2.7488670715240446
   335   1      26.026246302514807      20.376080814908047      2.6569171718460076
   336   1      25.738339707623474      21.987683741826817      51.841239587924093
   337   1      27.244230140237754        24.9089041525447      52.099499204817235
   338   1      27.408577365443534      22.912779067048625      2.5693046721987232
   339   1      25.885953011696397      25.727740139603082      2.7050437322191185
   340   1      25.860030800258386      27.637929436612239    0.059837785286269214
   341   1      27.668922344626353      30.171923071310033     0.18646531407332864
   342   1       27.29877530284897      28.488774282662579       2.646355718181959
   343   1      25.954209542857704      31.377109871391294       2.548528755035393
   344   1      25.825143773870252      33.306314629689233      52.115839573792634
   345   1      27.358989274662271      36.134601314359372     0.17293675438237513
   346   1       27.46331161511209      34.258044678714057       2.529332375725069
   347   1      25.554817115728408      37.062103126875449      2.4671945863519822
   348   1      25.713142796273608      38.970592506064285      51.960138215006381
   349   1      27.467383027945381      41.506853628511109      52.106535836556432
   350   1      27.198087916487651      39.880927940349565      2.6663351095820187
   351   1      25.799728434377133      42.747364612903205        2.64155160524601
   352   1      25.872771297544251      44.494947488556271     0.10781798699021193
   353   1      27.351840094038469      47.247010497400915      51.992512944143186
   354   1      27.353368504605676      45.286879938396595      2.7719988429433875
   355   1      25.590601856072151       48.22971922707228      2.3525488644194419
   356   1      25.890286975291289      50.045920361446612      51.903790768342674
   357   1      27.345092830432222      52.952753396004077    0.051897932165697588
   358   1      27.270535791112813      50.993155772250908       2.608895093089596
   359   1      25.638699810580601      53.787315105759696      2.5835726470804934