dump/Mg_500_20/steps_31 (written by ASE) 

3980 	 atoms 
1  atom types
0.0      32.100000000000001  xlo xhi
0.0      55.598830921999998  ylo yhi
0.0      52.130399999999995  zlo zhi


Atoms 

     1   1    0.050730365806353865     0.19374428655441425      51.931977876973285
     2   1      1.8699842138651126      2.6016363810093943      52.130098726310919
     3   1      1.5309194986747117     0.83541243865969161      2.5724794925710452
     4   1     0.30386855453235789      3.7052615541789131      2.5656874075467355
     5   1      32.032428497309837      5.6647832951291113      52.062594611125185
     6   1       1.380890856240071      8.3196638595009365      52.014372019519548
     7   1      1.5646192402959056      6.3961734078384138      2.6497166920452471
     8   1     0.16001337789371148      9.1269247653177601      2.5694156494814195
     9   1       31.82583459392044      11.074696201892271      51.947257669614515
    10   1      1.2937455873998065      13.758233833305011      52.081725831959098
    11   1      1.5928888621048616      11.938466260127491      2.5411117954353251
    12   1      31.963689693139486      15.091133952166713      2.4191211173198401
    13   1      31.951214089682392      16.511743207653048       51.88810225640546
    14   1      1.6529040939280031      19.436050831753608      52.006615519780397
    15   1      1.5952219679313802      17.694809289726535      2.5616220684788189
    16   1     0.12650116071574913      20.262654994848493      2.7094042321023943
    17   1    0.067185639391213872      22.318546412698534      52.120291259487587
    18   1      1.5851546516105519      24.966074174634585      52.086341970083417
    19   1      1.7531792715424932      23.166941908850159      2.4692597814800648
    20   1     0.21405129899791461      25.774023557336871      2.6526420134144542
    21   1     0.20304058476273715      27.766238721725706      52.103022351291315
    22   1       1.829513177647961      30.390271044428079    0.010702873812354862
    23   1      1.6347555655821377      28.610941593969471      2.6551029091852114
    24   1      31.971297616184824      31.155353658335123       2.506152914988482
    25   1      32.004891042994998      33.296788929687658      51.987382577767058
    26   1      1.4828484829596891       36.12117348754775      51.923638303794839
    27   1      1.5392129303248936      34.309662690079207      2.5254625700538567
    28   1      31.960706500221878      36.946397769803809      2.5693642378227248
    29   1      32.030468838696713      38.994688137685415     0.14274159648573062
    30   1       1.457594100156453      41.700761694847507     0.17519645189064109
    31   1      1.3846627593115524      40.073059258806737      2.7074133016154875
    32   1     0.10980115128679993      42.709495699553933       2.869607519810041
    33   1      32.023948535791348      44.629202520392958     0.27626349950281548
    34   1      1.6568952829693049       47.34039416207758      52.114947139897041
    35   1      1.7610092731277547      45.417413079583532      2.5859823950658454
    36   1      32.061871195813637      48.254002342163027       2.700400070186602
    37   1    0.026270347134848968      49.902918009971444    0.093722685570826081
    38   1      1.5875305048754098      53.082108971929912      0.0567401056221652
    39   1      1.5130299490944858      51.149017543632851      2.6064784543039554
    40   1    0.067565625735350215      53.851596131485145      2.4077472559912447
    41   1      3.3515680148825284    0.051393039610831873     0.07661368396082123
    42   1      4.8108006930278719      2.7038718442962448     0.25530579685097959
    43   1      4.7548979953344626     0.89475938174196923      2.7204352473521412
    44   1      3.2156047745585785      3.7208788408658005      2.8419095631427247
    45   1      3.2225501660170845      5.5288408075314068   0.0048260462023469687
    46   1       4.613411762771503      8.0432462370629381      52.038892495704701
    47   1      4.7650165721929101      6.5387207369724711      2.7562453634710233
    48   1      3.1099220852519234      9.1115289362362102      2.3703496190762126
    49   1      2.8075753712643063      11.050992500300087     0.28589955722002197
    50   1      4.5599310918908458      13.682320756469487     0.10264530258255662
    51   1      4.9432471240309397       11.82061815111531      2.5725103192927499
    52   1      3.1768999901244479      14.708955596102287      2.4721741195832343
    53   1      2.9077193155001897      16.664203614246876      52.054560658213809
    54   1      5.0099119958458997      19.212608669524801      51.812599260101237
    55   1       4.694061542659969      17.502004898984534      2.4221116579065587
    56   1      3.2230921156396821      20.414955902617585      2.5530394476504927
    57   1      3.4897644727174559      22.032266405946302      52.126517268763614
    58   1      4.8672517493754093      24.770190775428933     0.22035548093053287
    59   1      5.1365340274392199      23.001980902550262      2.6139331340455492
    60   1      3.2518772243570679      25.543927315537715      2.6330321568926394
    61   1      3.2058657233104815      27.474292076436026     0.07610078906501308
    62   1      5.1431180959370604       30.63494757852499     0.12428851709487988
    63   1      4.7053115408914321      28.399433292975967      2.6426121566917056
    64   1      3.3950715990189479      31.520153385976275      2.4771095216261085
    65   1      3.3623202833903663      33.135535265590363      51.841198199307442
    66   1      4.6239784435411524       36.04207215941895    0.089549400236662469
    67   1      4.8905258640471052      34.116130079391652      2.6810862190477081
    68   1      2.8388028410499406      37.167697185104473      2.5518683916703697
    69   1      3.1378780127123331      38.990497874473029      52.035087298313599
    70   1      5.0253713521618772      41.517352145052286    0.021387376463891272
    71   1       4.843968522939945       39.95089468358313      2.7543706717544869
    72   1      3.0775432084636503      42.662771261905391      2.7865722613065138
    73   1      3.0145436524543756       44.11951763107043      52.051270030709944
    74   1       4.727495045043824      47.400806505630612      52.108620997683268
    75   1      5.0049449652604467      45.825245740540566      2.6021317325305287
    76   1      3.0664630086888938      48.195004608768684      2.6456632470044528
    77   1      3.1304379578944155      50.435595013594863     0.22953851151688831
    78   1      4.9482335007307165       53.17215184734939      51.950442297608014
    79   1      4.7899155475036661      50.995662490244705       2.734580435649923
    80   1      3.5586594885118106       53.89768412847436      2.5338470869790002
    81   1      6.5598400953609213     0.17302645074385969      52.066882656471968
    82   1      7.9458302153877307      3.0570572402769103      52.043244787148858
    83   1      7.8532304532469324     0.88339073243407207      2.6248068946995176
    84   1      6.3755796274927237      3.7894486693204161      2.5769777700501932
    85   1      6.1705848703670725      5.6678877290371545    0.067343375544227382
    86   1      7.9027072091145305      8.2094676294821358      51.936248424775755
    87   1      8.0515078249194296      6.5299825678465098      2.6506562275082852
    88   1      6.5607373745040407      9.0411330927860334      2.4604329565441994
    89   1      6.0945596834875637      10.886906679449988      52.071076431711042
    90   1      7.7321871162298788      13.830699046088078     0.18819131064736075
    91   1      7.8958856879542054      12.088243414224442        2.61637211909447
    92   1      6.1966943729126926      14.727311217475428      2.6440892724600409
    93   1      6.2700862231548298      16.377865018001764    0.034778073483483343
    94   1      8.1514991376269776      19.322484175434671      52.078109002818927
    95   1      7.9528574106925705      17.434230813795722      2.4668401625751075
    96   1       6.211263647755656      20.116680637387983      2.3444944026945342
    97   1      6.3946298854813843      22.140083795940097      51.782993992901744
    98   1      7.8581079493542836      24.879403131823352    0.032944805907278774
    99   1      8.1791883886691359      22.902095322540216      2.4768232835550203
   100   1      6.7400465898647655      25.664705410115193      2.5548870574187261
   101   1      6.3395961302514126      27.652639396230704      52.107859381106401
   102   1      8.1569110908888884      30.553672048446082    0.024047022907105118
   103   1      7.9335817895705949      28.657422554358984      2.6143036624904998
   104   1      6.6567632091444278      31.574578976738003      2.7166947854187722
   105   1      6.5819620990744863      33.392150919450621      52.051029331753931
   106   1      7.8354395856721979       36.26230914322408     0.15321975544653857
   107   1      8.1890301545064492      34.315566089575107      2.7303536609009318
   108   1      6.0915675298599314      37.179865175641666      2.5896087509951302
   109   1      6.1193837665898654      38.894185370865785      52.075717312767857
   110   1      8.0359172205872884      41.480642848054856    0.027843472244640812
   111   1      7.7885485508689731      39.779283328622945      2.5128974725730715
   112   1      6.3248096943514653      42.764770327828387       2.633941423997046
   113   1      6.3722683340624071      44.343240262807484    0.040456372352190705
   114   1      7.9917742971516299      47.138513349996131      52.011901802017981
   115   1      8.0538571507489589      45.456053474562758      2.4528697814483209
   116   1      6.4763486216355481      48.285894164312595      2.6798657160747905
   117   1      6.1479943288013006      50.385141859733672   0.0019008656773737106
   118   1       8.146601337061135      53.102799680292044      52.096560283884081
   119   1      7.8848486268971829      50.959160361250838      2.8476762280196626
   120   1      6.5626812573821045      53.808580677426356      2.5977359536239857
   121   1      9.6015155929782683    0.047409288885068769      52.023837416708979
   122   1       11.06648363024258       2.764421939455413    0.058735484848786414
   123   1      11.065493455962832       1.103056841147892      2.6717790770229737
   124   1      9.5929004786235677      3.7434215724064313      2.5042466561534873
   125   1      9.5681867302837809      5.7132374367876704       51.82759385358203
   126   1      11.175476810477095      8.6000168149828422      52.077005979192393
   127   1      11.004361416753882      6.3499254339718716      2.5818049375302632
   128   1      9.7867049357263127      9.3364262393319013      2.6117379343644558
   129   1      9.3342760730054213       11.13773009051674      52.094373877401985
   130   1      11.216407449918377      13.727420237576965      52.016926853227289
   131   1      11.235953562982761      12.210440726320515       2.401544341171614
   132   1      9.6301767982504245       14.61284863177854       2.536336902464877
   133   1      9.5733821217407957      16.591935000017624      52.112137892175888
   134   1      10.993261856566656      19.354522841626949      51.977547686290265
   135   1      11.292321359241006      17.441176224012594      2.3320283998127258
   136   1      9.4567025021821944      20.147287371124051      2.4571953052849165
   137   1      9.5988004610486257      22.162764446425207      52.082200899970452
   138   1      11.129295493175947      24.999042187757603     0.19984708725223832
   139   1      11.147044235270627      23.001884514355481      2.5039001424055241
   140   1      9.7123679024294773      25.787891977215857      2.7205261551942557
   141   1      9.4079916999440396      27.735860197254446       52.10260844362336
   142   1      11.141074964272232       30.64583503609536     0.18742183814200622
   143   1      11.252129996104181      28.647909465405437      2.5778979902841721
   144   1      9.8539215291347517      31.307338890392824      2.7982824582908834
   145   1      9.4989578097443061      33.697992993684466      52.076037239644023
   146   1      11.002358446739555      36.441462181997402     0.26720943753393073
   147   1      11.325988115092677       34.37729523589568      3.0314032800923658
   148   1      9.3698697117023588      37.166505510897998      2.8685612675474657
   149   1      9.3091720004645353      38.839519353795446      0.1116012187323059
   150   1      11.294477076187018      41.843664817156274     0.14640085931681729
   151   1      11.223990973041353       39.79751708134026      2.6154567265431949
   152   1      9.2664630280024021      42.665400261585013       2.418739968081991
   153   1      9.4181836836024484      44.498324258827033      51.980550890770587
   154   1       11.09520048766985      47.196397434036342    0.076013281065727925
   155   1      11.029963007841618      45.323711733107707       2.531239370274851
   156   1      9.4227630893689476      48.231814763014086      2.8213179079320376
   157   1      9.4283854735137265      50.158628757227376    0.021772775440087318
   158   1      11.431438181589858      52.696286450130891    0.081539655912012857
   159   1      11.047299470943184      50.853245507537771      2.7105854379288177
   160   1      9.6740998875915896      53.727834681738187      2.6831092927661357
   161   1      12.785270435133123     0.11530600381129234   0.0097245574993089466
   162   1      14.500591102808647      3.0671916917107307    0.047835875156551237
   163   1      14.628467962321418      1.0677837990350783      2.4857453996851961
   164   1      12.685512815986462      3.6787932995996444      2.6386969364101782
   165   1      12.554864842659438      5.4926951877324255    0.042371455497550947
   166   1      14.485248428576224      8.3841978746899635    0.027055507902253809
   167   1      14.032638162645084      6.5494198913973598      2.6974192977592084
   168   1      12.705392282854008      9.4948508864726637      2.6665348023491777
   169   1       12.90356566458159      11.062182591729554    0.050606383190466737
   170   1      14.380401822679767      13.752872444973992      52.055985954500429
   171   1      14.665437605214677      12.022903462954378      2.5245189933125984
   172   1      12.736379131004233      14.754788888779879      2.4299933549477681
   173   1      12.836312803143999      16.498126688691563      52.078222369365612
   174   1      14.174564093102786       19.35845420791706      52.096738910236198
   175   1      14.492148329743149      17.767324460008656      2.4175889955113021
   176   1      12.927812704957811      20.448176898105888      2.4010801888696474
   177   1      12.893607774605814      22.266448477407796      52.086883139477827
   178   1      14.583258844679811      24.946120198912023    0.044095517832543916
   179   1      14.538271820297767      22.994321708310945      2.5944381683558499
   180   1      12.838084409662008      25.982543939326412      2.5685917050297467
   181   1      12.672692696587447      28.012292554080062    0.069203216624913605
   182   1       14.32580135511602      30.407614806135008      0.1734575358972639
   183   1      14.353555857702922      28.764578337606359      2.6804282463147691
   184   1      12.759247041587331      31.569966488945827      2.7914238761032406
   185   1      12.337110252023331      33.646365217659884      0.2345182389904972
   186   1      14.288160436837678      36.386264395690489    0.002497990004432629
   187   1      14.473650089667698      34.166658777201114      2.5055791743596658
   188   1      12.816158654872165      37.093134400975678      2.7968268986298459
   189   1      12.672707553883956      39.019647848432093     0.18731147467109252
   190   1      14.578463076048923      41.834874494109918      51.917198022841745
   191   1      14.707903014218447      39.863212224880321       2.666714909453312
   192   1      12.983068654501428        42.4245281129284      2.5757208717960589
   193   1      12.794888212896662      44.576723121297128     0.16030532136094169
   194   1      14.378793062476459      47.066188230500153     0.21624520355649754
   195   1        14.4144138001513       45.41127389296436      2.6478003668333487
   196   1      12.636711557850104       47.99509914382265      2.6631566891683334
   197   1      12.961583425924218      49.910625314901303     0.16131561139460074
   198   1      14.542318828772968      52.690719379829424   0.0042439003406850124
   199   1      14.463553301869766      50.763022202400769       2.636385720073593
   200   1      12.567791492372564       54.07109309172904      2.6265841672440984
   201   1      16.106408556966294      55.485646179211862     0.02349050025288971
   202   1       17.81407534908406      2.5731401558485145      51.863548186876969
   203   1      17.619730025824417       1.021989374080343       2.490091088924915
   204   1      16.216373787748008      3.9232877519982106      2.4601793160984027
   205   1      16.434010715005652      5.7818458594616882    0.057078881086423922
   206   1      17.762254804549201      8.5963422671724139     0.16081776933041741
   207   1       17.85046809241511      6.3953235921272702      2.5385959164415395
   208   1      16.031673331551758       9.253452875001523      2.7363179363854715
   209   1      16.049301730792955      11.093361889198768      51.868400043921028
   210   1      17.557695980939659      13.858220517550508     0.16057020931942148
   211   1      17.824911367544022      11.964031849477722      2.6266200437041243
   212   1      16.085441080608049      15.071287513300224      2.4683832411047066
   213   1      15.931879329096695      16.776195818189287      52.022322424756275
   214   1      17.462793339590707      19.520717591236647     0.17232726010330435
   215   1      17.432911805443574      17.634630153148894      2.6325505339083968
   216   1      15.964476789307954      20.411365400931537      2.6026932398733553
   217   1       15.92491790653272      22.195629291149004    0.011833264741213125
   218   1      17.681566599013227      25.063714484208891      51.995697627638769
   219   1      17.863116579023835      23.288379348445581      2.7462966300619671
   220   1      16.362054795380317      25.823121883208135      2.6364706683645531
   221   1      16.211136760914705      27.801409193246858      52.044304032995512
   222   1      17.605420979834701      30.547169220760452   0.0010940498221483712
   223   1      17.730240705690225      28.554102807058861      2.3972991698132398
   224   1      16.085916317695226      31.373714496315213      2.7031745398163975
   225   1      15.849068270423098      33.218792833038094      51.984903111125895
   226   1      17.635237247993011      36.156480196052726      52.009367049366851
   227   1      17.560020781077551      34.205879031678421       2.478021582454212
   228   1      15.916925181418687      36.731903725526855      2.5472405397094602
   229   1      15.935364755762636      39.023041250181457      51.951111165147459
   230   1      17.655812281003222      41.899814010987974      52.099947816308081
   231   1      17.700522277019907      39.873394955215261      2.3941805796020961
   232   1       16.06227891493668       42.86823215842935      2.5867163458679521
   233   1      15.970816251736151      44.601359525966636     0.20140257553649216
   234   1      17.663326226856636      47.220796693268731    0.035467894898886597
   235   1      17.569277115773104      45.495876997876259      2.6411998105831698
   236   1      15.893610129746323      48.327476291521897      2.6900222732035681
   237   1      16.024624954467011      49.976014764915384       52.05686066341481
   238   1      17.628297834512356      52.521273856218144      52.008897375618389
   239   1      17.513635731570108      50.992004089646969      2.4331932883057616
   240   1      15.874808539835682      53.675279854176146      2.7781895602259139
   241   1      19.482471661643817      55.502434350828054      51.910635129245648
   242   1      21.032558937474437      2.5826782508323518      51.968013519734541
   243   1      20.917904539578352     0.99425593935442291      2.4008528752242451
   244   1      19.670171371123583      3.5718624874617992      2.5332250408979569
   245   1      19.444619022580589      5.2876247587874472     0.10820847185069425
   246   1      20.783642704059329      8.1409535654900012      52.010283213586256
   247   1       21.24190210330493      6.4364388071506751      2.4447111041135465
   248   1      19.414766402279323      9.2379469608363269      2.5997567563395747
   249   1      19.230476575319329      11.126614896652203      52.017019182052273
   250   1      21.034030325812008      13.916983388000167      51.896923852200686
   251   1      20.873107981174186      12.261563829926059        2.41567762838377
   252   1       19.22513935634403      14.827190441252375      2.4204475264186165
   253   1       19.22201320994207      16.527029704351154    0.023188377097973178
   254   1      20.919768626616072      19.739803016832273    0.034340630931234656
   255   1      20.543546864597953      17.883509104735918      2.4442724686317034
   256   1      18.960968949270651      20.505458671785433      2.6526548594039601
   257   1      19.154180529347514      22.239327602909849     0.12886338713653339
   258   1      20.735540894347341      24.937143965397752      52.130065060005961
   259   1      21.009170457295799       23.17840795645709      2.5038580898563443
   260   1      19.484113030336182      25.835540461505211      2.6121400430847865
   261   1      19.387764984324903      27.871011526007873      51.994875195927627
   262   1      20.788672105573401      30.615518238170093      51.975452627192148
   263   1      20.888983641297543      28.802307481264787      2.5717139281982533
   264   1       19.13654681015689      31.388787918164159      2.4870740021254334
   265   1      19.194457125815951      33.301698687391628    0.024595458050302742
   266   1      20.753061699693991      36.050914315058733     0.06624679030664235
   267   1      20.703941968326454       34.10067613230872      2.6102717414884875
   268   1      18.974595486333399      36.930869995232449      2.7763933761326394
   269   1      19.245477518547354      38.892387823851983     0.02957383628774116
   270   1      20.828795864872781      41.656382977825977      52.116253793306257
   271   1      20.829990575459703       39.74875975478308      2.6260920761464837
   272   1      19.288621041922902      42.566232967999419      2.6588442478613206
   273   1      19.161976094529336      44.504939183872104     0.12224514255188554
   274   1      20.859547840489334      47.205680644766431      52.036048992737534
   275   1      20.660470862335359      45.196890106494742      2.5414428403796498
   276   1      19.118177530106351      48.020350004837589      2.6894909414275321
   277   1      19.381572567288565      49.701919483733541     0.13004083418513995
   278   1      20.884667911561589      52.822635254463499    0.047453390420249708
   279   1      20.795888567640404      51.159943253963746      2.7402815035575974
   280   1      19.063200665196693      53.854673555234605      2.3292192466939898
   281   1      22.576479534094755      55.531843227094754      52.000885983371781
   282   1       24.14504186471817      2.7300946741103846      52.010606606030585
   283   1      24.313627953336944     0.62433556058215367      2.4630875368385041
   284   1      22.762272608560856       3.320040923952273      2.3001916993062106
   285   1      22.689670231255548      5.1689342319488896      51.955884730392107
   286   1      23.894632069446228      7.9105380945463475    0.059645185100317376
   287   1      24.098219049941083      6.1433638433060835      2.7578852805849792
   288   1      22.630237884523002      8.9711011259300868       2.361157506653536
   289   1      22.297886497262375       11.04897505501707      52.098154786550701
   290   1       23.97825730199725      13.946665276196212      51.951860132943416
   291   1      24.075061770311702      11.709288562158969      2.3041639722045493
   292   1       22.82072118162613      14.664201084545571      2.4678869299666406
   293   1      22.517009720752281      16.799538159791535      52.014121817267238
   294   1      24.173521614813403      19.396866235761816       52.12696771989706
   295   1      24.061380480252939      17.674373341508158      2.4001499593017139
   296   1      22.406603505370651      20.317273965805704      2.7015259936300984
   297   1      22.421126121776865      22.517869671604775     0.10316872984135725
   298   1      24.165525198307737      25.129461779545551    0.023877110199070364
   299   1      24.278586865854255      23.138038155982873      2.8406849646755963
   300   1      22.444128295671405      25.820969715373938      2.4010589024851332
   301   1       22.30111458300075      27.768750323970831      51.986891449003288
   302   1      24.190669575534219      30.901130873669711     0.10458584451535549
   303   1      23.771277690798438      28.843768170028273      2.5510554078690504
   304   1       22.68784553145743      31.625383660635141      2.7450921605023311
   305   1      22.395807906317117      33.384262306659529     0.15909594878634734
   306   1      24.131251770411339       36.11749332208354      52.058091430222134
   307   1      23.956579103953278      34.058845444172384      2.8709394184616168
   308   1      22.278665714706328      36.734603241198847      2.7604640694842772
   309   1      22.509086280671728      38.956844458195341     0.25863297716647377
   310   1      24.248473076708109      41.685324986873361     0.12915397410883742
   311   1      24.073098768126286      39.943661249140142      2.7224213759012326
   312   1       22.45632498008732      42.566004571036856      2.3513449057157305
   313   1      22.347301254168386      44.255770170992662      51.929000360187104
   314   1      24.224360023449755      47.170271214588674      52.120237439182155
   315   1      24.235712159038535       45.40524743835649      2.3313639824472379
   316   1      22.463126254357565      49.983618427628336    0.020585083987230222
   317   1       24.18250267833362      52.697074119888342      51.966479671198847
   318   1      24.316587466149588      51.019226941246195      2.7902959796670563
   319   1      22.392103803173523      53.821041497278536      2.7116231149201773
   320   1      25.748688635222244     0.01686562586280084      52.000251915069597
   321   1      27.123115383994094      2.9713647292910097      0.3170775393992718
   322   1      27.213483206358983      1.0262284645975581      2.7023866265844934
   323   1       25.72643265986045      3.5770001537158316       2.887952380456019
   324   1      25.891390644318147      5.5462398083429498      52.051432352023568
   325   1      27.093971041417834      8.4302218170799836     0.04898183899465422
   326   1       27.16779881430471      6.5498470680006742      2.6896785821245226
   327   1       25.76507058588378      9.0697131576068575      2.5046903046468789
   328   1      25.777384370240831       11.16606453450585      51.923658567128115
   329   1       27.24803925138114      14.093691783212918      51.902497953405117
   330   1      27.314472039778416      11.677724864006761      2.3532949107925276
   331   1      25.846085485408224      14.412878594782828      2.5314398421094442
   332   1      25.554042975411949      16.767237347517163      52.053326021363787
   333   1      27.250185922101952      19.591315296983346      52.063605445576762
   334   1      27.189236554328104      17.403373173362088      2.3771924486737621
   335   1      25.427039047183364      20.269583484363405      2.7482042708772658
   336   1      25.652276050139339      22.183735250638232   0.0064710324877434028
   337   1      27.186579026841326      25.219875520345532      52.069710880812259
   338   1      27.404046887325467      22.869773049381983      2.5152481827580266
   339   1      25.575397256493133      25.961509121163605      2.6575200216673642
   340   1      25.550593956643727      27.868980211491561      52.052649415567345
   341   1      27.264042411556822      30.584806883938406      0.0113185773514303
   342   1      27.126886371732567      28.546449444093042      2.3965709482332214
   343   1      25.746687534600795      31.438237053291683      2.6748491716229155
   344   1      25.798433426255066      33.486790750032732      52.122294340647464
   345   1      27.264788737408004      36.060003960999055      52.113574139852645
   346   1       27.32711800516973      34.202520548628023      2.6421414261196285
   347   1      25.502688693726103      36.997092290896148      2.6110978915614118
   348   1      25.736199054585441      38.804018495366478      0.1260569236003275
   349   1      27.309095975046382      41.561238523274206      51.960804122493755
   350   1      27.363448013717598      40.030986027292464      2.8019248275484028
   351   1      25.606281685764404      42.486892100352691      2.6083383167794527
   352   1      25.827594573945099      44.380838049365579    0.040952568307945768
   353   1      27.323276863674231      47.051954031765582      0.2345220248407508
   354   1      27.327398301463706      45.152377927180503      2.6711988780475906
   355   1      25.766969619850375      48.340794967971703      2.6755998896447517
   356   1      25.862605747576772      50.102836873778003    0.024000432311172982
   357   1      27.432128616384468      53.318903209337719      52.018033674423798
   358   1      27.344113294438323       51.18438332202205      2.6188379483722373
   359   1      25.605107916753653      53.544996813847234       2.542880596369808