dump/Mg_500_20/steps_81 (written by ASE) 

3980 	 atoms 
1  atom types
0.0      32.100000000000001  xlo xhi
0.0      55.598830921999998  ylo yhi
0.0      52.130399999999995  zlo zhi


Atoms 

     1   1      31.712150258237365      55.304409556535582    0.051381813249731935
     2   1      1.6730381245039578       2.598109065702479      52.111275042659848
     3   1      1.4715940712547984      0.5680924082103409      2.4306489657765935
     4   1      32.048161188977417      3.2399234051072527      2.6530754808642363
     5   1      32.078305549711068      5.4224022878044273    0.043855326656579839
     6   1       1.826939628026029      8.0155113039972736      52.060014892813967
     7   1      1.7176484908270482      6.2062271203406896       2.391482398651454
     8   1      32.029055020166069      8.7854076285184526      2.5138174105140854
     9   1      32.062854429965057      10.714114309792606      52.127389109214711
    10   1      1.6424610275971196      13.641780369069387   0.0087904102155979477
    11   1      1.7204105217730226      11.671032642796519      2.6180916645345347
    12   1    0.030953991961701975      14.666359403046027      2.5664367466819153
    13   1      31.821715805473307      16.667374660886402      52.057601246931206
    14   1      1.4819522777574998      19.108961395889519     0.26475010530304105
    15   1      1.8740472672986954      17.389068433528784      2.5722638910138933
    16   1      31.938532565421347      20.388824406665332      2.4927356995930867
    17   1      32.033267630342891      22.436265916742443      52.107941146382942
    18   1      1.2170308569651329      25.209114955095064      51.984527062653868
    19   1      1.6683767196619572      23.268773397996494      2.6194792419656907
    20   1      31.968432722661298        25.9836952132428      2.6482552710002705
    21   1      31.893907567274873      27.880131787156046    0.085642459491987163
    22   1      1.8489899673862749      30.344150642607271    0.036897125003695672
    23   1       1.472742180641367      28.843461539163719      2.7022498976306633
    24   1      32.014191303568865      31.367603161230019      2.7241681692208775
    25   1     0.33247608969397308       33.29562912560003      51.923384590544451
    26   1      1.7853752757363293      35.896188456442161     0.13043492934582443
    27   1      1.8214596117985959      34.189022824161761      2.7494967716904317
    28   1    0.076867870116407291      36.942780213649918      2.5936480106127435
    29   1      32.048375925327619      38.514415221222869     0.15203582849060995
    30   1      1.5849611942698312      41.695751289040004    0.086985689439754016
    31   1      1.4810640510835944       39.72122888629476       2.588667669392545
    32   1     0.20574385581672061      42.597637054379476      2.7892278012795697
    33   1      0.1064633860116433      44.244470917122207      52.065414724209759
    34   1      1.4880757575066841      47.210012163949266     0.21040164494212432
    35   1      1.7365677277269516      45.500877142843464      2.6818161922878394
    36   1    0.046769526329902437      48.055172604745337      2.6189105759488811
    37   1     0.19520495910601621      50.120960713345312    0.027966080830920954
    38   1       1.509476303792822      52.851634659070022      52.027314131077652
    39   1      1.4699404785621066      51.044823577417574      2.7303233264910043
    40   1       32.06227751997303      53.732251275941586      2.5230035465186718
    41   1      3.1566816759741836      55.497982466098229      52.112701099819425
    42   1      4.7239454410477979      2.4898743423520426     0.13716371142831643
    43   1       4.827702014718799     0.52437442842570081      2.5214480884894064
    44   1      3.0959147116346575      3.4328807817405593      2.5413722840695829
    45   1      3.5825814039729678      5.4478672787962346      51.616584561565674
    46   1      5.0326206168924292      8.2087651164802136      52.117736749303745
    47   1      4.7808292086690152      6.2503365750210831      2.2257626178804766
    48   1      3.0257539343261901      9.0474917479068449      2.5034675547684313
    49   1       3.300389485399629      10.898189722355699    0.012468057524438986
    50   1      4.7638523027694628      13.727192079176145      51.993470338909546
    51   1       4.901139689970651       12.02899594992541      2.6387651548482514
    52   1      3.0897134765814496      14.627425711621656      2.4025238987807529
    53   1      3.0125531800100629      16.414085089397744      52.085925696827992
    54   1      4.7405488631602255      19.511408987052004      52.054344070859642
    55   1      4.7349186310133646      17.467407653735929      2.5978400965803958
    56   1      2.8637743386573451      20.423681467743219      2.4691437724757357
    57   1      3.1648353386263262      22.287491602678774     0.02363076550813973
    58   1      4.9431924367450888      24.838260890017423      52.130020760207501
    59   1      4.6890574385139363      22.761402322053403      2.6208671565518022
    60   1      2.9721177604974884      25.950486293824351      2.6137767578223108
    61   1      3.3627425654310934      27.742886336044258      51.939489294244218
    62   1          4.873083274231      30.628939856662914      51.980912465644359
    63   1      4.8023015577208898      28.601813930410795      2.6411436539762811
    64   1      3.1789593610122577      31.469474673772798      2.7919718866098209
    65   1      3.2272520947171528      33.284959439893676      52.101310144852086
    66   1      4.8448906912496836      35.810054804990152     0.10360118145842219
    67   1      4.8850722632018133      34.085379014696443      2.6725003934367733
    68   1      3.4091743374286492      37.030622545688182      2.5019923807599187
    69   1      3.2073396232932239      38.664177271945881      52.032104461799634
    70   1      4.6498761784406213      41.642218958289632    0.030531016371094132
    71   1      4.8997501788057392       39.68594066414235      2.7093844428745615
    72   1      3.0518239465892307      42.412818551300312      2.6828203856657558
    73   1      3.1059887173663632       44.63037100232588      52.101497661595488
    74   1      4.6696030807344044      47.100136564149437     0.28540334273197543
    75   1      4.8535795991877348      45.015481945853459      2.5845920189801088
    76   1      3.0455522890666247      48.193933419816709      2.7700873052322432
    77   1      3.2602730746526305      50.027888763978581      51.974598451938334
    78   1      4.7971706454680181      52.843501613673133      52.063207701815614
    79   1      4.7953180837229166      50.709717638600665      2.6412318035828242
    80   1      3.1292542321791577      53.486045764393616      2.6478073375174702
    81   1      6.5528992630030443      55.280600900937358   0.0076552343521711745
    82   1      8.0231290858834381      2.9320242820061955      52.104937287710356
    83   1       7.909632477165947     0.85804881482152506      2.8058430712900373
    84   1      6.2006481936173543       3.547168110360261      2.7175401292207493
    85   1      6.4647849421566717      5.4075918441844237    0.027233586173842386
    86   1      8.0797774197961978      8.1512835560579813    0.063019760106955869
    87   1      7.6883370496751242      6.4600981416104073      2.5296011918063281
    88   1      6.1751666062419561      9.0269032051149338      2.7400738182166675
    89   1      6.6852488113697621      10.788493262414368     0.26999408576560002
    90   1      8.2393020548530611      13.442469375049532      52.098034676819033
    91   1       7.658199366269363      11.775872395011406      2.8217561579516999
    92   1      6.4761503592646585      14.655136692394157      2.5639925363268468
    93   1      6.2185593711248188      16.511280665415725      52.053774937410672
    94   1       8.022069042663631      19.095751806536079   0.0017322283904496517
    95   1      8.0847169340023193      17.207667512694002      2.7660942353808635
    96   1      6.4960170618277306      20.257767203797947       2.536226053136184
    97   1      6.4830107651530806      22.223471357117539      52.035795220325468
    98   1      8.1205096972284778      24.883895455902898     0.17819083977398412
    99   1       8.061072630225496      22.973540669276193      2.6323098027238583
   100   1      6.2849428879810203      25.737538614628352      2.7086729231623123
   101   1      6.2864932941618266      27.490319676518716     0.11286590498788757
   102   1       8.006341545913374      30.263189652356754      52.094632506385686
   103   1      7.8930657770907322      28.274972354844788      2.6666080403179908
   104   1      6.4116069494926053      31.215831036687632      2.5923749157224836
   105   1       6.415697196257951      33.233962844906763    0.085463201880359399
   106   1      7.9581750151768702      36.173327041447244     0.30072501167891863
   107   1      7.9563793206590319      33.939294388443017      2.7548571735437783
   108   1      6.4861935410929679      36.769029738889593      2.7292107562066312
   109   1      6.1587163061776158        38.4766265177824      52.090531320691952
   110   1      8.0481196369019496      41.784104085663586   0.0064144173681332031
   111   1      8.0298568751482087      39.859052680278722      2.5611975408773069
   112   1      6.7325678902195731      42.345838285991576      2.7747308018609482
   113   1      6.6139047960338937      44.311994094178701     0.11655599733800626
   114   1      8.0424406242373969      47.331301678642127      52.038029882678359
   115   1      7.9897972589516861      45.210415076811699      2.8560857006163864
   116   1      6.5449873728007342      48.074800146275237      2.6373516142514419
   117   1      6.2662741988468182      49.919613001577751    0.029520025808515239
   118   1      8.0846469236245273      52.658300190343724     0.19673799515168375
   119   1      7.9096112357118873       50.87231684619212      2.6547837686631546
   120   1      6.4850986542463902      53.472802488193793      2.6334493639307976
   121   1      9.5875125274120627      55.594178135408583     0.27565295366584175
   122   1      11.123321658142984      3.2268346794442895    0.051309999796005291
   123   1      11.332708225287341      1.0680570067782225      2.9193321820940108
   124   1      9.4780213876180444      3.6064953515136478      2.7019823067845721
   125   1      9.3904097720412096      5.5761224411187449      51.977366834895633
   126   1      11.057873199201353      8.2487105349086445     0.11939868759276688
   127   1      10.706325445398809      6.4948807532087907      2.7517872189524284
   128   1      9.2202794352090045       9.213581309066754      2.7304011013864513
   129   1      9.6382605621729471      10.932570857297224     0.15230467455423849
   130   1      11.412746148718362      13.926819544127799    0.068846313865117401
   131   1       11.15797283454528      11.734736926886823      2.8106481886441892
   132   1      9.6258180298983493      14.438751010438461      2.5262098547893959
   133   1      9.5996725095739368       16.61812045515185      52.072660824366601
   134   1      11.248751893481792      19.378091603527611   0.0016457309611148069
   135   1      11.298324665451819      17.700826882868263      2.6902895845955057
   136   1      9.6214960824990268      20.375173382875499      2.4137178294027577
   137   1      9.6566988356485624      22.030444736418676      52.030595532887325
   138   1      11.406689208948883      25.219481639239284      52.003912217916657
   139   1      11.265458320872218      23.085330986877469      2.2785972024251406
   140   1      9.6164764601888724      25.646787915645589      2.6729726186645402
   141   1      9.7144548741790064      27.696336030575598    0.068133077969022265
   142   1       11.46566852630068      30.448333986536753     0.15692835330029131
   143   1      11.377844814724003      28.487380591361763      2.7406300074318701
   144   1      9.7472955012339018      31.213220258845425       2.736263368695893
   145   1      9.5418280127652597      33.318343642437569     0.19337484346855027
   146   1      11.248714113688534      36.365481108384415    0.031665170836781623
   147   1       11.18602134677994      34.109424321165925      2.4636510045564135
   148   1      9.6459637509181206      36.936191324940943      2.5927539031954847
   149   1      9.5783202750103325      38.851123567094071     0.12901484323489115
   150   1      11.219097930447315      41.686441673278331     0.15820515327391357
   151   1       11.24851965020081       39.76968983450314      2.8725415399180685
   152   1      9.7512498086228447      42.321754681858181      2.8533079480092112
   153   1      9.6776216359247833      44.420218201216557     0.20426600209800519
   154   1       11.24405935485937      47.317869885405358    0.057975355783169487
   155   1      11.274146958389947      45.332348421553377      2.7234877986696793
   156   1      9.5660432587342559      48.263557462452674       2.590164305637884
   157   1      9.6159324766608485      49.964110146971613      52.096431380114815
   158   1      11.582832695460811       52.68309332401391     0.19425793862713964
   159   1      11.210190145474405      50.744393528632173      2.7050626792440822
   160   1      9.5424127409660731      53.669614015953741      2.8501698154521309
   161   1      12.841104876186501      55.386560661656546     0.22546134155729211
   162   1      14.350174601058981      2.9572474895701264     0.14350536468416916
   163   1      14.426643105467717      1.3100863354130572      2.5707024945793742
   164   1       12.70064130651128      3.8330221650169025      2.8171716179060846
   165   1      12.591957115609185      5.7455836736608443     0.43962569897059162
   166   1      14.359746526052213      8.4177078107324572      52.080965098919755
   167   1      14.591991119591327      6.4257437580454395      2.5907429916445692
   168   1      12.827527880603414      9.0066599652799617      2.8435420063855719
   169   1      12.768281441142229      11.243093095892597     0.24705141705555522
   170   1      14.631641908519095      13.736626148254587     0.32349199594183647
   171   1      14.349303865408334       11.96427547040353      2.7626660526715745
   172   1      12.804228994219354      14.962249117638802      2.7167299754135543
   173   1      12.913268620122702       16.66683896128513     0.14087133722870482
   174   1      14.670664553145055      19.504632751258491      51.854717643520068
   175   1      14.563841547848742      17.675825661762943      2.7399381340289266
   176   1      12.895598871336674      20.464948171285254      2.7132825243482155
   177   1      12.827459420008621      21.884788180012826      51.999979411948324
   178   1      14.561527672488717      24.796182556397266      51.958414095998869
   179   1      14.690632852699292      23.189907667213564      2.5646733579292462
   180   1      13.198812246441983      25.959502314094898       2.460918461602005
   181   1      12.914324555082269      27.680834883947103      52.048106716923087
   182   1      14.551701084769345      30.326541195145598      52.025308794839532
   183   1      14.669249638992703      28.712055247418899       2.567928178559574
   184   1      12.872500347052238      31.443957419395996      2.4222983150467723
   185   1      13.005079397791814      33.088200031485329    0.072775600695280954
   186   1      14.594478593856755      36.200960460502785     0.10789398840995335
   187   1      14.464767703857717      34.345062622640938      2.4108013291020995
   188   1      12.997059825610693      37.215763905046174      2.6197441185392862
   189   1        12.7276044103569      39.100613066942898      52.097247049895337
   190   1      14.519479253387876      41.712455544946899      52.071673366800709
   191   1      14.469836479539431        40.1128059663843      2.4976825487663779
   192   1      12.774313744112064      42.677397806309379      2.6365637590285163
   193   1      12.759079421072153      44.358963437574324      51.856682149347556
   194   1      14.692511401148648      47.307384288616497     0.09545196565562733
   195   1      14.431889948622455      45.489896551794125      2.5653217735173293
   196   1      12.842642498947567      47.948632407443405      2.5936259073316879
   197   1      12.800141188101078      50.005959130178809    0.063115299783322171
   198   1      14.637840288165908      52.801111067658312     0.14626895560395642
   199   1      14.121229307431685      50.471647344933871      3.0146313467711199
   200   1      13.071700723975844      53.842550839687888       2.744818709801343
   201   1      16.141111930905382     0.33616603184881055     0.14748552245918981
   202   1      17.434563724465228      3.1680606639867483     0.26801752735233791
   203   1      17.604189202496869      1.1047143437853808       2.527919662242152
   204   1      16.195984325754658      3.9639899101154676      2.7813095621093251
   205   1      15.883518392575969      5.7070077978889486    0.089579154195303448
   206   1      17.877025919515134      8.3839877957745301    0.092851312575610842
   207   1      17.504596859415052      6.7748529200667074      2.6181695704657897
   208   1      15.932682128647722      9.3870448182747417      2.6922303134336043
   209   1      16.152106015516551      11.149490671440141     0.18010274877102386
   210   1      17.609102215068496      13.827074205565667     0.24988612788754086
   211   1      17.845911717151463       12.28352646036655      2.9160907891194272
   212   1      15.928366529864933      14.833488552945912      2.9127490198781789
   213   1      16.256591706241366      16.708751815634951     0.26557447467580225
   214   1      17.838149317064435       19.60517091532903       51.95919767850328
   215   1       17.77239123922319      17.457589082764933      2.8906182690989501
   216   1      16.188814421946141      20.327266468920506      2.5553542734457091
   217   1      16.164597304661115      22.197933474850796      52.080090589021573
   218   1      17.883759869955011      25.035233613018573      51.926095162981198
   219   1      17.900384155799422      23.306433988642105      2.7784653175719525
   220   1      16.196548765670848      25.808265409002608       2.472482636123909
   221   1      16.051688235944798      27.534764832264859      51.945651866505273
   222   1      17.773532476220616      30.563570422856948      51.921926221786279
   223   1      17.823514531500077      28.606333243392001      2.2616819399991672
   224   1      16.206462279701569      31.318177841397528      2.5061333531205192
   225   1      16.247623542496729      33.202344059552807    0.038325972289559043
   226   1      17.488237156522462      35.985819645051414      52.038568121357102
   227   1      17.515954347972595      34.311957652734009      2.5607374454759162
   228   1       15.92751005265287      37.068224979566629      2.5843279151206957
   229   1      15.938791510361739      38.958564995530409      51.989251746982198
   230   1      17.661390037138844      41.985095592705534    0.053157794140409116
   231   1      17.506927255670398      40.049176029312449       2.562619675431713
   232   1      16.251007288674423      42.863797867613677      2.7165491118635883
   233   1      15.944871105404525      44.495887460870065     0.22962846857006494
   234   1      17.884823580170561      47.154159487948775      51.986188862021514
   235   1      17.793335669824302      45.517394654359364      2.6923879139852493
   236   1      16.200571364744519      48.216572997883596      2.5934289828041011
   237   1      16.145676720885582      50.074506995633435    0.022628724110349975
   238   1      17.550055372522674      52.963921356501139      52.112731425748464
   239   1      17.376477135618767      51.256758476163114      2.7876959924042142
   240   1      16.054111970247146        54.1243209429812      2.5780073627012365
   241   1      19.213387098019606    0.069289237462964059    0.089392978705023968
   242   1      20.696959866771433      2.9403381836455851     0.10512743636541083
   243   1      20.988725673982561     0.95353554304137733      2.5513739171967811
   244   1      19.259591305940472      3.7487664617565724      2.8747486242267875
   245   1      19.143053265430744      5.7896822152266196     0.13126385553469042
   246   1      21.001477311989152      8.4066579323323403     0.22321962043114066
   247   1      20.779121159616917      6.3944274378721762      2.6298594688243369
   248   1      19.279822297482355      9.2824336391277722      2.7039541746611993
   249   1      19.358659585107176      11.225586844370058     0.35380394383636782
   250   1      20.823717305217468      13.755491928511217       52.07696764577544
   251   1      20.942706833930327      11.923186576053553      2.7405270565516373
   252   1      19.406339126700754      14.986228103577361      2.8106224564654454
   253   1      19.303421156931158      16.714894289920512     0.05193542456805763
   254   1      21.029813284931365      19.407065873961102     0.16362644370915277
   255   1      21.122141132938889      17.644797293757996      2.6591330106741489
   256   1      19.479599499536054      20.119437161991332      2.8130542417339015
   257   1      19.243686312102898      22.410025075986248    0.076888194072377236
   258   1      21.013418590522164      25.055499755733059      51.900165701347028
   259   1      21.041253145637175      23.266228501689199      2.4868258243674322
   260   1      19.443291481777344      25.997381034845255      2.6559782191218955
   261   1       19.33094389861877      27.834029997169438      51.869914808496091
   262   1      20.786228201265427      30.453847736258588      51.902656901243091
   263   1      20.982378034355612       28.61970572572401      2.1428575136225194
   264   1       19.17452633052195      31.598962518512717       2.417431376296983
   265   1      19.339707584496892      33.599929448250407    0.067470152858972371
   266   1      20.875992667546914      36.537432502034086    0.026227963189937881
   267   1      20.685821709833416      34.521300078714113        2.35432553273546
   268   1      19.065194701199626      37.303940894437922      2.5806552678798353
   269   1      19.140521302637882      38.879943931705306    0.023726057911464052
   270   1      20.995440202938155      41.706132571395401     0.18112202968046301
   271   1      20.530531886570817      39.906713029135702      2.6378418275543885
   272   1       19.23344626858897      42.917597478769423      2.8313323860945721
   273   1      19.508697550044527      44.409437866909713    0.091403887903105663
   274   1      20.795038225072737      47.385421172461889    0.041976553776213649
   275   1      21.093624158083312      45.616242705994388      2.5592433552248885
   276   1      19.364094865195334      48.134727826506371      2.7003532119244023
   277   1      19.172613299026853      50.120601256704028     0.27848666654548132
   278   1       20.79164333194122      52.729479637104944      52.065258811584201
   279   1      20.475369782756822      51.331135874157887      2.8029672442311218
   280   1      19.146411064707639       54.03192755740146        2.79720570938527
   281   1      22.666245272823424     0.14234221702662994     0.18030981656052272
   282   1      23.993310662949103      2.8795214007181245     0.14922184116404907
   283   1      24.056738956756845      1.1546341176095474      2.6144341083811207
   284   1      22.379514380213884      3.7114911871802638      2.7564220792309895
   285   1      22.333476468967213       5.521186298177315    0.061565672515563337
   286   1      24.318248378152418      8.4742008897847452    0.047449892463545536
   287   1      24.026729604345228      6.4652918381188931      2.4996782888304083
   288   1      22.483495194004462      9.0774874687666305      2.8616410348737551
   289   1      22.516775441832415      11.027351989391565      52.064097767661281
   290   1      24.060269886253458      14.140585124581554      52.011792877733306
   291   1      23.994999237122705       11.96156116177483      2.6843339640763646
   292   1      22.463749497114922      14.697798273187484      2.3687262433274561
   293   1      22.547173742546232      16.633241473736287    0.063119131048654381
   294   1      24.257355050430121      19.118421695038212       51.99760258019316
   295   1      23.841967135166591      17.780870426790887      2.6602193395832816
   296   1      22.602220186491763      20.285640507047638      2.5833860768529959
   297   1      22.719757485200542      22.257254967508711      51.979089690246248
   298   1       23.97031331448823      25.029521802918772      52.035872066449087
   299   1      24.008058509594004      23.003426103587802      2.4251155731894518
   300   1        22.6246218739855      25.970749631602462      2.5404193713797376
   301   1      22.456457945260144      27.794187732071265      51.742512938023339
   302   1      24.136487796476811      30.615132555889392      52.073803542203024
   303   1      24.394288857761261      28.494962675218417      2.2871027759712326
   304   1      22.743683877586321      31.224658314974558      2.3983982705115992
   305   1      22.591297150067085      33.353763102611673     0.06150901877861626
   306   1      24.204566383385266      36.156951593757711     0.12211057697492318
   307   1      23.793709263207539      34.171860804438772       2.702894161564648
   308   1      22.495247208326216      37.231040411822178      2.5037118389376043
   309   1       22.55927749211698      39.215157559287405     0.10764546712596997
   310   1      24.060792114754779      42.118153026613442      51.951989540003353
   311   1      24.197810888084565      40.021307461514773      2.4579396614679645
   312   1      22.626444083804628      42.732328419886713      2.7651941703919136
   313   1      22.393622384679428      44.487342502629183      52.069012944558544
   314   1      23.922895622215144      47.624241517088443    0.062891487579425989
   315   1      24.353786684946403      45.630434332087347      2.5489604070377077
   316   1      22.409591746908692      50.203630100249271     0.21191428300635604
   317   1      24.091798946487337      52.758442193685227      52.096932824084256
   318   1       24.34558351120636      51.238264066405549      2.5699901618050496
   319   1      22.377515740212374      53.657022899242556      2.4806400330177962
   320   1      25.641968472983113      55.574164002172274      51.887762328691366
   321   1      27.137653184667382       2.864977343273126        52.0001250901351
   322   1      27.247975115679132     0.74535281101429374      2.6027582531317424
   323   1       25.69923273009131      3.5012702068103358      2.7737690431340423
   324   1      25.821769003959734      5.4222285046874479    0.039170203448781263
   325   1      27.260227748212252      8.1142314593836069      51.912183728335705
   326   1      27.156712452825676      6.5451337058878289      2.8132145793574437
   327   1      25.721776408966363      9.2912875649585533      2.7053073963529473
   328   1      25.963674462442899       11.13233661758132      52.080072656211378
   329   1      27.118375913295861      13.788627180662278    0.062303958913807043
   330   1      27.400222455980487       11.84623350639848      2.5038608470192143
   331   1      25.633894503329024      14.905159284194383      2.7357014556280435
   332   1      25.767794370113435      16.618703004559464      52.118913276737032
   333   1      27.263749121545793      19.238998699816101    0.017800727465802357
   334   1      27.382740568184193      17.481567816172653      2.6949842715977348
   335   1       25.53696203714378      20.415755744136295      2.7418269171203771
   336   1      25.875674123338115      22.034844174354379      52.102587984453486
   337   1       27.28356206797228      24.951480332490078      52.052297411513912
   338   1      27.473952629068549      22.845082735958293      2.7025716335328904
   339   1      25.843877698634362      25.699205602417376      2.6416602696311506
   340   1      25.659042576917543      27.783086608474822      51.873793649969222
   341   1      27.187199741035137      30.459970696407925      52.100700923066455
   342   1      27.462397237341797      28.710343629853583      2.5269283337297739
   343   1      25.720177530513634      31.656146378655059      2.5591343988865174
   344   1      25.965865668231281      33.651962764015572    0.045907415679293226
   345   1      27.375989126505686       36.15742542171779      52.067681833784192
   346   1       27.18165456329239      34.545487558310214      2.7832743064030119
   347   1      25.561306524349103      37.098894850265417       2.734728254316376
   348   1      25.708417050413676      39.155070173103383      51.949809983692148
   349   1      27.257738152862128      41.957662588198886      52.107727386818212
   350   1      27.270700061643772       39.62898045317224      2.3756434751922972
   351   1      25.688960866205072      42.673732503008964      2.5260904893778493
   352   1      25.795776918213523      44.758849586971458      51.994426210501693
   353   1      27.382470991994442      47.236028662811776     0.01380370633664643
   354   1      27.515761312591895      45.270217746454193      2.5014969648376213
   355   1       26.01363926735894      48.309181515839363      2.6900025912224144
   356   1      25.690976033667081      50.077409033821667      52.018406930176681
   357   1      27.159328293564243      52.608130343334246      51.989196509516511
   358   1      27.427906754828928       50.96404291737538      2.5059245402849273
   359   1      25.741089571104801      53.643034394718548      2.5895068542686248