dump/Si_1000_5/steps_1 (written by ASE) 

3995 	 atoms 
1  atom types
0.0      38.395898218429522  xlo xhi
0.0      38.395898217999999  ylo yhi
0.0      54.299999999999997  zlo zhi


Atoms 

     1   1     0.04507698092926464      38.173249505850244     0.12497989544592635
     2   1      2.1285452646876939      38.322672034649287      1.4655517871168828
     3   1      2.0135411325013868      2.0585466652197542      2.6600776480626656
     4   1      38.303017654573331      2.1869071291883104      4.1578940841262568
     5   1     0.20797670944263949      3.9640888596910169    0.046662138062174549
     6   1      2.0721451755413174      4.0395009879107207      1.3866901112679879
     7   1       2.052203402719643      6.0464364377117592      2.7375418577597563
     8   1     0.27799479276211414      5.8767865938206301      4.1071225608559532
     9   1     0.18538426522296927      7.4878712651063664     0.20754937308673765
    10   1      2.1460872684391035      7.7099345569223825      1.1605162136820122
    11   1      2.1708012476732184       9.681986404082048      2.7222326533274437
    12   1      38.391714426020663      9.7432402293772586      3.7094388140838062
    13   1      0.3424813421699156      11.650832633640167      54.084414772060654
    14   1        2.13517796688802      11.752836322303796      1.3814728109970948
    15   1      2.1927747609941197      13.854033060958431      2.7490831853267061
    16   1     0.21894844957197557      13.572947493160632      4.0250731184149231
    17   1      38.299670114098127      15.386389150929206     0.18405016458742685
    18   1      2.0934049488948001      15.453901373273265      1.0782866580332897
    19   1      1.6890408950408933      17.413991331633447       2.719603366823637
    20   1      38.210255983818762      17.435868619425271      4.0765579703399819
    21   1    0.013658248629553718      19.678002786841063     0.45539719938856238
    22   1      2.1291223847026521       19.41911159467146      1.2502109859344299
    23   1      1.8854355255729949      21.260439126129572      2.8524576106936488
    24   1    0.040494862335389181      21.052995528616982      4.2062454823918891
    25   1   0.0038189802852965191      23.300497416982601     0.17565278814292951
    26   1      2.0146701938754057      23.183712040217085      1.3968497498455132
    27   1      2.0917907106451867      25.397206915875241      2.5764469177088936
    28   1    0.089320826699460676      25.264688615156153      3.9069094743002557
    29   1       38.09755953600726         27.206991189714      54.018395181193284
    30   1      1.8212813767488905      27.005650599856057     0.96110618365609068
    31   1      2.0174862734945318      28.611132432715479      2.7478222648593009
    32   1      0.2678086662507983      29.011727217053437      4.3870949720012486
    33   1    0.093534962590854823      30.637590715444354     0.10220535406348269
    34   1      1.9215253008149338      30.537902452491704      1.4329828959813524
    35   1      1.9126180104949158      32.418493262774426      2.4611775173498898
    36   1      38.263819873769819      32.381380452617215      4.1526966746313629
    37   1     0.17523850975578445      34.597420466673007      54.192289014646896
    38   1       1.901858711401508      34.305433749705195      1.3375760988281082
    39   1      1.8967624780099923      36.387410429816477      2.6197208704799757
    40   1     0.12839633556966765      36.419884193379744       4.073475833193652
    41   1      4.0027382283218005       38.33706192469689     0.12954769648151773
    42   1      5.9133523717424277     0.33565590666031375      1.2317484186520453
    43   1      5.8615194589223787      2.0318995324168614      2.9469743207271768
    44   1      3.8924732769421104      1.8407542985240719      4.1428752939315006
    45   1      3.9014550957759266      3.6465048900246964      54.283763325787305
    46   1      5.7708013884632026      3.9057328623871435      1.5058033167695821
    47   1      5.9197153047310493      5.8405900708171981      2.5595534497787629
    48   1      4.2601675237499901       5.687658651185413       4.074258270195549
    49   1      3.9147669491014048      7.4543248173449461      54.191609674015808
    50   1      5.8736571234069928      7.7293056629914076      1.1698773735182815
    51   1      5.8098389151253187        9.66486574176297      2.6227212554455148
    52   1       4.131181919279026      9.7221858225508395      3.9800997440646246
    53   1      3.9402912124628102      11.244328334010499     0.12751889133239705
    54   1       5.863959175363739      11.599769276929695      1.1385160417007025
    55   1      5.7915156879853127      13.527958142137949      2.4946197305339752
    56   1      4.0249028859833542      13.633008399275973      4.3474984193440021
    57   1      4.0243107268085607      15.327549969207769      54.145825473564493
    58   1      5.8328709069495881      15.400676127768257      1.1729723653128741
    59   1      5.7895220569807231      17.255361927729872      2.5464305133176035
    60   1      3.6596293034121419      17.246426356611313      3.8834939548773124
    61   1      3.8488836465152616      19.233064937923306      53.898962938335359
    62   1      5.5643271416674054       19.47805128620994      1.2558995497732457
    63   1      5.7389594804168071      21.237441632663991      2.6676117465745279
    64   1      3.7919970063266706       21.33133698776636      4.1476039754305338
    65   1      3.7132718758165959      22.884458751182727    0.023357177140724189
    66   1      5.5884175145964239      23.261582835122578      1.1639096092054817
    67   1      5.8514091766863716      24.999930303620943       2.653328198636983
    68   1      4.0133772726988104      25.253211724533461      3.9667732744225437
    69   1      3.8260948493288365      26.699528851442743      54.209283654534445
    70   1      5.6276820930975191      26.763985668364572      1.2314049412204791
    71   1      5.6104824303638177      28.626965835349846      2.5559446336423415
    72   1      3.9332081859607877      29.019065821263258      4.0469889651288762
    73   1       3.724732085029824      30.492800653504244      54.254397121535916
    74   1      5.6190342214750961      30.832861119106077      1.1989772429878014
    75   1      5.9320055526745241      32.878269409075813      2.7934254996710797
    76   1      3.7926492359255475      32.487253405072629      3.9240634110445534
    77   1      3.9570416781490878      34.234598265718439     0.18864690316115676
    78   1      5.9767025619175982      34.649223118335868      1.3578605334380174
    79   1      5.7110087877329017      36.665098069323953      2.3294724501799586
    80   1      3.8370520005243298      36.423291866294086      3.8593632859354208
    81   1      7.8337700368763041      38.243974640731963      54.098413073947384
    82   1      9.5055522644002011      38.032394957912352      1.3862529794696694
    83   1       9.547035340418855      1.6384309914835502      2.5139981271110412
    84   1      7.9498986620889402      1.9738242247735553        3.95847960932565
    85   1      7.7015940650820776      3.8430289079373843    0.031875390012396566
    86   1      9.6214245654059631      3.7258722658031997      1.3598413022137037
    87   1       9.447227075305106      5.8356042031159721      2.3915751339416156
    88   1      7.8598725963656113      6.1239553841449492      4.2287380915379664
    89   1      7.9388451094376764      7.7592068697509848   0.0084645060047591741
    90   1      9.7659943561063951      7.8619020360330962      1.4246154306928382
    91   1      9.8715394258619398      9.7027163232315186      2.6021756938415272
    92   1      7.5991239026817547      9.7876184255312371      4.0150114231180059
    93   1      7.6622583835160691      11.502188129777409      54.111739646302176
    94   1      9.6661488046133659      11.534550861338452      1.1017881136991488
    95   1      9.6251532019974118      13.322021382359077      2.4566366753248321
    96   1      7.6199078281947816       13.35244946186619      3.8986119299921373
    97   1      7.8450681922227306      15.714123597381146    0.032413045931423287
    98   1      9.7223576092379993      15.319703598490728      1.2959320186834491
    99   1      9.5802705670367168      17.229701822763122      2.7391616678494515
   100   1      7.6562024613236659      17.247195307236119      3.9141529491859486
   101   1      7.6569261766634424      19.509948359559903      54.137070375305747
   102   1      9.6465072283920286      19.047591412323683      1.3307752698363053
   103   1      9.5944493136053435      20.955265024039029      2.7477325358360627
   104   1      7.6897717764995042      21.021673848480059      4.1144313023673789
   105   1      7.7023148634600851      23.331455130155135    0.059005148474795828
   106   1      9.5537067574975865      22.872689209931043      1.5235942646343914
   107   1      9.7920348912618547      24.992112224624016      2.6533970952743946
   108   1      7.8295088493346769      25.145978645392486      4.1362876537017979
   109   1      7.5756893063775141      26.853072752927435     0.11420256091047327
   110   1      9.3569640247993409      26.939501992233353      1.3638663929525452
   111   1      9.3682740038271675       28.97604519894859       2.771740360475802
   112   1      7.5557110903626956      28.859652602109545      4.0775950993477972
   113   1      7.6497148044811807      30.850981216190977      54.293770659975912
   114   1      9.3754775092812199      30.789314485860281      1.5255107232468728
   115   1      9.7685729091632627      32.899792180593963      2.9575402010387739
   116   1      7.7521492971025756      32.639478773761653      4.1468133240971952
   117   1      7.6284526927522975      34.299781654755705       54.13766020912702
   118   1      9.4878516315018739        34.5092227001279       1.162008114696176
   119   1      9.6294948164926666      36.303750527821549      2.7600850606427132
   120   1      7.5790052994907562      36.593399214347933      3.9969563314803187
   121   1      11.662923331680821      38.251535974732121    0.079197124188090107
   122   1      13.626740976186955      38.173782796099175      1.5001246392783301
   123   1      13.427250728043507      1.8269001641821856      2.6048392601419779
   124   1      11.558771594351594       1.879215569156683      3.8820302327649769
   125   1       11.69430696340301      3.7560643011606523    0.055575126223118471
   126   1      13.810869650790693      3.5313322974868453      1.0650633870549415
   127   1      13.399428061199663      5.5026414312818295       2.562736823864658
   128   1      11.339526674109059       5.919325232105046      3.8522034271095458
   129   1      11.632924400291719      7.5287877791802833    0.029643455717985021
   130   1      13.486158472891903      7.4488828293556359       1.288568545739881
   131   1      13.537265009939091      9.5292346576138058      2.3145673908423636
   132   1      11.768950636438564      9.5541917115803177       3.871044043482641
   133   1      11.594857518537877      11.394744890535444      54.273206482724966
   134   1      13.604318696842522      11.613120493216719      1.0649572339246312
   135   1      13.430037871573928      13.363532788187374      2.5863492799834051
   136   1      11.516111602901352      13.483590909079938       3.853582472662672
   137   1      11.548247983978893      15.583386226705951      54.138173538557602
   138   1       13.40968979755813      15.489200880831469      1.3318779756729218
   139   1      13.496257577469452      17.412144108467928      2.8422246783857847
   140   1      11.471492380856361      17.166158316746348      3.9759621220809667
   141   1      11.304653462773352      19.241850637371577      54.127144416998476
   142   1      13.239590637087908      19.131108657879764      1.1945131552011641
   143   1      13.301708018929519      21.160997969698172      2.7218097632017679
   144   1      11.466947539924613      21.219672402181395      4.2552566586827538
   145   1      11.444786047765394      23.088227112629539      54.152367527262562
   146   1      13.259754751045959      23.011185664968735      1.3265748015824568
   147   1      13.388218255238231      25.089629761747105      2.7382702329915678
   148   1      11.539159573112743      25.072324865970401      4.1550985486459009
   149   1      11.289149504020807      27.045613628441206      54.244327577950266
   150   1      13.328864402333082      26.940285319639017      1.3065069267807767
   151   1      13.511645597759561      28.865032475010032      2.6463945639787974
   152   1      11.505705238973968      28.931157076863986      4.0346168489770653
   153   1      11.529181288891037      30.850486961461659      54.193930686783617
   154   1      15.192951999087501       30.83948336439267    0.073137995751642509
   155   1      13.268002547266631      31.178195804685448      1.7298013019997571
   156   1      11.917255416787524      32.506322380209077      4.1752063172221003
   157   1      11.661362688383063      34.352577890926646    0.050955937491312386
   158   1      13.522878395518774      34.518926232309951      1.2863352534289312
   159   1      13.441590058031128      36.278571299343604      2.6476007241914208
   160   1       11.52243272401094      36.500994846280378       4.135711556950012
   161   1       15.28327978651018      38.297429836080035      54.046223608811239
   162   1      17.418120815459059      38.118430245205644      1.0925704461389965
   163   1      17.297887098940905      1.3968080061986101      2.5592627161709514
   164   1      15.287866963277986      1.7916734759360047      3.9014038215649509
   165   1      15.692010557806801       3.642883092286306      54.010125571667977
   166   1      17.514491083517715      3.5923006415683991      1.2799577294879569
   167   1      17.166721847725313      5.6271597232192079      2.4988686809400384
   168   1      15.376877885812853      5.4310284018027106      3.8565401290668553
   169   1      15.379909258651466      7.4895115047256482      53.955236430270617
   170   1      17.176837204526258      7.8606200997069982      1.3593300181726047
   171   1      17.481797694133306      10.180234443904181      2.2125034108156343
   172   1      15.675644544332807      9.6595399690755936      3.6431841686416759
   173   1      15.930620892715819      11.916129240869925     0.16598499035629835
   174   1      17.198215692367697      12.995223399660688      2.4488577506225599
   175   1      19.290304151730382      13.450550510653233      3.8107485275284962
   176   1      15.231840423525711      13.324478844864258      3.9244269292545928
   177   1      15.382307924335873      15.615892645342825    0.083471821571867902
   178   1      17.118215985950872      15.100061757115439      1.4055522961989693
   179   1      17.257839102789916      17.082164351493613      2.7968453073649218
   180   1       15.36449578675961      17.300999187112545      4.1273518240762774
   181   1      15.294520256693549      19.242699875153082     0.17442654161217203
   182   1       17.19560160227924        19.1340305485915      1.5225362975058507
   183   1      16.910678539263316       20.94162876661548      2.6341024260536856
   184   1       15.15420672895497      21.220308952499153      4.2026384072632172
   185   1      15.354485215377444       23.12780296949196     0.14314373180773141
   186   1      17.327367761306853      23.148884655355243      1.4974424423856159
   187   1      17.117320175463181      25.005805561036798      2.8305871218283882
   188   1      15.270909121229403      25.042814097645273      4.0064570689596861
   189   1      15.274238076632018      26.728926026595239      54.265886519474194
   190   1      17.244479311426577      26.877634651143815      1.3001027965965113
   191   1      17.207985981582091      28.709757923962986      2.6878981302412188
   192   1      15.425756075432032      28.960794446358246      4.0965677905797273
   193   1      17.368724737890712      30.665580517690682      1.3926335818102877
   194   1       16.90065354129878      32.646158298605499       2.515783586537792
   195   1      14.344388332506288      32.920461348026372      3.2805273137111612
   196   1      15.437599132649686      34.583899921965951      54.099083410315707
   197   1      17.343632135059874      34.529226761241304      1.2193978763176796
   198   1        17.2138999254203      36.407244923760217      2.7490580307658528
   199   1      15.309849510151121      36.061855282048519      4.1723225280504526
   200   1       19.29505480227359     0.15159733137567033       54.21693322890836
   201   1      21.194594414546579      38.362977152806621      1.4428070412170857
   202   1      21.365269651731587      1.8335622819215323      2.7713429528681557
   203   1      19.313705014980094      1.9089502052886218      3.8904088458873387
   204   1      19.516483183164922      3.9851722822650113      54.239668333521024
   205   1      21.118952180260102      4.1035947790684357      1.6047548298772862
   206   1      21.235151324027843      5.9794213363580724      2.7644193939820298
   207   1      19.378150162113098        5.86625686182024      4.1244390044043389
   208   1      19.353325565684337      8.0259915598130185      54.247812418148314
   209   1      21.203564442472203      7.7864890316008353      1.1715088042592041
   210   1      21.341441248417073       9.495091243366419       2.597775536319646
   211   1      19.333942620769271      9.5718468118465836      3.6004007158249447
   212   1      18.728918171510546      11.724319374433883     0.15610035575781492
   213   1      21.019022368174596      11.408135123495693      1.1771098002795832
   214   1      21.122271732966372      13.310763247124022      2.5576973662323188
   215   1       19.22040491495644      15.026058459983702      5.6347067879330357
   216   1      19.070783328591911      15.283943523253885    0.048753125011091913
   217   1      21.054939999226598      15.196435188073648      1.2572149098226293
   218   1      20.926921710893499      16.898102960901852      2.8382983236213826
   219   1      19.125092837758036      19.271613202112128     0.24635334462658404
   220   1      21.058286992417642      18.911074071970297      1.5710329991704945
   221   1      20.942470502354578      20.977728819216274      2.7674875096165454
   222   1      18.915746456046026       21.01255695478946      3.7989735496312829
   223   1      19.092945868455711      23.181376698560111     0.18131149830438728
   224   1      21.165981284178784      22.841703178048924      1.2882362359581163
   225   1      21.046514692308275      24.767632895865471       2.668159439689314
   226   1      19.194190885662078       25.09200037517676      4.1078942743138915
   227   1      19.148586771995063      26.851250209774054      54.276546582818817
   228   1      20.940521877270452       26.77282246600576      1.3999140306232132
   229   1      20.881774571163849      28.836354771111722      2.7136947214118883
   230   1      19.067608709160556      29.036807542148338      4.0813130237045945
   231   1       18.79777451722034      30.625914067982794      54.110327242280199
   232   1      20.705792354444345      30.782748841421999      0.9816031317299253
   233   1      20.891291129783383       32.67702715588328      2.7483934714959246
   234   1      18.914704733617402      32.610309773446488      3.9333706849727252
   235   1       19.36466920842263      34.402341122974406      54.271002777292047
   236   1      20.990827692928978       34.42991220328571      1.3970594708954063
   237   1       21.07149699011952      36.299505382755569      2.8497199443324357
   238   1      19.155106153632406      36.526943948084089      4.0236201137227328
   239   1      23.030157411967856      38.370625314822803    0.039122417812734518
   240   1      24.904903315226374       38.20544367080084      1.4312146357433815
   241   1      25.293803102855065      1.6939814719707502      2.9486175535433543
   242   1      23.098303745207126      1.8544707935079467      4.1576624576040011
   243   1      23.149789901562752      3.7612977003046084     0.25233192818639055
   244   1      25.165842012229021      3.6888496059524689       1.489923451034552
   245   1      25.165708985790797      5.7173768994482037      2.8868593586048856
   246   1      23.198633195755779      5.9055063399011427      4.0225459058001523
   247   1      23.249569763763944      7.6502102734849329      54.234955355383818
   248   1      25.025853654774277      7.5960534497210324      1.5838069347521224
   249   1      25.096988354242974       9.727404393710156      2.5480135967041981
   250   1      23.280397382533064      9.6345757775634429      3.9049813962341542
   251   1      23.055003886485096      11.562580333780245      54.277812452596159
   252   1      25.068819765517208       11.65646161864151      1.2975976466113148
   253   1      24.977229251959489      13.566848995286993      2.6917507198654014
   254   1      23.091733512472562        13.4896119912044      4.0475067968004304
   255   1      23.132202953216307      15.309158192429882      54.218928467190814
   256   1      24.838352710479707      15.434444244155603      1.3954756303972757
   257   1      24.859686603135582      17.120665022370282      2.8771150577671518
   258   1      22.956625015248999       17.26485419855964      3.9588811186696917
   259   1      22.932878841367852      19.045825233748413    0.095807750526978389
   260   1      25.081201216247148      18.997673359240732      1.4024088458831576
   261   1      25.027773034139525      21.025205130500069      2.8896195814204249
   262   1      22.989635547024829      21.071895687312548      4.3912415391979849
   263   1      23.105091577033978      23.279619585214714   0.0090265967826667209
   264   1      25.126673290745572      22.936592919560329      1.4948908298460775
   265   1      24.868213776053352      24.998497001177366      2.8348572904820242
   266   1       22.98705855994179      24.865524193680027      4.1526577395602411
   267   1      22.912927712905702      26.878632706413235       0.138903679815746
   268   1      24.709465293527135      26.938430479403252      1.6063243569085084
   269   1      25.034621446606128      28.871864110593375      2.8262547269588141
   270   1      22.898432557144101        28.8401201599765      4.0522381134328151
   271   1      23.045636210638023      30.392586550750167      54.278765075063816
   272   1      24.897287105505654      30.596907741501951      1.3763265109725031
   273   1      24.859345923844732      32.535349858786589      2.8114842786817804
   274   1      22.773983464834252      32.564555073166048      4.1385983178793566
   275   1      22.986285963478156      34.372450239826804    0.055013163020464717
   276   1      24.796820324993508      34.367068327552104      1.4315539898076746
   277   1      26.535524412335409       36.50354691137585      3.9363646168132607
   278   1      23.173607342056339      36.488141530456751      4.3017577597230829
   279   1      26.861744247720495      38.207632272159053    0.033951586226157841
   280   1        28.9558479464343      38.137356554937327      1.3646684650305267
   281   1      29.072583755611628      1.7303087866428601      2.4678007709530991
   282   1      27.309715370517001      1.6673672538475652      3.8754605082715199
   283   1      27.160706195277541      3.8518255475342298    0.030912732327476537
   284   1      29.128004577433934      3.9516352245498534      1.3360803576111362
   285   1      28.402176336856957      5.8319295785232157      2.7055200474815013
   286   1      26.892034816692988      5.8098615617962812      4.4862036811131345
   287   1      26.834520760459366      7.6339808436240419     0.17264973414085047
   288   1      28.797040908748368      7.7456517563461285      1.3255976554822739
   289   1      28.962827979979402       9.594808203295873      2.8500933560632911
   290   1      26.924217144830084      9.7352169390113286      3.9683438290253319
   291   1      27.100022965159358      11.482170830748611      54.288600596285434
   292   1      28.911030998124538      11.624310871085134      1.3954349847893002
   293   1      28.811644080082679      13.504732244933166       2.748437409898612
   294   1      26.861524760295467      13.288888159407835      4.0811395500030132
   295   1      26.929345277572803      15.479072278476298      54.294596481030638
   296   1      28.789914798173935      15.485665129289851      1.4890558873857787
   297   1      28.796315197030719      17.256236835586783      2.8062032797829271
   298   1      27.029206763465687       17.12497768771204      4.3211072230029908
   299   1      27.172445932871035      19.231306888008991     0.32052930069938845
   300   1      29.116998066820958      19.248999642833951      1.4609656310913328
   301   1        28.9562708853564      21.119498452792236      2.8047149147379833
   302   1       26.85106064438828      20.992830929839684      4.0536379129907116
   303   1      27.100250699273442      23.395755265017169      54.284565223842918
   304   1      28.906007306686085      23.165122298939931      1.4310699993025544
   305   1      28.642694875777519       25.08622316420773      2.8282885890845701
   306   1      26.775499516257565      24.999806082369961      4.2464112301377188
   307   1      26.443272925657421      27.228753617779535      54.283781631971991
   308   1      28.487201819723655      27.005893374980801      1.3564010184261728
   309   1      28.678178963684474      28.959553239211587      2.6831682536362655
   310   1      26.859044395891893      28.869207347080074      4.1070428091670035
   311   1      27.007678402661895      30.775548832057467    0.026512187666003217
   312   1      28.862179424115624      30.661478269969518      1.2823641420233238
   313   1      28.776959454898432      32.559446233045144      2.8657607509417979
   314   1      26.843697515245445      32.568566668065166      4.1810632499312508
   315   1      26.768128781664387      34.480597595089939     0.28523281881419982
   316   1      28.890649995761851      34.618489096720161       1.742107655065126
   317   1      28.716706436754013      36.513332599124972      2.9767180387236158
   318   1      30.563207135849634      0.1532152469757932       54.16775221410073
   319   1       32.68967184582263    0.018542527367122492      1.1573282293365879
   320   1      32.701437239780738      1.9570051304932792      2.3961712440408545
   321   1       30.91161923354835      1.8812300398384325      3.8517397665477096
   322   1      30.914089334914589      4.1440665960981189    0.051149295487039136
   323   1       32.91751662509806      4.0104754305439272      1.0975611902724498
   324   1      32.779141594043644      5.7396569312463539      2.6778992053459185
   325   1      30.579172527161521      5.7334557288315819      3.7785840547503433
   326   1      30.696593923702114      8.1786530522990972    0.020488949816569877
   327   1      32.820409497354731      7.7564007598994298      1.2729839853020755
   328   1      32.689602713464396      9.6190485264232066      2.8802595585262214
   329   1      30.843328661038374      9.7169335450208667      4.2128328427474333
   330   1      30.844565377217602      11.641245180276224     0.14609546915472735
   331   1        32.7465826456108      11.453303171582627      1.5245979159782097
   332   1      32.421553494103527      13.277305386353548      3.0176384095411781
   333   1       30.54994288238834      13.408468451338141      4.4709574448407574
   334   1      30.807691498174417      15.448143871117143     0.15702395991416981
   335   1      32.633707884554667      15.135085069258674      1.4482624385189655
   336   1       32.59786626577786       17.18092414316672      2.8956595012621609
   337   1      30.689860946868031      17.138459277503408      4.1553045414377134
   338   1      30.971532727662723      19.123214023190958      54.183586048361832
   339   1       32.91229464789707      19.156561792749201      1.2841650993371012
   340   1      32.821179751710808      20.991520379434565      2.7506485066217148
   341   1      30.951886498284026      21.205628150848909      4.1415992748037862
   342   1      30.819385045864209      23.247052575003465       0.161547390830833
   343   1      32.793970823809921      23.167882896810934      1.4390231483299096
   344   1      32.566155743015571      24.816010603500093      2.8488966993675273
   345   1      30.472627867329553      24.954471745523531       4.108648619789367
   346   1      30.509964678150375      27.058723606051704     0.13188875373789397
   347   1      32.417577876400394      26.937930287196963      1.7278291773580707
   348   1      32.697780832779536      28.957665917384716      2.8135387016468498
   349   1      30.696474297338689      29.014127392087442      3.9382006231346862
   350   1       30.87631793373308      30.970863387824423     0.28580514766364301
   351   1      32.782790566732935      30.839896561340364       1.516519143710761
   352   1      32.884931414344983      32.836236654208385      2.7383428167921027
   353   1      30.653752385439869      32.722496659131679      4.2084155059144654
   354   1      30.857199014254391      34.860041838748629     0.11630939431588544
   355   1      32.731458107322936      34.823479106132183      1.5174529795926088
   356   1      32.734335001337733      36.729631753353253       2.791900597822869
   357   1        30.7974442853168      36.311476715510423      4.0687196144470592
   358   1      34.744059372582804    0.092896144454284416     0.14632632860808592
   359   1      36.607134612593775    0.049833869490974653      1.5658799571153597