dump/Si_1000_5/steps_71 (written by ASE) 

3995 	 atoms 
1  atom types
0.0      38.395898218429522  xlo xhi
0.0      38.395898217999999  ylo yhi
0.0      54.299999999999997  zlo zhi


Atoms 

     1   1      38.352223257853922      2.1050394011886775      53.042445511137153
     2   1       2.171304102669767      1.7749521138147406      2.7846567483970728
     3   1    0.027307351737476497      3.9935580129162052      5.1812133053176455
     4   1       36.36645236625106      2.1299612854343724      2.7345941210877767
     5   1      36.422964963952047       3.986979573014275      1.3570340856588938
     6   1      38.324587546182507      2.0511188228801212      3.7477706119785918
     7   1        1.95048917512548      5.8461975623528399        2.70562318104272
     8   1      36.389969000594036      5.9823963679543724      2.7602007395812822
     9   1      1.8824039898983937      3.8760085503691557      50.326668855875255
    10   1      1.7574198978344604      7.6805879430021076      1.3757521869278213
    11   1      2.0445879561333511      9.6485189419547872      2.5860368786885397
    12   1    0.017927442465039467      9.6261833371995831      4.0420720608127922
    13   1     0.22227228581572009      9.6251896026190966      52.780974293710273
    14   1      1.8515740569976691      11.654986993014555       1.353630884002357
    15   1      1.9962867472778125      13.465055404368796      2.8961234082764706
    16   1      38.302265798382464      13.777173629721144      3.9694451494672891
    17   1     0.28140788299845615      13.611446952270168      52.861303785212989
    18   1      2.0417114059275718      15.293811537298174      1.3147988468141312
    19   1      1.9187167472579116      17.175638017701232      2.5864337004908169
    20   1      38.378096381766674      17.343743853106723      3.9187857665365509
    21   1    0.050642754588546571       19.09764373925745      54.113526637483886
    22   1      1.7694255443518034      19.050129321669928       1.465289483400672
    23   1      1.5969027840048136      21.005975781644448      2.8397488131933049
    24   1      38.184687103963498      21.121156512769506        3.98068501605509
    25   1    0.047821582437703979      22.769305776161605    0.029605166739656855
    26   1      1.8915626278919444      22.900630787456699      1.6469602951851103
    27   1      1.8830022751621358      25.005596628120525      3.0534765575579983
    28   1      38.065309259460207      24.765085563695383      3.9672497853731326
    29   1    0.065045869262116626      26.692038189245782       54.26064301998656
    30   1      1.9493042071168336      26.982324146223611      1.4952793498365626
    31   1       1.836087818663982      29.011595350778034      2.7618547308693562
    32   1      38.123924996398152      28.839134611536657       3.972263262137735
    33   1      38.357357532410852      30.609642383585928      54.193960331649549
    34   1      2.0524066108619352      30.782647319781578      1.3131586876874533
    35   1      1.9106959803042094      32.658827730581777      2.6429730224689809
    36   1      38.214914018908644      32.435931753173577      3.9162216778705643
    37   1    0.072230900993116604       34.38668732017851    0.056246381601192524
    38   1      1.9632153356514934      34.626287912280475      1.4648820679322876
    39   1      2.0966178244927876      36.453190518059749      2.8129946960840897
    40   1     0.22640794049611895      36.541269972793813      4.2609837558164481
    41   1      4.0640450618554151      0.0338781769434464     0.07630077451475481
    42   1      7.6514461796554931    0.036206206280234444      0.2377205588862579
    43   1      5.5762329133905215      1.8678175504745542      2.8965386939577025
    44   1      5.9374146434620716       38.28401844099205      1.7562274779617051
    45   1      2.0103809485965214      3.7775589763801953      1.5426724217780108
    46   1      3.7780288014480576      3.7407266967709991      54.080387580929141
    47   1      5.6525855178856252      5.6120107773719932      2.5974158883203109
    48   1      3.8460452616949841      5.6527630848081198         3.9826194229489
    49   1       3.729526089169044      7.7578535832031603      54.254246191497799
    50   1      5.5856004304480198      7.5497299556338957       1.353841206204188
    51   1      5.8184357307872867      9.5655031026943469      2.5394181090270624
    52   1      4.0671710977235991      9.7531630825864095      4.0949600998736964
    53   1      3.7191549933956476      11.612837448820333     0.08629403991720902
    54   1       5.830049008501498      11.615618622043765      1.2339550088623339
    55   1      5.6234944063485921      13.216443743178841      2.7718170300611953
    56   1      3.7826779753070787      13.386567101960868      4.2522621603404342
    57   1      3.7967786048544374       15.58251753125799      54.230564255519766
    58   1      5.6721674854720456      14.981895582916856      1.3867841873010209
    59   1      5.7666466225968067      17.204923414278316      2.7106563976733917
    60   1       3.764867693918907      17.292814867698112      3.9959569833783339
    61   1       3.651226084923707      19.141178874210077     0.13613050179676503
    62   1      5.5222841461289693      19.145084199239296      1.3551970157638251
    63   1      5.6020031774734278      21.019635681218919      2.9950882591034862
    64   1      3.6134618611630942      20.805068460161085      4.1785685767165335
    65   1      3.9244828092528392      22.831732829664013     0.19475346493011356
    66   1      5.8467832134785365      23.052025176394217      1.5695323775487953
    67   1      5.9914115640660581        25.0525744425493      2.7839707052593221
    68   1      3.8006160407213789      24.708565345661857      4.3585656999665732
    69   1      3.8585341661863466       27.17212696566073     0.03726768811592366
    70   1      5.7870276849273194      26.795079304333736      1.4000171405410942
    71   1      3.7816505500048132      28.875875915947432      4.1968812910043543
    72   1      3.7088676771754514      26.816908736020828      5.4929859125922862
    73   1      3.7987845736978056      30.740004694365012      0.2095818312550364
    74   1       5.977105951065095      28.752091419122465      2.8909224783255949
    75   1      5.8293073910103299       30.95628373596853      1.4269993119975537
    76   1      3.8194875167447981      32.603700623283828      4.1588556702988067
    77   1      3.7912880910697551      34.643802959109237    0.083514594629616287
    78   1      5.9002253309803656      32.785792216680726      2.8847628194100459
    79   1      5.9363386156040727      36.249216100110971       2.904384228079139
    80   1      4.1000505265985687      36.328957750214521      4.2784701218864365
    81   1      7.7037899567734804      36.397374737271377      53.204066530600336
    82   1      9.7187902619777429      38.328722005607972      1.4027441538068479
    83   1      11.812379965336362      1.7790482599832622      4.3450863958000685
    84   1      9.7985097217008565      1.8333600143509452      3.1288868156319931
    85   1      5.4725612473011207      3.7649533901010011      1.4119739631902362
    86   1       9.501349738090374      3.7423157105703462      1.8768846309832523
    87   1      9.3905535582529716      5.6576483580615253      2.9900313786460311
    88   1      7.3956327925673229      3.7668111357309852      5.5279695526201742
    89   1      7.5181604335696566      7.8463269939329834     0.20200584023617713
    90   1        9.44478718085902      7.5920146787623146      1.4288374286319581
    91   1      9.5987993852010263       9.597525779179449      2.7884764192413178
    92   1      7.5508949540508272      9.5816286336201077      4.0896637370338116
    93   1      7.6179249821286534      11.923032296337752      54.280396236440453
    94   1      9.3237681109007209      11.645310808279335       1.270014507599309
    95   1       9.582775309365088      15.375698269464436       1.087083130997587
    96   1      7.5138833134745626      13.392661877444819      4.0685282973405625
    97   1      7.5216647236503471      15.361681253426093    0.031927008073739667
    98   1       11.55948355294451      15.442189876603271     0.11604389222397908
    99   1      9.5073257826998407      17.349069763683485      2.6476375322819301
   100   1      7.8569474030915183      17.390801279881341      4.2322318294741441
   101   1      7.6241924301814521      19.088171415134703     0.24302561971509271
   102   1      9.6585568615246746      19.215497829203596      1.3546715341945985
   103   1      9.5911077089702115      21.127085736607938      2.5858312026804136
   104   1      7.5963310947904628      22.779144829113843      5.4878965779680922
   105   1      7.6732395644447688      23.033518954623286       54.15151264046785
   106   1      9.6253882639060482      23.152250231724349      1.3752328849184445
   107   1      9.6676229464815844      24.957557624600163      2.9711637290976323
   108   1      7.6906038621817867      24.816974366972346      4.2159771693421479
   109   1      7.8282081918188293      26.913121453671941     0.33133793692157948
   110   1      9.7375551273734882      26.809549835794925      1.5829981166742408
   111   1      9.5342002213869286      32.641441580528159      2.8631645370416074
   112   1      9.6528576271251065      28.933333478333946      2.8565921545616351
   113   1      9.7141136794294063      30.794930559945197      1.4801920211484925
   114   1      11.631274609165178      32.531786112801797      4.0720263132825512
   115   1      9.4188518996730597      34.500309565560968      1.6487038521536761
   116   1      7.6854133838856686      32.641232215697492      4.4617126403956249
   117   1      5.6429790895356824       34.50699687736941      1.4026150903252737
   118   1      7.6399676932582157      34.448739986583256     0.16185051264027356
   119   1      9.9129509664516817      36.605825195982696      2.7642122727548113
   120   1      7.8296378580050288      36.198635899719839      4.0647877833793791
   121   1      11.783754502546907       38.38783771256756      54.264283052810988
   122   1       13.46519174559821     0.24439477307602162      1.2690704343805355
   123   1       13.65918023092898      1.9508427038021594      2.7023637198988339
   124   1        11.6767552891297      38.079121800149842      5.7157512362676739
   125   1      11.163686341579609      3.7491414775493364     0.21701566458704064
   126   1      13.371109504753763      3.8592872863711793      1.5318421273693161
   127   1      13.339979780583533      5.8937250156377692        2.81930156870011
   128   1      11.541098395250668      5.4857134881427578      4.1528507961250192
   129   1      11.463619168673896      7.4541400129792095     0.23085770356041152
   130   1      13.441464086070557      7.7984785880103846       1.551115292443261
   131   1      13.486950294501426      9.6960081532290694      2.8951432259704375
   132   1      11.631414557246407      9.4867791290654448      4.1100158842684547
   133   1       11.39494555993166      11.483605185833708      54.030803580414613
   134   1      13.357044227436774      11.330930428796337      1.3205255777970928
   135   1      13.593419389538511      13.278461526541266      2.8670140171964569
   136   1      9.4963838706734425      13.578577095479936      2.6128381683251076
   137   1      13.698104157403687      15.270917739406071      1.8010634958586504
   138   1      15.243548586038797      17.081907081319819      53.144707764643513
   139   1      13.277639180808098      17.333904295788034      2.8727806495531465
   140   1        11.3454217234409      17.337752818292188       4.157541190195194
   141   1      11.637026792611543      19.231443679964162    0.049487338776930304
   142   1      13.492682715125326      19.151730210087145      1.4593228338496482
   143   1      13.641220333975788      21.063800262428376      2.9719951141860039
   144   1      11.464032737816927       21.09442498199105      4.1211049471772743
   145   1      11.666196223392205      23.039661382226129     0.16116939595311816
   146   1      13.510246519907913      22.858756375236656      1.5866656384348039
   147   1       13.28923435595569      26.716848168581116      1.6269209554971413
   148   1       13.41803202236717      24.876735652266952      2.8476063734337789
   149   1      11.479218282569603      26.888185969503713    0.072487168797840937
   150   1      13.652711759003498      28.738034787334655      2.6202512337688262
   151   1      15.554059933088576      28.979952162731134       4.285226322898767
   152   1      11.656223735466819      28.833845984017323      4.0549419785866911
   153   1       11.57614865394963      30.662669265245391     0.23333464108629853
   154   1      15.188633206582944      30.841944100956034      54.259245932427554
   155   1      13.436726004354556      30.710407726047201      1.5890018889326725
   156   1       11.52357141043991      30.735292513577615      5.4481294942665146
   157   1      11.512553554954213      34.706249903977771     0.31899055585582825
   158   1      13.670952479263791      34.680262410488297      1.6971950240490044
   159   1      13.738698179650768      36.595250266101885       2.845204211377951
   160   1      11.733505234552227      36.231360991348602      4.0488671083664496
   161   1       15.55131923382978     0.38882726500001613     0.13566362547552455
   162   1      17.315970121481076     0.41849517931742924      1.5672163832554022
   163   1      17.032484085245333      2.2336401315407746      2.7953598461478322
   164   1       15.49191190776361      1.8072782106722833      4.3130255366848811
   165   1      15.272717250577127      4.1936441023843356     0.15818266265091524
   166   1      17.320564743670001      3.8749227460437035      1.2426906502095927
   167   1      17.221050204385627      5.7934852667552379      2.6438639329077551
   168   1      15.367875417734052      5.8210809334994575      4.0404926849114764
   169   1      15.244897645891632       7.652142958494534     0.16693093805964748
   170   1      17.261695187813583      7.7206186002704627      1.2686765761009042
   171   1      17.502531770542255      9.6278891001405515      2.5967654178870578
   172   1       15.56439891358198      11.421182920868141       5.486382705422189
   173   1      15.361274249944401      11.613666560122191     0.20067698755113972
   174   1      17.572658187502409      15.019554538049501      1.1767744637246107
   175   1      17.208691176959231       13.40462001361313      2.8449196717073639
   176   1      15.464620551149034      13.344071603530574       4.129736687264745
   177   1      13.437642031880396      17.218238661938006      51.602501326141443
   178   1      15.314745742004501      15.138287404595619     0.10504532312321517
   179   1      17.033996313350883      17.022000110004818       2.524092786073199
   180   1      15.278577602754742      17.041009342741944      4.1481782300885026
   181   1      15.228285184106678      19.230857026024641      54.165247931153154
   182   1      17.366801569192457      20.908105592153291      2.7217338642719038
   183   1      19.312767319943024      21.107036520894177      3.9270933273972672
   184   1      15.577005215931162      20.743533969820138      4.1853406704719749
   185   1       15.14856082948651      23.167033373293844       54.23134953912399
   186   1      17.156699962462714      23.034171353802247      1.4277907882611567
   187   1      17.251186047892595      25.023560649384933      2.7358041084160285
   188   1      15.266501679806106      24.943055366929848      4.2990728199438859
   189   1      15.267223320401175       26.78310098783788      54.257864369241673
   190   1      19.225422319953744       26.42867721387092      54.281437475456741
   191   1      17.133690978582742      26.949283035825953      1.4096601559364665
   192   1      17.286965470904697      29.215966891765802      2.5747711996686373
   193   1      17.149804068679536      30.999983824690876      1.1177049520712106
   194   1      15.454549492894008      32.507164006852513      4.3310006931230438
   195   1      13.700385724602485      32.708327694893001      3.0284004195823186
   196   1      15.349944167523999      34.674015331597722     0.11981821453488213
   197   1      17.274706824485403      32.816080535714576      2.7097116888068715
   198   1      17.229326956193955      34.869342169264591      1.4301940872467087
   199   1      17.313612128653133       36.67825480486966      2.6745516092212838
   200   1      19.093690176848419      1.7089879393358753      52.895766960250917
   201   1      21.343705339760955      38.335989986676879      1.4189401916898774
   202   1       21.23816412001776      1.9175642153301482      2.8101390667082229
   203   1      18.988292628501554       1.775204329385289      3.8414681950931939
   204   1      21.129500595028677      3.8633812033225632      1.1639809355940411
   205   1      22.993764336258593       3.973688168012385      54.102998013541715
   206   1      21.080906937177218      5.5265229825390429      2.7185107733290934
   207   1      19.121221850765508      5.4529694388751011      4.2576588433509963
   208   1      19.072265222473298      7.6655471051151149      54.084569690439743
   209   1      21.012817822986058      7.4130161997224659      1.2161641057655397
   210   1      21.053387665252895      9.3187980003808324      2.5537434261435132
   211   1      19.235045337827714      9.2150912644803338      4.3530715166206821
   212   1      17.418397538711655      11.489120672529195      1.2048439860586537
   213   1      21.308088908773449      13.326771294910836      2.6998829181564141
   214   1      23.338216738732946      13.437914154935543      3.9129123723971904
   215   1      19.551519538129817      15.269199598742336       5.186467674354569
   216   1      19.175946667195312      13.197093726047774      53.059503315859544
   217   1      21.279820328150684      15.210373044449726      1.5458028617699267
   218   1      21.011986300869779      19.197115607900827       1.224773359334814
   219   1      17.316837533395137      18.900406683282394      1.2966980719386241
   220   1      19.111018120938098      19.057424612023706      54.087233344961319
   221   1      21.122760685874496      21.097011059206821      2.6419920653899025
   222   1      19.158168297659966      19.068487333283525      5.3689523190491295
   223   1      19.075310895074818      23.087080358175349      54.283956886699059
   224   1      20.976994888142794      23.041004412533084      1.3989680947106629
   225   1       20.94910807950345      24.959558780296216       2.646817211800383
   226   1       19.01949157009291      25.093396246402442       4.025424255028657
   227   1      21.146045051487018      26.823843153591014      1.3392343025996978
   228   1      23.244451334783491      27.019682287691104     0.24158626779741296
   229   1      21.155406576311631      28.633274031203573      2.7115786464985465
   230   1      19.215592417634529      28.887121549525567      3.9954613951122053
   231   1      19.288263871534149      30.740356834749541   0.0066745385651074685
   232   1      21.171777022823711      30.531614538807887      1.1676059173781956
   233   1      21.299672242765869      32.437537839029169      2.5509883348768101
   234   1      19.302690188792237      32.783526361418438      3.9338005940029239
   235   1      19.115979535516864      34.499358881053048     0.30230682518023272
   236   1      21.139560312959496      34.435258113003123      1.3435045547519751
   237   1      21.246255445131219      36.403986157421301      2.6615533069061699
   238   1      19.424650277215108      36.502222337689432      3.9463546067059516
   239   1      23.058589288684278     0.29093821795311653       54.19589421187721
   240   1      25.085347188886672      38.271154474129688      1.0809299866056428
   241   1      24.685851430695326      3.5389396228808185       1.329482478649368
   242   1      25.020195612539379      1.7530577714271085      2.8098290095854956
   243   1      21.034807584885492      5.8540760819219386      51.591190573208969
   244   1      24.816059610690878      5.7851830229854544      2.5002920704377489
   245   1      23.032325806113793      5.7473355348945381      3.8491525627717462
   246   1      22.953047122450286      7.6008476387137698      5.3395978259233079
   247   1      24.993538492359757      7.7649735507955979      1.3310303821689207
   248   1      26.721651668640011      5.9085126715803353      3.7289577240924698
   249   1      25.036625947328279      11.336063867703455      1.2049255135104413
   250   1      22.626752810688252      9.5327985376903541      4.2345893976821003
   251   1      23.044147180524902      9.5296895036569484      52.801780091667503
   252   1      21.519135831220417       11.43683499565299      1.3254066919702261
   253   1      23.329094047659005      11.309458117139453      54.061737882932775
   254   1      25.435585551294782      13.191111010732335      2.7579113601119167
   255   1      23.049392910165583      17.197748530158194       53.05311734942584
   256   1      23.067815508671842      15.132934226056294     0.11317831569457432
   257   1      24.876203277054955      16.930147869568575      2.7508202750398225
   258   1      22.890449439153031        17.2080098807632      3.9886331601581899
   259   1      23.100104738768326       19.36965450715547      54.175903157481351
   260   1      24.823482523928519      19.097238667421848      1.5302591692491996
   261   1      24.872999337252601      20.992970833894411      2.8019026943762717
   262   1      22.926947409203592      21.148251565768899      4.0734420734454933
   263   1      22.936302385270185      23.155745504360027      54.270766812325299
   264   1      24.949141337383406      22.895077055149372      1.2431842552194423
   265   1      24.900274253280603      24.567872707042348      2.8841621993745332
   266   1      22.827721833411118      24.980421620632384      3.9872832927249635
   267   1       24.90895666054821       26.58307971227838      1.6425312599495323
   268   1      24.979511337034708      28.587424913230095      2.7631583432725511
   269   1      24.822131059918171      30.564522465610345      1.1478876375581895
   270   1      23.201827436209019      28.758406695059559      3.9606547404142018
   271   1      22.960814061235876      30.492064219902151      54.115068863117564
   272   1      27.011454994376223      30.347818576912601    0.073620247866449773
   273   1      24.960999485862857      32.539495283832025      2.4157185999111661
   274   1      23.237992854699936      32.700911163557166      3.8962105397462201
   275   1      23.001449134248666      34.417629842062794     0.20412615246780219
   276   1      24.983658667419384      36.465612136869225      2.6622427996563163
   277   1      26.956305481653587      36.338909674512095      3.8212475828097245
   278   1       23.10332982552967      36.384108460119876      3.8835099412431098
   279   1      27.148218636182399     0.14071457014992855    0.057420727875330459
   280   1      28.539791624587519      1.8898198954836134      2.8590386489934754
   281   1      26.699065558388828      1.7006988004897226      4.1338732714293309
   282   1      26.678283718389185      38.212985666668665      5.5132357232931151
   283   1      26.605096522955773      3.7751873094709203      54.200430103987372
   284   1      28.335307122051603      3.7713301241519028      1.5325113034053306
   285   1      28.682608445604441      5.8848053848163273      2.6096239923158491
   286   1      26.966764855425019      7.8101389840953663      5.4419211699597891
   287   1       26.80228756722618      7.7010329985046653      54.182578884368027
   288   1      28.593647688853533      7.9088026332596622       1.314316524627386
   289   1      28.652479121356073      9.6318321100790882      2.8435819108607672
   290   1      24.622047714250048      9.6795468447671382      2.8891096340983404
   291   1      26.956442559239647      13.266695243851629      52.822613846621792
   292   1      27.293892905940183      11.584415727244865     0.25294090846916789
   293   1      28.980797125479537      13.451461200625102      2.7962783133599824
   294   1      27.045147120349224       13.41911936959518       4.277138182393867
   295   1      25.194498301504591      15.153391399151744      1.3536475676182136
   296   1      28.888335403206014      15.497230099219566      1.1009343690443412
   297   1      28.844716936625296      17.281307941782604      2.6404922087443876
   298   1      26.794589487940289      16.921815563298292      4.0540510299234933
   299   1      26.843118160962931      19.172308902357365     0.16793916186452401
   300   1      28.835495926001531      19.178817637753188      1.2958472576131976
   301   1      28.895467364867599      21.014837655758676      2.5337062482961881
   302   1      26.997566529614549      20.897985612279392      3.8348241108388263
   303   1      26.975601945633287      22.755854086951437      54.121805155923866
   304   1      28.843151439060904      23.027343473264025       1.259346767707326
   305   1      28.748235874820818      24.913288749522394      2.8737587990630136
   306   1      26.898443171470277      24.859157670298295      4.1300227004029662
   307   1      26.724800984394349      26.503259458046735    0.060302548698973751
   308   1      28.607750618568499      26.765427827093383      1.3549370898266249
   309   1      28.700106081452745      28.666444695770405      2.8304722607579396
   310   1      26.680267706289083      28.400508949875221      4.3073576612853239
   311   1      27.026806490696856      32.315154491146934      53.013158001285376
   312   1      28.721356851696282      30.644927439056442      1.4585742432428785
   313   1      28.960116045954607      32.784061833254626       2.690352750598175
   314   1      26.912442761760943      32.599023066220774      3.8390000810696625
   315   1      25.054983005440924      34.596790875987821      1.3726520984691186
   316   1      28.931095319295618      34.465428555898654        1.37796384744885
   317   1      28.877996211873512      36.526271531081804      2.7939693635157918
   318   1       29.04960139349236    0.043934033054132113      1.5140497353780662
   319   1      30.608098010624381      38.292855218232866      54.047504398213874
   320   1      32.596547283162174      1.6821991859037833      2.6105596841935466
   321   1      30.590005199499192      1.7567438295653253      4.0455810596038058
   322   1      30.260879365692048      3.6897557669891978     0.17959277767463391
   323   1      32.295543630275283      3.8415003904788101      1.2726764693813597
   324   1      32.453506059686937      5.5730529016175314       2.708984199700204
   325   1      30.707518398448045      6.0972395489906281       4.048802848045626
   326   1      30.500008592437862      7.6934614673562693    0.099266558598173793
   327   1      32.501360151639375      7.5942198518611459      1.5715906620574034
   328   1      32.665362369052488      9.4062209657028824      3.0389246110159296
   329   1      30.688253381454629      9.7737456469258923      4.0220320974036872
   330   1      29.098835817696969      11.467014231168632      1.4644322120734721
   331   1      30.872935300293115      11.687594285562186    0.062461010740412166
   332   1       32.96468713185326      11.548662217807451      1.3040120453997335
   333   1      32.583337279231301      13.334985179639975       2.676151938262298
   334   1      30.877404383963601      15.541683704661425      54.160398544475257
   335   1      32.891297048449495       15.44419750015004      1.4369552239755983
   336   1      32.599144842934912      17.454815788376752      2.6891621040636093
   337   1      30.735394716226299      17.308745674567056      4.0545699960616641
   338   1      30.783124543665167      19.401543171329525      54.212810145762631
   339   1      32.685389719035676      19.481539166255434      1.4143677765118128
   340   1      32.463134751494508      21.224839730815546      2.8268105113115332
   341   1      30.553666520132019      21.004714730925219      4.2795107440091558
   342   1       30.80808744378654      23.240922258310519     0.17484881343677927
   343   1       33.06392917509519      23.062068051676949      1.6213505917175122
   344   1      32.629819090923682      25.012878495129133      2.7713387534594607
   345   1      30.779467544340612      24.995676902939191      4.1536654285626913
   346   1      30.522077049971148      26.577692688544854     0.14585065078575782
   347   1      32.455925403447822      26.771934766639973      1.3542511698194299
   348   1      32.718948539574612      28.939904064384649      2.5309127015971149
   349   1      30.791943213836856      28.727050423604862      3.9515056686037471
   350   1      30.674192546386067      30.553527090964831     0.10905038189890798
   351   1      32.640274004340199      30.876950074662318      1.2534087678260011
   352   1      32.676527655728826      32.856004081249552      2.5459374906808194
   353   1      30.865586131246609      32.747215062088436      3.9262410893539843
   354   1      30.929140549441069      34.743669111716457    0.057427102841507136
   355   1       32.84739130746857      34.707538639051641      1.3148363162884358
   356   1      32.831406136463109      36.567725900048536        2.72561204877861
   357   1      30.879882984335275      36.409594416142191      4.0547777190766521
   358   1      32.699593579377286      38.282739760032747      1.0176241457921016
   359   1      34.685492097500031      38.325388467057806    0.068691484922465074