dump/Si_1000_5/steps_51 (written by ASE) 

3995 	 atoms 
1  atom types
0.0      38.395898218429522  xlo xhi
0.0      38.395898217999999  ylo yhi
0.0      54.299999999999997  zlo zhi


Atoms 

     1   1      38.187760790609687      2.1367256263394401      52.865549960730739
     2   1      1.9845005260961812      1.8079322566625382      2.9212258885789857
     3   1     0.11303027688559764      3.7166910615314532       5.802218653955002
     4   1      36.400916427048593      1.9586841644839463      2.8013361828929648
     5   1      36.295679060310306      3.8920797577410022      1.5664151203351699
     6   1      38.333135366505381      2.0163304636050809      4.1320110773208416
     7   1        1.95547716563565      5.8004011145219598      2.9758040706473143
     8   1      36.444663607146332      5.9048898042463884      2.8165588457017874
     9   1      1.7498102035616312      3.8530002633440446      50.345510219658713
    10   1      1.7896107748876633      7.7197141228690791      1.4258936125316137
    11   1      1.8171635735453471      9.8210853793285207      2.6120395116476764
    12   1     0.10387747095166615      9.6282065263906169      4.0292314736737556
    13   1      38.331836062483006      9.7171532746700997      52.807613825548891
    14   1      1.9132523466857085       11.74604054875183      1.3706081606515581
    15   1       1.945185192281464      13.737591428972687       2.860457816112032
    16   1      38.019127871545862      13.642683531347902      4.1449191622512336
    17   1      38.130727071047232      13.441379622956916      52.898681306378116
    18   1      1.6624870292751113        15.4803344133924      1.5517397060290947
    19   1      2.1978131998460548      17.579121255899469      2.7474813069371402
    20   1     0.19674476564267246      17.495439538280824      3.9522039609474637
    21   1      38.342191970089225      19.303683496214287      54.094969379055854
    22   1       1.809697955838202      19.525207866601839      1.1392047182618301
    23   1      2.0280680285932502      21.262846315892574      2.6566869750726476
    24   1     0.28052547244586246      21.525301013293824      4.2132197092166956
    25   1    0.071714818203882855      23.203753249479885      53.996332328426632
    26   1      2.0402147028402364      23.262841575088839      1.3451359700228656
    27   1      2.0856732883029898      25.115032897662651      2.9400656074003551
    28   1      0.2068757121876621      25.227536852759059      3.9368403020249061
    29   1     0.33973297333734043      26.714533372576351      54.230084539828916
    30   1      2.4153623017503092       26.79947580902196      1.4165194142895732
    31   1      1.9958145306443233      28.778109986778706      2.4788815097340287
    32   1     0.17075348872148544      29.058319850375455      3.8123257586457058
    33   1    0.032058507768960291      30.720582926356354      53.998179885697716
    34   1      1.8342882306327095      30.799388101213101      1.3404687810369864
    35   1       1.977162483933234      32.382848683574458      2.9008218624716728
    36   1      38.359365978350574      32.554541058141346      4.1935325355042545
    37   1      38.322393948054298      34.379132806199493     0.14642952534578657
    38   1      1.8524478314323998      34.278943983869411      1.5628937407627039
    39   1      1.9500509392315333      36.599064024425594      2.5275762058838409
    40   1      38.265871054808997      36.608179459628822      3.7519986025285212
    41   1       3.627312868232456     0.18836426433221642     0.18922668427343314
    42   1      7.7528914268086613      38.046983073339902     0.18095207573162514
    43   1       5.627312073439092      2.3410095083276889      2.2681340470651432
    44   1      5.7017328869467585     0.22416256947519111      1.3498425978558062
    45   1      1.8261315006578791      3.9506537060521509      1.7317688884539733
    46   1      3.7150619641238953      3.9932636427663022     0.12703901883621685
    47   1      5.6985378848170383      5.5593023536122752      2.6831917736769926
    48   1      3.9603029910135947      5.9784900287970242      4.0414035891260136
    49   1      3.6776710127825161      7.7352375372930471      54.144879987548236
    50   1      5.8686208645555649      7.8478299633383592     0.90182866239711201
    51   1      5.6875595271137405      9.5575115493673817      2.5029314665488953
    52   1      3.8077304454723291      9.5934402472343212      3.8088115443874377
    53   1      3.9559502640396427      11.729536881017555      54.223822745224481
    54   1      5.8644924626465675      11.620011579531495        1.24651969464345
    55   1      5.3441006500482855      13.500544637223317      2.0221958756194782
    56   1      3.7815535725249956      13.333375101840518      4.0274462000354916
    57   1      3.6966480862439792      15.406223978563636    0.050324134189463618
    58   1      5.6584566758537829      15.563421556368693      1.1828493956459381
    59   1      5.7990075857830208      17.233065319869674       2.763054192566289
    60   1      3.9415987114477677      17.297464911387809      4.1272016047643083
    61   1       3.793596734467573      19.417798259829251      54.046866177489711
    62   1      5.8142607292437294      19.237319997376741      1.3482301657221933
    63   1      5.6159208434997812        20.9893934696711      2.9232965545974801
    64   1      3.6383233818505074      21.123603903791345      4.2960988110910865
    65   1       3.978347119692843      23.281879445974219    0.078722999233036828
    66   1      5.9807777091785521      22.625315282898509      1.3244403805253444
    67   1      6.0907465554524274      24.896648479750041      2.7274510505010654
    68   1      3.9579359023214939      24.747231119023088      3.8521063177473729
    69   1       4.062610737020516      27.118917578484869      54.154311423761932
    70   1      5.7214772415144433      26.924819887022135      1.4729693018108621
    71   1       3.708993279324047      28.568207959876336      4.1308656818263438
    72   1      3.8846495378401786      26.411536794146503      5.4569966452610341
    73   1      3.9171079313512944      30.896634831040583      54.207774324389248
    74   1      5.6967308755953869      28.783530973896113       2.949256517368998
    75   1      5.6510863203484476      30.584942256001682      1.4740743508812904
    76   1      3.8316889740169882      32.484230369403093       4.247599029508196
    77   1      3.7886020091017247      34.785730313514193     0.27351095399659486
    78   1      5.6759595677856653      32.470194713309269       2.806412487815602
    79   1      5.8618632490949452      36.756856838575402      2.7469949026138938
    80   1        3.95760570076586       36.51645316502357      3.9815197048400339
    81   1      7.6275270080137405      36.256369678183553      53.106230337562423
    82   1      9.6406341830427387    0.093402827323377388       1.628496341162317
    83   1      11.806705782869262       1.868123261747509      4.1005355599840874
    84   1      9.6323175522514699      2.0401375781423758      2.7133741355959407
    85   1       5.713120913551375      4.3030685014030734     0.99242378510766693
    86   1      9.5621947717713276      3.9791044083626574      1.7977773875431944
    87   1      9.4551216483630558      5.9950418496598727      2.9643955923480232
    88   1      7.3433481012883606      3.7522304219795899      5.4747590774391348
    89   1      7.8554085096222304       7.941130114502541      54.119735571196095
    90   1      9.6811313213324848      7.8308418571083243      1.3320891225580775
    91   1      9.3684532087673613      9.4731358130479375      3.0732520452244647
    92   1      7.3585524411276726      9.4679060703543758      4.4019403635419643
    93   1      7.7268181157358873      11.862505921998261      54.248765516828612
    94   1      9.6360961854658012      11.487034003018099      1.6475067669640799
    95   1      9.6672348472911978      15.076285099767386       1.132487788710377
    96   1      7.3516727210832613      13.484547050169596       3.930818918368753
    97   1      7.6687526546979594      15.481917092367667      54.076140202030317
    98   1         11.696080759891      15.183430874870702      54.114232508789094
    99   1      9.8278477615885116      17.115106231234272      2.5722252923591449
   100   1      7.8155705038437295      17.359249428987624      3.9744358728217675
   101   1      7.9453931570770413      19.152775486796415     0.24905953031543521
   102   1      10.047851854294718      19.148503376994491      1.3225467199181491
   103   1        9.72570068449558      20.970967289493299      2.6344107184018637
   104   1      7.8478094009900667      22.783847889867481      5.5502768783408145
   105   1      7.8971885684783141      22.962935798071733      54.135872933780789
   106   1      9.7479735043232285      23.075309226448447      1.3351553084332279
   107   1      9.6287244353607786      24.917178539332145      2.8595852913810416
   108   1      7.7746054581990238      24.799989406706395      4.2098537111981598
   109   1      8.0851225626737762      26.822451463824784      54.204029509393145
   110   1      9.7170822292677972      26.975502093392976      1.5700762743768912
   111   1      9.5696190055415595      32.746760871086536      2.9814276903357704
   112   1      9.5186256269153926      29.049564371479523      2.7419668594974391
   113   1      9.7563620540792737      30.957551034768414       1.438837110262229
   114   1       11.40339518890576      32.717309619501997      4.1218245989495346
   115   1      9.7093849269188048      34.567167055785227      1.6700563359670255
   116   1      7.6014355088269738      32.301593164385856      4.2785020693264446
   117   1      5.7256555044573538      34.608525807985515      1.5416278224322484
   118   1      7.6535795866818477      34.527211921808281     0.38343769989714915
   119   1      9.8976213962705692      36.394359731480385      2.8552524312994692
   120   1      7.7319360265518275      36.108972661040106      3.8638256112501166
   121   1      11.256652615060929      38.390578289581477    0.031980356308872623
   122   1      13.374582846518155   0.0029505929004650321      1.3144517610573185
   123   1       13.67369597486333      1.8495057803907524      2.8450221043578141
   124   1      11.609744877307056     0.11446327597471481      5.4817606263571381
   125   1      11.385179399267203      3.6836128367223244     0.34298930995428223
   126   1      13.420111223051459      3.8627989344048625      1.6179398077721305
   127   1      13.262153754166302      5.7368258692312697      2.8799039222642686
   128   1      11.432516634710574      5.8139100010070388      4.2749896134843315
   129   1      11.736924117540417      7.6190829025187092    0.037562169760735738
   130   1      13.401426104027884      7.6412158129703265      1.6463581886873855
   131   1      13.096892566309164      9.4855886633906881      3.1451703804360349
   132   1      11.348834758956219       9.529950545528747      4.4174102784526124
   133   1      11.582562254207621      11.582912766844714     0.33137141441890194
   134   1      13.543210486372042      11.248100427533114      1.6278878210850731
   135   1      13.470660146831412      13.322310082063119      2.7546751909338787
   136   1      9.6044231100461612      13.567823670416759      2.9844828930223679
   137   1      13.733872135341985      15.250856774270119      1.3651946908031416
   138   1      15.453798135903483      17.330632803006555      52.930291537843097
   139   1      13.489700496042154      17.271387360721448      2.7802754096820061
   140   1      11.591819948624908      17.158353089955135      4.2062205307748304
   141   1      11.858921129444935      18.817150807945943      54.160973428419489
   142   1      13.704989704247778      19.290061641539594      1.5084886484170377
   143   1      13.504137316566929      21.132360637498746      2.8421637808822289
   144   1      11.795765560715957      20.682368709664122      4.0069726299201189
   145   1       11.66229923677605      22.923557688282532       54.20996234920856
   146   1      13.475192195695554      23.054153739355133      1.4284013152009698
   147   1      13.463020865872334       26.75295357815191      1.1899405957740417
   148   1      13.329711961913786       24.80809870317562      2.7922623072866921
   149   1      11.547212778665605      26.753896394787954    0.019565114869135439
   150   1      13.430158594439471      28.739911118705074      2.4320335537588358
   151   1       15.25451388896046      28.749251352491459      3.8888770450921353
   152   1      11.432804489561034      28.626146351032311      3.7824408946379995
   153   1      11.567317174786806      31.039255132477312     0.11775601241777162
   154   1       15.43847535796613      31.166360310371552    0.095769914580933063
   155   1      13.442672291156784      30.824364069093257      1.3875112751932104
   156   1      11.580925807099167      30.600491749664481       5.076408435818017
   157   1      11.496185484161067        34.5400512890158    0.099883594758818861
   158   1      13.456293186049059      34.692396285159546      1.2393858833990312
   159   1      13.544021404740853      36.506700530799527      2.8240652338264804
   160   1      11.724544484515766      36.312801514920913      4.4866930421253075
   161   1      15.370103227620795     0.22835565252365908      54.236500782056915
   162   1      17.214391036324425      38.274879258646187      1.2507349757633595
   163   1       17.27332348282718      1.7785695270245174      2.5663221197504615
   164   1      15.549440181429814      1.8773291032838726      4.1949693155391419
   165   1      15.332849456449878      3.8868170822437902    0.073324477209075881
   166   1      17.118221686716744      3.6944285699124602       1.398351544257026
   167   1      17.129784272616547      5.5769436394284195      2.7994577934560207
   168   1      15.234206196251158      5.9236498744613648      3.9164304503225833
   169   1      15.263199531318973      7.6183551137996091     0.10412041883020018
   170   1      17.345792314329632      7.4089307695716604      1.3926927479301077
   171   1      17.277706569954013      9.4421290601104459      2.7006275516832696
   172   1      15.438593848694229      11.383489973310571      5.4891482625945383
   173   1      15.486998127384981      11.238811613237777      54.298191686888835
   174   1      17.122078139919864      15.267342655759737      1.4580898908527049
   175   1      17.201714878916622      13.349214476968758      2.7214072747457392
   176   1       15.33291510660413      13.391522840907969       4.102738358025201
   177   1      13.509777125653025      17.261168284744993      51.392221134832006
   178   1      15.417550469305237      15.396654607878851      54.130414687530767
   179   1      17.400828078197978      17.116791451949609      2.9585300914166637
   180   1      15.284505683340852      17.085181726442745      4.0608506756557414
   181   1      15.535580209571751      19.252724484714513      54.298145552995415
   182   1      17.254032722703865      21.147183405699892      2.4988501274077723
   183   1      19.032856340848696      21.099878841795807      3.8001764954240818
   184   1      15.494023949213243      21.329917423444659      4.0537310255299426
   185   1      15.417688261996393      22.971715335816128    0.068020852975382559
   186   1      17.416087460467811      22.953762926416267      1.1227049675661631
   187   1      17.280238413620069      24.914980143530975      2.7742614897399669
   188   1      15.321756327287112      24.871062169247391       4.007006389279363
   189   1      15.472938231879787      26.912599290348048      54.278746180910076
   190   1       19.18900374753807      27.053828381687168      0.2031161394672156
   191   1      17.360100877833908       26.95510179021991      1.5306482252458888
   192   1      17.176103373388624      28.765530837441499      2.8385711598705501
   193   1      17.248489807527598      30.832430429781482      1.6759033383878095
   194   1      15.383766687622142      32.686352814018825      4.0451997576527807
   195   1      13.345332963736873      32.875975629644216      2.6326352662802597
   196   1      15.287813671046393      34.723253147202804      54.047630232213038
   197   1      17.394162895833915      32.703851465409379       2.709554543416719
   198   1      17.084349327576135       34.57662465322003      1.1917402744030148
   199   1       17.42746527417707      36.578382436928884      2.8042959229913107
   200   1      19.412185690811651      1.8986624394405682      53.201529930469221
   201   1      21.144937514330842      0.1281261786825301       1.502270049215678
   202   1      20.948488809553638      2.2083497865608628      2.7248715990793042
   203   1       19.09111608774764       1.979967472872689      4.0854185080212337
   204   1      21.133332115370742      3.8594473759043075      1.1008167109978775
   205   1      23.180279769635792      3.7796045561801019      54.164910343295595
   206   1      21.190945843442865      5.4687527308568384      2.7486593793519534
   207   1      19.088070100242888      5.5707809366747449      4.1076571081575475
   208   1      19.290159365380642      7.6370910240527365      54.248659580201526
   209   1      21.397655952690684      7.4973116016678532      1.3413779931293106
   210   1      21.168453861107043      9.3711496007456194       2.846845217954705
   211   1      19.264556538735455      9.3349566709683369      4.0712542165988195
   212   1      17.315075239613424      11.412845816152222      1.3133287665637441
   213   1      20.659989967835166       13.11001408587892      3.0086721909728769
   214   1      22.798538316181677      13.678831246054971      3.8159366682422862
   215   1      19.083003375114085      15.228148504055278      5.5876598543542766
   216   1       19.18220328183952      13.310800006962113      52.789422244254716
   217   1        20.8209722278269      15.208170004291196       1.530101633108129
   218   1      20.986792813542824      19.222243680422405      1.2598561231372716
   219   1      17.296237631535138      19.014831133871628      1.6121484824305745
   220   1      18.978924485225619      18.936850638645002      54.156269729246077
   221   1       21.20010899012183      21.141976887892131      2.6690173906976615
   222   1      19.068599553070378      19.325623905051614      5.3466416891874218
   223   1      19.355712244676678      22.960977996334044      0.0678558964930744
   224   1      21.498431662573278      23.104306896112096      1.1407757754923507
   225   1      21.198209299249989      25.021803163639021      2.6885682324108546
   226   1      19.274255491015477      24.854011652105193      4.0821093878733565
   227   1      21.131535010767429      27.157641884918359      1.4835660970832014
   228   1      22.680312883803918      26.907530691099375    0.032800897883407738
   229   1      20.984223958381481      28.921794088230996      2.8087815174186845
   230   1      19.277714646588382      28.808336277502107      4.2801831500584848
   231   1      19.265807411117905      30.707567109373304    0.062024897531659948
   232   1      21.241109396504513      30.928364672383548      1.3405954280521306
   233   1      21.231485316826646      32.856028504340145      2.7470200947201193
   234   1      19.360953216842645      32.805236737414532      4.1313926962925622
   235   1      19.168769348531999      34.764966346939396    0.065949344210787422
   236   1      20.953304436060137      34.752167452727505      1.4778495846706519
   237   1      21.193419449785889      36.720076397752088      2.8631722622954836
   238   1      19.193182151321171      36.550083703710108      4.2774507709217469
   239   1      22.905030211266094      38.326141461516116    0.093541360765300244
   240   1      25.015246790896342    0.005395068619310316      1.2959066160095294
   241   1      24.984561972383247      3.7827538264718412      1.2895391191958299
   242   1      24.937702408692783      2.0456395794776161       2.783376613458072
   243   1        21.2207458646844       5.616207494997286      51.633945178113102
   244   1      24.879481019340083      5.6253370906465756      2.6766318639961106
   245   1      22.977770486130211      5.9176890588198381      4.1863820760102159
   246   1      22.855874221434828      7.8948013557413113      5.6302038480553298
   247   1      24.891693318956239      7.6480612928785545      1.6974117349153315
   248   1      26.818532718037694      5.6704214704207221      4.0667103076500926
   249   1      25.063439837782177      11.347779074169781      1.4011593113435659
   250   1      23.082351555575851      9.8899403567245212      4.0278060474660693
   251   1      23.223291837910221       9.756158473414267      52.944279457341324
   252   1      21.078074953626679      11.236555824513134      1.5591775629571898
   253   1      22.997122604188135      11.408976699499506     0.26021347956264002
   254   1      24.894921695031794      13.269640020062024      2.8002041286735473
   255   1      22.846201831296817       16.95175903335894      53.131395447141145
   256   1      22.937661026574883      15.205004963889136     0.37694582389036702
   257   1      24.820060852120726      17.140364949402922      2.8064877505236159
   258   1      22.965801493745513      17.137593116847629      4.0521027773119487
   259   1      22.845795947699511      18.706260499482916    0.059312343870863045
   260   1      24.776928876719115      19.168252464373836      1.3237403188142225
   261   1      24.935297733904314      20.996207578480465      2.7500589757252998
   262   1       23.08228844814078      20.931181762408524      4.0484096502670237
   263   1       23.22407202056532      23.080375012934866      54.156374753836033
   264   1       24.96732997095895       23.07181899433423      1.3447788232602749
   265   1      25.056142296176091      25.017939509914925      2.6520668134823033
   266   1      23.273986772086108      24.974242043557556      3.9843477085867098
   267   1      24.690147407569164      26.984299516583537      1.2037291542700943
   268   1      25.077833669830422      28.711976378156816      2.8612396782042535
   269   1      25.182459016384897        30.6588787689764      1.6141127685093912
   270   1       23.00560889005363      28.878546114892874      4.2326869767860646
   271   1      23.247243995784558      30.735529145410521    0.099753683919766731
   272   1      26.800078592131118      30.719068530097182   0.0040540332278851555
   273   1      25.188933823003509      32.740084688593008      2.6705672122660293
   274   1      23.206800434584661      32.748038777706178      3.9890606815384353
   275   1      22.866285174902529      34.388196337633438     0.15758443283340307
   276   1      24.822622994701543      36.559681011703162      2.6434344420189384
   277   1      26.706663684103365      36.418885937743134      4.2180963084197414
   278   1      23.034414758476128      36.521538409163348      4.1572485791149809
   279   1      26.883701646524042    0.097780129415860187      54.206837373491453
   280   1      28.752318734533993      2.2188051153129571      2.8374687290806473
   281   1      26.818725857189158      1.8312995142050854       4.176269370921581
   282   1      27.174737169321517      38.366210958422037      5.5358952217921722
   283   1      26.858874153221709      3.9438963265518727      54.131608332068375
   284   1       28.85094228889238      3.9777678684391318      1.2088143098571453
   285   1      28.822355095172846      5.8612492003121126      2.5757194465106643
   286   1      27.202735199430563      7.6364531338650359      5.5315727742736858
   287   1      26.715382849755496      7.5200000394847946     0.21874777679106491
   288   1      28.782686458728563      7.6599432305561344      1.1163864408093467
   289   1      28.890359363502171      9.6122696093609949      2.5043540607847272
   290   1      24.863809050796824      9.6508881549442389      2.8368269748040564
   291   1      26.591441472723961      13.395300298018078      52.971550530300007
   292   1      26.876730303245939      11.619028993511673    0.051330074319514536
   293   1      28.591005753394676      13.788404881040201      2.6741483995076347
   294   1      26.694470318109303      13.407547657096631       4.162284641520773
   295   1      24.875160046197696      15.405038811231062      1.5286665053042701
   296   1      28.530096809836476      15.715058992914082      1.3221403001244294
   297   1      28.861105215979574      17.643445979739305      2.7161110080348507
   298   1      26.917694658042429      17.340236859181964      4.0901182251966368
   299   1      26.806143421318172      19.319310713519172     0.20715369365893826
   300   1      28.786567001362108      19.385864680040111       1.500885118113467
   301   1      28.695370679066372      21.337493961079758      2.6288448528691326
   302   1      26.904311712521103      21.078441460852638      4.2641605364976503
   303   1      26.826453501650029       23.17031760680047      54.253548898964802
   304   1      28.674314945604763      23.220873343758676      1.2456810952874429
   305   1      28.920053887698788      24.997244200604371      2.6590045469940051
   306   1      26.953687455643024      24.974574175604118      4.1720478256690408
   307   1      26.966053533147011      26.827847952204277    0.072258176785442385
   308   1      28.943211099851283      26.879461314614566      1.4295148813178229
   309   1      28.899385970350231      28.840451354371648      2.8541125037373964
   310   1      26.996387892793827      28.507848885696291      4.2068612745116969
   311   1      26.720474794105129      32.777178465730188      53.003837614354538
   312   1      28.710668345579233      30.927096226193161      1.1939019245109093
   313   1      28.555223206270256      33.064501567974062      2.5741614794728456
   314   1      26.992262685065874       32.53824861201506      4.0564526371016667
   315   1      24.908716312100637      34.546948423017831      1.5105337291338037
   316   1      28.755985996507434      34.810621396910037      1.2432838576882652
   317   1      28.660516558169302      36.706584282632754      2.7657132796332786
   318   1      28.714571120573368     0.20187074854982065      1.3947824467183612
   319   1      30.572343417221063    0.069929406969603397      54.267362445428773
   320   1      32.737815738446706      2.0379395448110382      2.7148149026692523
   321   1      30.690460317319488      2.1515694856741829      4.1382384665596659
   322   1      30.697986427412634      3.9349163941389724      54.224222265089658
   323   1      32.444679813555574      3.8711769584443512      1.4736337048742589
   324   1      32.880493923795818      6.0509777490649537      2.7666006774622036
   325   1      30.789518582349686      5.6915860743045359      3.9023607853167706
   326   1      30.971932004607602      8.0801039246001878      54.235453530240378
   327   1      32.822152860892935      7.8900486488261956      1.3233789258624715
   328   1      32.864633612931684      9.7739294065684543      2.7831786168863664
   329   1      30.755578306987431      9.6410464534189035      3.9647002219516949
   330   1      28.769501118218034      11.841486311531849      1.6831898914476029
   331   1      30.577374707029648      11.903902862356793     0.24834495431101708
   332   1      32.615651225888953      11.819232418211413      1.3783489139254794
   333   1      32.628150912206408      13.656614138514472      2.7476510560783813
   334   1      30.716811963871354      15.689359905836977     0.24627313325681796
   335   1      32.683047987728848      15.589518250291505      1.2832696161409576
   336   1      32.782056090310036      17.268470370555224      2.9754267456415384
   337   1      30.897882704376197      17.690450466053289      3.9674137372296396
   338   1      30.947779367853112      19.588004175113497     0.19077475117277362
   339   1      32.932190391603839      19.272421796986162      1.5077570187569236
   340   1      32.688463646463426      21.394643819512659      2.6892115628029707
   341   1      30.762048131659959      21.421378516426334      4.0655605240940522
   342   1      30.931534459780892      23.470922613575858      54.288354405704673
   343   1      32.987223836124301      23.437063273475705      1.3714208115799673
   344   1      32.822605242976501      25.296907969083932      2.5853426300284927
   345   1      30.866259000788403       25.14290968641393      3.8050511040062269
   346   1      30.896869643200318      27.164073723414848    0.015965970870399793
   347   1      32.718763162515401      27.158014113085848      1.6938459101887458
   348   1      32.877873973078096      28.974620883673598      2.8833624231696158
   349   1      30.910447388853523      28.758977800121198      3.9945422593368325
   350   1      30.861632216407695      30.736777192079376      0.1707418957041909
   351   1      32.877863294128858      30.769946469052538      1.4386896069648163
   352   1      32.576981851505025      32.847181361802768      2.5394679670363538
   353   1      30.530026933010184      32.844648463063876      3.8309525595107043
   354   1      30.605213860581802      34.569563938576039       54.12160242802392
   355   1      32.618659552230611      34.768738492048861      1.1668636952989568
   356   1      32.572813695485749      36.597822139303403      2.5738719110865085
   357   1       30.68953138114713      36.412542381679614      3.7923122114318955
   358   1      32.401867164574945     0.13554668867483477      1.2929197265872188
   359   1      34.295890886427877      38.287081267600271    0.047848004543470803