dump/Si_1000_5/steps_21 (written by ASE) 

3995 	 atoms 
1  atom types
0.0      38.395898218429522  xlo xhi
0.0      38.395898217999999  ylo yhi
0.0      54.299999999999997  zlo zhi


Atoms 

     1   1      38.347660434269471      38.193518807991012     0.20026808079310304
     2   1      2.1955399109440861    0.063231451351044771      1.4011810850552469
     3   1       1.964837829276767      1.9701676805246846      2.5301626396771537
     4   1    0.090034166098350035      1.9665584834002303      4.0438772235294307
     5   1      36.242481170907546      3.6787569138674772      1.4808611353722971
     6   1       3.763245904743528      2.1914351087020574      4.1646011073907321
     7   1      1.7569440219700099      5.7100732662681759      2.5137987957154881
     8   1      38.086858342170572      5.6209017673431454       4.012048498175611
     9   1      38.304166688028715      5.4195370515319476      52.990688518117182
    10   1      1.9124693180760652      7.6817285274412566      1.3690098211943471
    11   1      2.2443219664092697      9.6154451229629085      2.7362538827269303
    12   1     0.11382727507696552      9.5595338098554414      4.0428776012696739
    13   1    0.037798417630932092      9.6075702157435021      53.054785457552185
    14   1      2.0978652352920091      11.411615853589881      1.2441997146697301
    15   1      2.1721276115036252      13.291066098168507      2.4776781950989881
    16   1     0.21649081399022749       13.31826680578016      3.7924024115563624
    17   1      38.317467463484256      13.239038906712295      53.050208229105984
    18   1      2.0201742550310815      15.350403968792891      1.5210933408125149
    19   1       2.026066208776542      17.295607450188289      2.7846627850597985
    20   1     0.22606019666168925      17.253227865815116      4.0772780387350194
    21   1    0.090799007541219875      19.021338612015878      54.123587419478163
    22   1      1.8581247136185766      19.131242044565997      1.2633157154944097
    23   1       2.051567068003326        21.1727301300878      2.5208626622250576
    24   1     0.16645821871582792      21.278881779365978      4.0356866870613777
    25   1       0.048870738017099      22.914028970139015      54.139120543485468
    26   1      1.8880729101533078      23.048768727652792      1.2330372039105764
    27   1      1.9479586844203647      24.880207768461684      2.6364108995432636
    28   1       38.31899644188735      24.747188579838422       3.867672423195629
    29   1     0.26887723644358086      26.823349411670247     0.11383243665920846
    30   1      2.1390182275125453      26.698120331098071      1.3871490190991174
    31   1      1.8327197624026281       28.49020485377747      2.9711901341441385
    32   1      38.254786738044636       28.74413500804669      4.4360205506242645
    33   1     0.12809568083374179      30.513815092596356     0.26666421921094091
    34   1      1.9792702088189928      30.411065574705802      1.7632704211851413
    35   1      2.0056544484992291      32.424141571284913      2.8173229964954669
    36   1      38.362357971393479      32.464795615625206      4.1342683253025596
    37   1     0.01116114252987907      34.316555620857599      54.287731228819737
    38   1      2.0389505904166012      34.444300429303851      1.3952678370449008
    39   1      2.1820894672431987      36.448914573641147      2.6608174840229024
    40   1     0.25256965026652611      36.387702061332398      3.9502868024736575
    41   1       3.885392268595464      38.208829950518258      54.131843506643875
    42   1      5.5038546008672089      38.293345438144215      1.5297159468488668
    43   1       5.654515329824644      3.8252524991521093      1.3816888858144103
    44   1      5.7120819715701225      2.0023657982663141      2.7994783855008323
    45   1      1.9916662093582769      3.8656554831477163      1.0549934872604823
    46   1      4.0480154539693709      3.5821926659080718        54.0047256350162
    47   1      5.8039991903016546      5.8915594270516465      2.8769639423664994
    48   1      3.5543920790003924        5.68113547119244      3.9434757738384625
    49   1      3.9594739356593136      7.5376953532235227      54.286561646060875
    50   1       6.017784700547856      7.7621503701013532      1.2834117369306213
    51   1      6.2326120527087641      9.8179092855513783      2.9114680161380861
    52   1      4.1797065457284726      9.6928372107772525      4.2056663518232771
    53   1      4.0664361533916633      11.333994767416957      54.205436218231966
    54   1      5.6292040855660748      11.759660094607295      1.6134368716477658
    55   1      5.6336715846411689      13.540223878330956      3.1102190590855905
    56   1      3.6196628173858305      13.374041068779938      4.3609597571417122
    57   1      3.8280239935416169       15.33841075889249     0.19192362906550225
    58   1      5.6854223598871156      15.291012948772625      1.4924872429673881
    59   1      5.7225404144167298       17.38895712888775      2.8265882807567229
    60   1      3.8186837452105911      17.440003135571892      4.3527414168798746
    61   1      3.8266342842118841      18.979580851006247      54.294374687849803
    62   1      5.7271576394810175      19.294559749072331      1.3645254494855874
    63   1      5.7662270243793659      21.116014538761881      2.9272693411675408
    64   1      3.8026176939088079      21.010353931179054      4.1296942984822289
    65   1      3.9779094765020151      23.036600781652886     0.18736692637324923
    66   1      6.0084015556607477      23.198905511124433       1.558167403818552
    67   1      5.6553565552928013       24.92200357846993      2.8086590642316667
    68   1      3.7937950984920943       24.86894280380961       4.287414508998987
    69   1      3.8268855103695425      26.681892719291692      54.285171601941762
    70   1      5.9929838847748087      26.762218602362839      1.1681743942340275
    71   1      4.1316655090187533      28.706661856330832       4.097053216519428
    72   1      3.7295932728251211      26.858484617165033      5.4480189495435631
    73   1      4.0032000275895383      30.314098945532955     0.34711735343528277
    74   1      6.0541176666605132      28.656241471680204      2.9273849523799842
    75   1      5.7991956215380283      30.572133648323891      1.7129804869914331
    76   1      4.0300561850985055      32.758200156847295      4.2113938852598922
    77   1       3.798646258372226      34.268495911232385    0.037230746486852706
    78   1       5.734311039795549      32.706097532623261      2.8388382643572752
    79   1      5.8186492013383484       36.42620885618966       2.833542461401509
    80   1      3.8956284892243884      36.480002467048514      4.2491866631076478
    81   1      7.6930445360790429     0.15575128607830674     0.26201892038790225
    82   1      9.6814916760169965      38.347916265763537      1.6000965216254615
    83   1      11.533519764746874      1.6873650161446696      4.2065984893911956
    84   1       9.519151030642508      1.8919292300553954      2.8562135307587799
    85   1      7.6580152604292584      3.6306275188335309      54.177867802475909
    86   1       9.540200516656455      3.9280680369477912      1.4433957864879758
    87   1       9.300741899540494      5.9201214921871657      2.8031895438257011
    88   1       7.592263448810856      3.7770670830609521       5.581503043127527
    89   1      7.8150766513285657      7.6569546779148068    0.035336092933539502
    90   1      9.7772697477581296      7.6835983434205284      1.4028223856551203
    91   1      9.7943476447277273      9.6129912174054724      2.6599280825229452
    92   1      7.6988976265498961      10.180804370823127      4.8790058032568044
    93   1      7.6820071921397952       11.65106939409975     0.29771765506121717
    94   1      9.8099362077944807      11.641421499469557      1.5695142422011257
    95   1      9.2909382820960307      15.379707743566964      1.2310745099605556
    96   1      9.2253042340922011       13.59230051394891      2.6567624991660979
    97   1      7.4106721077257687       15.34954536401291      54.273439933120848
    98   1      11.313557238417328      15.185518611201154    0.014218166323701117
    99   1      9.6952730249552062      17.111094238874596      2.6988416044753181
   100   1      7.6575516402435317      17.331309350409615      4.0796865164264426
   101   1       7.616615769829985       19.24580986102016      54.288643999567775
   102   1      9.4071649692603465      18.975915883678621      1.2836480718785632
   103   1      9.5119625361846225      20.928743656452074      2.5725182840538876
   104   1      7.7150016467767148      22.858512956860821      5.3514889054995018
   105   1      7.7015057868439518      23.309168850106115      54.184556707242457
   106   1      9.6182843197485184      23.179796622236946       1.531006412747469
   107   1      9.6449850248006328      25.129137713531993      2.9547735044180272
   108   1      7.8353894840008511       24.98877095262764      4.2883380049207087
   109   1      8.0890598784333747      27.191082502406864     0.11019110029051267
   110   1      9.8233375864040333      27.095620114915658      1.4822239434155344
   111   1      9.7339406203436027      31.267479091963683      2.0132849907525947
   112   1      9.5194260365610788      28.952656156084899      2.8666431040231841
   113   1      7.7422582221214782      30.830482165128732     0.44434733445490354
   114   1      11.369903976302732      32.517171651333435      3.8815489742382949
   115   1      9.2615130807613699      34.499208087633384      1.6559674559031667
   116   1      7.9763121242395103      32.790990959436229      3.8642660476030888
   117   1      5.5515561650158993      34.635062087768723      1.5689575948789178
   118   1      7.5515823243818359      34.650098605979558      54.124199135344533
   119   1      9.3246914770421832      36.430510287746358      2.9318344422018408
   120   1       7.451918701054165      36.435820697404658      4.3708933015466878
   121   1      11.359738380069732      38.300828544434857      54.235434306802219
   122   1      13.221487790945533      38.150982057790522      1.3527121920673815
   123   1      13.306509458895345      1.8811776017624693      2.7835979910563191
   124   1      11.400046212995255      38.289152309969261      5.6462946450767211
   125   1      11.512473204049527      3.8515410208474896     0.19492662222456808
   126   1      13.514633786080282      3.6954149170274135      1.4623153419661532
   127   1      13.493204505498779      5.6195813040871467      2.6130088824293671
   128   1      11.466063466584441       5.777101497356778      3.8735206128761992
   129   1      11.761020954317344        7.69396583792276     0.33814538286881063
   130   1      13.869933935121411      7.7693095001529136      1.3813249774399095
   131   1      13.484303647152647      9.6841284889959329      2.6746605866810333
   132   1      11.488526613333852      9.5563190304068115      4.1240666628400993
   133   1      11.531884536590505      11.233890578773908    0.046777618767100661
   134   1      13.772189100887212      11.485577305462575      1.1323902284209779
   135   1      13.520945682166481      13.259582477417576      2.5903258526852468
   136   1      11.457481976503257      13.278914158653876      3.7127164211500485
   137   1      13.458654717679005      15.214049794391835      1.2115438206310365
   138   1      15.556916740752204      15.257876933780285     0.03770221593700851
   139   1      13.592646667508198      17.239583240033777      2.4900898615116964
   140   1      11.688653468275197      17.299426905205252      4.0186612749527875
   141   1      11.463531504650151      18.875578830605363    0.041068520880639899
   142   1      13.467348706626451      19.280581126526933      1.0800496823151777
   143   1      13.392385027483302      20.995902710533329      2.6730361090630717
   144   1      11.443599069135487      21.246271588997587      3.9136895812335735
   145   1       11.45808134124518      22.825885305513783     0.09344145339618995
   146   1      13.491926899595768      23.042232056869342       1.341814852874915
   147   1      13.385804572036232      26.725694599505466      1.2352094134850753
   148   1      13.551819660318966      24.892858084982912      2.7414593193264301
   149   1      11.601559358749279      26.782534289719674      54.204431750229965
   150   1      13.339944230033241      28.754513604551331      2.4588293059836714
   151   1      15.310359442494098      28.699648714173058      3.8183104912450871
   152   1      11.514912994248103      28.676729904206308      3.9333130917768941
   153   1        11.3022955986506      30.716866902509537     0.14144511988629355
   154   1       15.09184708849001      30.792560476588086      54.151296453897181
   155   1      13.276405437328696      30.726642884986092       1.619268074275239
   156   1      11.406480529240788      30.705250123044497      5.3406940204957642
   157   1      11.287698153622458      34.447881271366072      0.2775393791004489
   158   1       13.37071053596369      34.473150961648955      1.2894236150883229
   159   1      13.145782180542847      36.290574585729729       2.917623140008311
   160   1      11.120237759437735      36.516199112423443      4.1888104978881282
   161   1      15.284732591476084      38.342482610617466      54.007363578731912
   162   1      17.073981268822415      38.391406508312564      1.4268779735414481
   163   1      17.234845626672854      1.9022848676097177      2.8572061739619898
   164   1      15.262883458876637      1.7427865296570417      3.9658480071641624
   165   1      15.344503082387414      3.7913072043478624     0.13152197927228115
   166   1      17.331282855334891      3.7538516338693824      1.3143573542583111
   167   1      17.321441731754177      5.7575103480098466      2.5771018571589694
   168   1      15.379357850774102      5.7616204200042285      4.0243915569552202
   169   1      15.676839886160908      7.5111222093371985      54.116158722587251
   170   1       17.63182954815673      7.5107554009055919      1.0126140339436567
   171   1      17.209730576526063      9.4666630000180358       2.354116836735308
   172   1      15.621150080802728      9.4798063815452167      3.7741525405076919
   173   1      15.577996388446293      11.571479099956054      53.773629467024001
   174   1      17.558938491946805      13.252072971912535       2.682271493267752
   175   1      19.434810768846862      13.320967232978012      3.9957499993195125
   176   1      15.609060417152424      13.547422386556628      3.9077037887891604
   177   1       15.61097760720199      17.176024038266352      52.888168113708026
   178   1      17.488962219205622      15.120860633171976      1.3767553543239976
   179   1       17.55848930471214      17.140093302688314       2.563926871654838
   180   1      15.557930230014238      17.286926764532534       3.828225045487696
   181   1      15.336677254144696      19.272725054592517      54.237691301775534
   182   1      17.180662771925789      19.040266685290565      1.2573056734980934
   183   1      17.400988735622992      20.804730378031064      2.7093369531478602
   184   1      15.565207879800157      21.049404804263975      4.1017828057744863
   185   1      15.502691034571177       23.24456992610741    0.038302778296360904
   186   1      17.323326801599901      23.085980634331587      1.4249339732058404
   187   1      16.773341316008487      25.068829639107257      2.9925154614232263
   188   1      15.013939956515024      24.848387393075612      4.4060552609690138
   189   1      15.359226545764141      26.912749447662286      54.291752325921017
   190   1      19.204437587893654      26.899152949360165      54.259950508050061
   191   1      17.167243808097908      27.040553159721725      1.3874577102233629
   192   1      17.375385247000423      28.977810070737018      2.7357292106981865
   193   1       17.24244492745272      30.810227076278036         1.2322171439317
   194   1      15.197756813783975      32.754818821974659      4.0830604360743648
   195   1      13.286834264797188       32.62058983859756      2.6682125534973595
   196   1      15.316906363040687      34.553524695080398      54.293347632299096
   197   1      17.271540110199609      32.566189994084247      2.9378316619344811
   198   1      17.242531088268489      34.579617564430677      1.3951749506359896
   199   1      16.982952326467235      36.461660468476595      2.8486564160500478
   200   1      18.988691694179575      38.125803984032103    0.032495027094546478
   201   1      20.837873871686543      38.210989132873664      1.2726966460380351
   202   1      21.197179533869914      1.5883022786780443      2.6930836411923362
   203   1      19.083023874347759      1.8704554433585985      4.1288827532842127
   204   1      19.266851827599645      3.8155341575676842      0.2251318336641133
   205   1      21.356203940196597      3.5056334390759374      1.3631826160565177
   206   1      21.017181528115575      5.6334805785721667      2.5831546011163486
   207   1      19.269307077553702      5.7149974565001731      4.1324498567017711
   208   1      19.492031582215414      7.6767085939507185      53.942745510651385
   209   1      21.315994712194186      7.5003073652672372      1.2755506793527818
   210   1      21.402217415173247       9.430243754843552      2.6428055039624714
   211   1        19.3751637292556      9.4650069990928714      3.8429854298019896
   212   1      17.346158857537272       11.31394389697356      1.0738808907189661
   213   1      21.339961517870211      11.401995681369376      1.4464978211514341
   214   1       21.25321081459246      13.316007206320409      2.7968893567061048
   215   1      19.545894199237885      15.227098526185555      5.3586776607253475
   216   1      19.288799849491557      13.425429160005486      52.729678402076878
   217   1      21.307975658248658       15.28798037050066      1.2659598537924464
   218   1      21.154489693172213      17.457828228300361      2.4611200846324408
   219   1      18.958430550537084      19.178155964452131      54.180800670476152
   220   1      21.017550947807333      19.249014058883297      1.0578629647554505
   221   1       21.28041805322265       21.17715440088039      2.5109232728227209
   222   1       19.44790757730134       20.91874011813244       3.897220296015961
   223   1      19.042077983692913      23.339170197704526    0.023924702244175922
   224   1       21.11407496844053      23.214127909119583      1.2485111716350525
   225   1      20.976575833307106      25.262926011949368      2.4345404642035176
   226   1      19.087030050231309      25.023275017749633       4.035174207951397
   227   1      21.266851215067007      27.402677902484069      1.3604748969212679
   228   1      22.731302097357318      27.083453566745664      53.980862697661991
   229   1      20.749309822010339      29.244168196899007       2.795291039762537
   230   1      19.063891489487922      28.751114496132182      4.1939289104968314
   231   1      19.111645258519765      30.811800639497392      54.238682377697053
   232   1      21.010420017075198      30.902114300263243      1.2772297312148111
   233   1      20.813005456092405      32.616217727937027      2.8589228803460283
   234   1      19.044021086343307      32.488483150475176      4.3680359038713705
   235   1      19.259228784341264      34.577910069480268     0.21545736520290587
   236   1      21.036311473883856      34.411432815258195      1.4676829895996075
   237   1       20.89252714600881      36.561211169538836      2.9380624991766813
   238   1       18.79173517961944      36.481925108441665      4.1380019891158559
   239   1      22.744943607032027      38.351824486291292       0.176382987455179
   240   1       24.92739310517787    0.014028647689929227        1.29107104138692
   241   1      25.167611945421594      1.8754486171597604      2.6267818880537459
   242   1      23.261992631033777      1.5797681210720651       3.985861803379978
   243   1       23.16183938498089       3.873054562357348      54.246682529158626
   244   1      24.955083405967638       3.613590489386926      1.2228653234793709
   245   1       24.70672926616075      5.6921914154034425      2.5302886261727524
   246   1      22.993520425127535      5.6710890809805052      4.0958437891432009
   247   1      23.038780990710894      7.5244310240757635      54.108527791247674
   248   1       24.92062146128076      7.7878353090376109      1.1573901447012784
   249   1      25.069231156327163      9.5040922196475215      2.6235719623882114
   250   1      23.299880850137917      9.5994733327255286      3.9179827520585846
   251   1      23.106295709068238      11.459019723069311      54.265371765310256
   252   1       25.00928827102663       11.42907373879798      1.2170357884850451
   253   1      24.911150096761482      13.388181197305572      2.7384546921163979
   254   1       23.17972777771131       13.32038848115465      4.2675571202110394
   255   1       22.94736515794677      17.109688341588964      52.943660820767469
   256   1      22.993716712787922      15.206039720875241      54.130206038610574
   257   1      25.004268324261766      17.306319349147305      2.6253675630969751
   258   1      23.011754786909243       17.13858451224522      3.9015411339416914
   259   1      22.989711518752532      19.221714425465063    0.042455078625982898
   260   1      24.956876140325008      19.427405272488095       1.417143066454982
   261   1      25.023812092301327        21.3817793067455      2.7590524347401009
   262   1      22.933180815243855      21.141938288187106      4.1593555398055058
   263   1      23.205549486519978      23.152771045321899      54.194437741102554
   264   1      25.041923119241535      23.121404522441011      1.1891932825310172
   265   1      25.004459362687399      25.110659484017312      2.5836641695030149
   266   1      22.840480566789594      25.172515434025136      3.6593600407266775
   267   1      24.736437324580635      26.966907795551776      1.1349083237942428
   268   1      24.973983719982691      28.609119201885989      2.7223957950014528
   269   1      24.729725096005271      30.844286904320345      1.2452190765486331
   270   1      22.894658309060759      28.995959801275969      3.8768422559618676
   271   1      22.854581084804057      30.804450345187163      54.137922890451421
   272   1      26.773607130813421      31.162397386481807      54.292485959755282
   273   1      24.876283431477415      32.599038458081324      2.8808013724379742
   274   1      22.860278243577184      32.586063873203663      4.2142152183690298
   275   1      23.026002755582763      34.592382621336192     0.12852536257947789
   276   1      24.710906431920595      36.519943278454882      2.7455219687113894
   277   1      26.555106331931828      36.723859847902631       4.130971258670356
   278   1      22.841932639805382      36.591218889147648      4.1218119991060815
   279   1      26.872280581174579     0.10471804524926517      54.297989811803461
   280   1      28.925479732169041      1.8852930286796066      2.7713502424549463
   281   1      27.092421163901442      1.7505732747152594       3.967297709758637
   282   1      26.663597730876731      0.1069283754703062       5.535118472241539
   283   1      26.743650662319965      3.8472199667367244      54.250622086804334
   284   1      28.789809969235012      3.8210650894653928      1.1626957178250661
   285   1      28.870956259351722      5.7477357220604857      2.5988801983986387
   286   1      26.862201191717578      5.8513522913420877      3.8286431664619589
   287   1      26.915460054602395      7.6071860438535186      54.192134311749363
   288   1      28.916908450976035      7.5192204150833764     0.95271146009905627
   289   1      28.779257211668259      9.5430461143883587      2.8529919800714114
   290   1      26.889943730508609      9.6617159502030816       4.199449840532373
   291   1      26.895901369276814      13.606733434825491      53.207834572018392
   292   1      27.063092811878271      11.590317675748066    0.068430670545171809
   293   1      28.873980853875644      13.149077875432623      2.6496145077834417
   294   1      26.977185969363127      13.434106596300841       3.891003884662914
   295   1      24.886361574412266      15.325340473438281      1.1984018354053643
   296   1      28.905720430658761      15.249073075608287      1.4451619845824106
   297   1      29.008067916698515      17.196305447336027      2.9016201220706672
   298   1      26.916039657207218      17.209350698588842      4.0133564509956248
   299   1      26.911726703013112      19.523156152048234     0.36609121050601096
   300   1      29.040964908294079      19.103891847676252      1.5584126299826258
   301   1      28.814022796746556      21.506409104255635      2.5447998599054364
   302   1       26.88421779885816      21.285255256679449      4.2149110407247123
   303   1      26.910935928540678      23.531212103696262      54.006605109336654
   304   1      28.814212310518453        23.4381538122325      1.2354378278345495
   305   1      28.627632712398412      25.263681232510329      2.6641536474392522
   306   1      26.861123810073664      25.240987495041672      3.9266858940945202
   307   1      26.564898586929662      26.984021109905132      54.033936195593618
   308   1      28.787515552929747      27.207028417448047      1.3136036796795243
   309   1      28.803903082799319      29.048080082554907       2.848666795642087
   310   1       26.88371290786602      29.078537316288276      4.1313425776201003
   311   1      26.730789403400387      33.064044853703855       52.97710950352193
   312   1      28.657376290620817      30.893016115177737      1.2257860625460006
   313   1      28.866397147034718       32.90563950714008      2.7825929368415223
   314   1      26.936763856009151      32.891895153847678      3.7270249670344811
   315   1      24.617546473948892      34.489877462109398      1.5740509147142818
   316   1      28.876370917682085      34.821381420323185       1.496441338515774
   317   1      28.837122966816828      36.676208299732266      3.0561757844630741
   318   1      28.865265300852599     0.11312830178933246      1.3470879343977127
   319   1      30.837500995031398      38.242946950777565      54.056773919370556
   320   1      32.756616085869311      1.7705780620167848       2.737461993632226
   321   1      30.707125128119127      1.8159823972152864      4.1214824004250064
   322   1      30.773339925930568      3.5745776460504795      54.193100354718901
   323   1      32.499675036315196      3.8558367754935792      1.5039246839667606
   324   1      32.541572832861469      5.9342579304197471      2.6553416372029486
   325   1      30.621568911688808      5.9114343115602503      4.0230399066414613
   326   1      30.831522942371777        7.50443274596691      54.015268868473193
   327   1      32.616065308713544      7.7675463774328062      1.2997814500330136
   328   1      32.569969294551029        9.54699351497975      2.8890590032852534
   329   1      30.634680385724074      9.6243533398381462      4.1957355528543108
   330   1      29.146216889591546       11.22966396893097       1.252172042555515
   331   1      30.990666295999453      11.440054541904626       54.24817316567399
   332   1       32.54708272636487      11.483129945472268       1.657616178597469
   333   1      32.669305046435284      13.385031614432801      2.8967905737706796
   334   1      30.505160151455012      15.252613732514527      54.100200152325478
   335   1      32.362662995898241      15.186437581325034      1.2392318046917932
   336   1      32.904148052817497      17.127518952438422      2.6310972344469281
   337   1      31.082885186995451      17.090618931988907      4.1824995456110612
   338   1      30.669964442157021      19.017416326336708      54.122351224979013
   339   1      32.503484517011813      19.185430000958519      1.2224819174934944
   340   1      32.699584557654461      21.229990319045651      2.7629695435210149
   341   1      30.646232634563013      20.965858624024747      3.8049116069603683
   342   1      30.607099190142751      22.949232723416745      54.142758184773925
   343   1      32.722906281107484      22.923256077967689      1.0428658882010176
   344   1      32.701537933626412       24.92780646442079      2.5590473935204394
   345   1      30.763287497320231      24.977623920834105      3.9600831109507437
   346   1      30.680815714648681      26.987568508332583     0.10277458336391847
   347   1      32.698509432278229      26.768495658782726      1.1396814795107932
   348   1      32.578674753274392      28.441859073714429       2.705749689105414
   349   1      30.757279566079539      29.085297058093467      3.9736268427440122
   350   1      30.634674376371187      30.862907002192831     0.19769673685094644
   351   1      32.594585386193373      30.525372522181346      1.4375818632329145
   352   1      32.996773535300434      32.425127306891852      2.8531451558809318
   353   1      30.765885388740774      32.834736164132089       4.145355595966115
   354   1      30.550051699744159      34.442191537921495      54.290938190342217
   355   1      32.630896720326817      34.525884623792351      1.5106630991145242
   356   1      32.699943036686932      36.429841370159679      2.6817469524502711
   357   1       30.78875232049187      36.518353992381911      4.1247678616784809
   358   1      32.694989105950945       38.31919312946934      1.1012324094868491
   359   1      34.525741392492691      38.236194003112772       54.02565452334531