dump/Si_1000_5/steps_11 (written by ASE) 

3995 	 atoms 
1  atom types
0.0      38.395898218429522  xlo xhi
0.0      38.395898217999999  ylo yhi
0.0      54.299999999999997  zlo zhi


Atoms 

     1   1      38.276900908704825       38.23291059224352      54.289697188862313
     2   1      2.2408743902725101      38.286605954513952      1.0682402133437128
     3   1      1.8821093103234317      1.7890068205199636       2.533674812885693
     4   1      38.388851233932243      1.7235028371418317      4.1828271311699403
     5   1      36.546184835265954      3.9034497762878408      1.2535057199877522
     6   1       4.025500029199458      1.8121181569079181      3.8862085715026855
     7   1      1.8666905654113621      5.6304655321725763      2.7201667858262462
     8   1      38.375356566058159      5.7387962652840878      4.1164111234958556
     9   1    0.011637835546955348       5.846063366886268      53.013909609556812
    10   1      1.7759541186714276      7.8139784282220104      1.5139306754421671
    11   1      1.8320462975866427       9.608120092960732      2.7702781835883239
    12   1    0.034099483750324157      9.5045252698103404      3.8920385021556179
    13   1     0.13323559588534353      9.7127274600697007      53.047305794331955
    14   1      2.0251166855096154      11.415657157363357      1.2599887190508285
    15   1      1.9441159487576376      13.264195700083478      2.7699470086929527
    16   1    0.034441775516532713      13.136468832812715      4.0526787194807534
    17   1      38.362609720580586       13.57167084752035       53.06888248158851
    18   1      1.9260081045051896      15.088507500610559      1.6457033886465757
    19   1      2.1798078015675446      17.227966476073615      2.7755227462390835
    20   1     0.12983181071097277      16.793367477577707      4.0573223106930287
    21   1      0.1299035868450609      17.380129484987744      53.406739205987613
    22   1      2.0309368699261947      19.192313102499437      1.6145399272576257
    23   1      1.9341912534814238      21.136525414251956      2.5141231356737284
    24   1     0.11299062247875229       21.01894642952189      4.0108638422702585
    25   1      38.253788725784624      23.009059801683247      54.074942878737488
    26   1      1.8058131783817983      23.074361002451663     0.99744545588772793
    27   1      1.8051615468682265      24.741836750366367      2.5752942347388421
    28   1      38.360791595940341        24.7951104628163      4.1561790872172892
    29   1       38.37728764275893      26.886870297962318      54.102520561549234
    30   1      1.8304100390464739      26.668117584207462     0.99026225324115558
    31   1      1.6885712607006855      28.480256292760927      2.5336853416591683
    32   1      38.270904701186758      28.498509237864589      4.0655189996638237
    33   1      0.1235597870818612      30.581679356987802      54.109357479266016
    34   1      2.0491478076989282      30.602407043615749      1.2582224181726949
    35   1       1.697572011964948       32.48798428165184      2.5971003761054119
    36   1      38.297524353376751      32.577692501178831      3.9986495036623202
    37   1     0.14415873501728343      34.508359011873821      54.185560048383202
    38   1      2.1908518512821167        34.6050424941226      1.1697460692964585
    39   1      1.9394954161111586      36.510817545895847      2.5706464332653924
    40   1     0.15840145009532489      36.528004838702657      3.9222223090220396
    41   1      4.2085338067171651      38.390895946488243      53.972774110538758
    42   1      5.7598767196619871       38.32973047653639      1.4594482651404037
    43   1      5.7627403232447865      4.1209805700919215      1.0397981551873141
    44   1      6.0339539002786031      1.9481943812733067      2.4321763601806063
    45   1      1.9138510229933066      3.7680457835342325      1.2662574384062142
    46   1      3.7163187426374953        3.83357595267295      54.120176970450231
    47   1      5.7452011035943444      5.9518730177422388       2.834912583452696
    48   1      3.7811592325000869      5.5105730893390508      4.0181678135067616
    49   1      3.7294340791343976      7.5613980426773466     0.28429380846746444
    50   1      5.8207724859580212      7.7346747721286206      1.3134175003938227
    51   1      5.6917100482571845      9.5873034790161693       3.007408724093283
    52   1      3.6674168894347408      9.2478155214916562      4.1317800981692239
    53   1      3.8526861666190384      11.209826534322943     0.22551798621568644
    54   1      5.7351373987308403      11.389908521113155      1.3953204535526786
    55   1      5.6206091509209273      13.363845926661439      2.5206210845798998
    56   1      4.0611100871070702      13.384349404716094      4.1417950249497286
    57   1      3.7480415613073421      15.175065483716406     0.19197504096064208
    58   1      5.6930155800100604      15.275527487847418      1.2334399275838663
    59   1      6.0475291290409343      17.082627034394566       2.620328726518947
    60   1      4.1866681449630976      17.158267025481624      3.8442458420178824
    61   1      3.9006969185001874      19.116949302230896    0.022421063590570597
    62   1      5.9340227909134979      19.232669667584727      1.4149284748637896
    63   1      5.7329492263666824      21.355594649060023      2.5148479544474842
    64   1       3.759506371026013      20.970536308732278      3.8246655277233659
    65   1      3.8122921776574961      23.104794520800695      54.290652596218884
    66   1      5.6511532875169834      23.069272043674612      1.0381488977831832
    67   1      5.9053627664584187      25.136642601896138      2.4926312966066448
    68   1      3.7383826475898627      24.705070220021209      3.7133949378478501
    69   1      3.6971908059277352      27.238535555630008      53.866906283459379
    70   1      5.3821521916899178      26.996886856592365      1.2355847792297807
    71   1      5.5611112420184865      28.781938734967081      2.6501920077518974
    72   1        3.48845241707863      28.503173733026546      3.8659893450151372
    73   1      3.9855847315535464      30.843760644704627      54.104498334948588
    74   1      5.7520707860461657      30.647466015548385      1.4167273537923526
    75   1      5.6759269689433944      32.544375652903788      2.7898669239733982
    76   1      3.5744443388055678      32.726580778575752       4.226421505346261
    77   1      3.9793828324979663      34.623633077311283      54.129133789992274
    78   1      5.7619342155526621      34.442231814002703      1.5527362292892599
    79   1      5.5877325802970201       36.18818702436127      3.0712948024404705
    80   1       3.716237951070736      36.429339807095495      4.2554210175627221
    81   1      7.6170821706769898      38.292651111952097     0.20265267390427666
    82   1      9.7584496310352904      38.374963420050356      1.2710374314983137
    83   1      9.5738612784143591      1.9216197007379403      2.4459545979892487
    84   1      7.7108878231027109      1.8422334301693255      3.9705105046265663
    85   1      7.6740351632348025      3.8820493958485933      53.902135873455421
    86   1      9.4161861682499932      3.8564738951480155      1.1989658601033721
    87   1      9.5977839438407724      5.8469902412477657      2.8494670035879381
    88   1      7.6339480103604211      5.5975946212349044      4.1407915928469388
    89   1      7.8811121090735092      7.5762514087769697      54.228898991365952
    90   1      9.6199169816315546       7.922455932851534      1.4448427016440193
    91   1      9.3600131955287011      9.6567172698571557      2.8540747692416413
    92   1      7.4196317037061972      9.4615401421507599      4.1436418996320992
    93   1      7.5807510137881549      11.538067740116301     0.11867877582196779
    94   1      9.5843799159640799      11.563442362970175      1.8073218096575396
    95   1       9.507530962958759      13.539970805282941      2.9206753529114851
    96   1      7.5373376576726319      13.292349303562515      4.2234780126164111
    97   1      7.5694411631076068       15.35593130534737      54.283725263754157
    98   1      9.3930331422450504      15.308303236260549      1.4469189498854669
    99   1      9.5954917656312571      17.277722021266165      2.5980902043933041
   100   1      7.7847808129065195      17.297579404850985      4.1263438785405251
   101   1      7.8822039692838928      19.166187140071852    0.075346071738920009
   102   1      9.6060929247841713      19.306598388601145      1.5134998160423849
   103   1      9.4868302311664809      21.169718881489544      2.7868430482651219
   104   1      7.6902734257832872      23.139735017673736      5.4301200968549432
   105   1      7.9385728920681036      23.120952305419628      54.081490034951862
   106   1      9.7998680816263253      23.071979709788991      1.5094939416826485
   107   1      9.4410178310425898      24.976748225262874      2.5596118693740757
   108   1      7.5423709658592584      25.037967922120803      3.9712178886177214
   109   1       7.271681700258446      27.135907236270803      54.107074585923556
   110   1      9.4643588208262823      26.788822335360702      1.1324036005188196
   111   1      9.4492229873013915      28.708939059285676      2.5596325916362717
   112   1      7.2945295902636573      28.677353972121598      4.0493102403562578
   113   1      7.6043994025135069      30.711068659916368    0.064987563286274266
   114   1       9.764230921477461      30.633690669380634      1.1356174429533008
   115   1      9.6415415679510641      32.750484044849721      2.5137284875090686
   116   1      7.6690004866522292       32.73601892998586      4.0847039784948009
   117   1      7.4978181987853567      34.452069966625189    0.030976878475053149
   118   1      9.6558137279104503      34.785903510214631      1.2331329510337494
   119   1      9.6616386517171318      36.596072831967597        2.76696766447093
   120   1      7.8045329210981222      36.580643670296674      4.1211818877412485
   121   1      11.654108609675339    0.037306800884523914       54.29752547935724
   122   1      13.366127918459796     0.12362205305797669      1.4087459427904838
   123   1       13.34516674338734      1.9135696586620363      2.7670714177283582
   124   1      11.454685546947086      2.0601650769930027      4.0368191245991873
   125   1      11.418478667929055      3.7752406567814667     0.10094436356735075
   126   1      13.465709560829078      3.8379018884370324      1.2017419175166979
   127   1      13.438958326920774      5.6869634410370438      2.8824755547292282
   128   1      11.454168424502585      5.8304889232556079      4.2319242556118208
   129   1       11.47416310503783      7.8037126936689063     0.14043317969438932
   130   1      13.459617013802673      7.6089564322788581       1.531795669290543
   131   1      13.228327580324123      9.5750287967040109       2.653866415452534
   132   1      11.435274829253411      9.6576676622869808      4.1498824322889147
   133   1      11.342025563582451      11.397189025265119     0.24320039610286143
   134   1      13.446665061146833      11.603104024014673      1.4634855998997294
   135   1      13.475937743530205      13.578366377470081      2.9064808512417821
   136   1      11.402965175304313      13.691998747044542      4.3373711274393711
   137   1      11.396033862552626      15.281651144419687     0.11603482776946494
   138   1      13.453859514326675      15.274793070423353      1.3209292273941184
   139   1      13.451869265875047      17.300275299564913      2.6184848771282203
   140   1      11.434061852209037      17.193639826860966      4.0719513570057737
   141   1       11.45202095614429      19.208054695846123     0.13185276351550784
   142   1      13.513678942929321      19.270971285120776      1.2501869768840357
   143   1      13.661887967029168       21.03601835608394      2.9279039161044333
   144   1       11.52052272993836      21.248007243252601       3.673659846607392
   145   1      11.576260621512343      22.931128008170116     0.10806275631821312
   146   1      13.548413341269107      22.853988353055538      1.3548424062709272
   147   1      13.395407994834553      26.811335919861833      1.4575106069234032
   148   1      13.489126803868109      24.877015339698669      2.5484772112818952
   149   1      11.587744395221208      26.868467418924453      54.237330095803692
   150   1      13.298894382208324      28.818212656106525      2.6182972896008678
   151   1      15.142837574345853       28.97971842307054      3.8320545628932541
   152   1      11.306125727828325      29.088226640008063      4.1261491477187651
   153   1      11.499521940936722      30.248138251232675      54.132324410659386
   154   1       15.50263510773045      30.889628266572778     0.10400733914636907
   155   1      13.445479967580219      30.918746094383465      1.2754428065863286
   156   1      11.514574030449161        32.3353306138318      4.0022261615749803
   157   1      11.440617046137366      34.402290398151045      54.166904477063767
   158   1       13.46536413770446      34.697938074212054      1.0520884618093547
   159   1      13.530624412318646      36.391280213440311      2.7025941937682409
   160   1      11.535361900758536      36.382464678756513      4.0011321843525378
   161   1       15.18417750096963    0.078872069184691321    0.047305265720387998
   162   1      17.192438341374636     0.23215439456506684      1.4134466644682233
   163   1      17.152799508872416       1.869044421235073      2.9276484600853436
   164   1      15.256668549659608      1.9407645636785367      4.2405080925989624
   165   1      15.427988952738042      3.9625414155988863    0.038386048070788062
   166   1      17.275406802191902      3.6600407313718759      1.6851998916055217
   167   1      17.201638946182413      5.6056740226622317      2.9227344353549722
   168   1      15.212919485225383      5.9324944274200977      4.2523494510749966
   169   1      15.367812470110003      7.5994965383169193      0.1858540209942135
   170   1      17.138823126714314      7.7092007942514398      1.5594603701452088
   171   1      17.233367319688213      9.5395150496852867      2.7207592177478794
   172   1      15.011842196241652      9.5162877339512999      4.2568594851393069
   173   1      15.544550913290367      11.734306575279559     0.14435939533966585
   174   1       17.29566228976925      13.441455087590025      2.7898809308300407
   175   1      19.211502001993193      13.487747736844453      3.9395575611544249
   176   1      15.491928348345805      13.360624233125764      4.1222446374293806
   177   1      15.306317612458795      15.503324465326182       54.20940225956759
   178   1      17.328488003145534      15.321329243322538      1.1532892182090431
   179   1      17.164626152510436      17.247718682667653      2.5682779189759555
   180   1      15.519292240522935      17.439951819669243      4.1497450345183662
   181   1      15.278406788163712      19.383701289080854       54.06731915921479
   182   1      17.080082372927674      19.308584311824124      1.2338328507849179
   183   1      17.439209296250898      21.361768067958032      2.6735824828425634
   184   1      15.624847436443497      21.297775579953985      4.1272458401594223
   185   1      15.641194651404215      23.082702867628051      54.085364508470015
   186   1      17.308387420112265      23.106742845150688      1.3950914153771228
   187   1      17.241855282802913      25.124877190888071      2.7035124431962321
   188   1      15.359384395005879       25.00887679490463       3.973746262441384
   189   1      15.227151526570491      26.919129577261085      54.279459423850007
   190   1      18.976722779760046      27.075804254409938    0.015026251421068058
   191   1      17.194370774369094      27.011179860231604      1.3964378758053504
   192   1      17.298656179755078      28.818969028244137      2.7362237465641557
   193   1      17.489042320509057      30.795993313661796      1.4098414720097818
   194   1      15.345612591450688      32.793022829155731      4.3884846965834274
   195   1       13.55546494742077      32.821800218131919      2.7882636199708033
   196   1      15.502817016916342      34.669234868858076      54.180996812897781
   197   1      17.285685116471967      32.670262851640743      3.0603266148005668
   198   1      17.341479927830978       34.71473654538562      1.4166510050587844
   199   1      17.331732853436442      36.491056050399472      2.7953824163375227
   200   1      19.185940207562009      0.1029128484991471    0.020982555721536737
   201   1      21.159625821221745      38.330476130379857      1.0967736920961446
   202   1       21.12478621082623       1.678506672861741      2.5456913923183264
   203   1      19.234279029114841      1.6835268948772013      4.1323689379023438
   204   1       19.04514207088766      3.8972511086390331    0.017093763430625596
   205   1      20.889558102048916      3.7553351894208928       1.490608529579674
   206   1      20.977459539659545      5.6802634341711915       2.802694168028609
   207   1      19.037116489324323      5.8131040795566484       4.398274401642901
   208   1      19.155856158810057      7.4237001431662986     0.25644037004385623
   209   1      21.051587909444336      7.7092441065098631      1.5354656916273237
   210   1      20.897272442096334      9.7801679565307804      2.8448858340658241
   211   1      18.923987983997478      9.5507923731286439       4.165109554965885
   212   1      17.316849575179209      11.547928069640687      1.5238923275720264
   213   1      20.954517174363652      11.532965513352641      1.4518278716797697
   214   1      21.245504812015295      13.472924899674597      2.7712636365438024
   215   1      19.346066947862013      15.725350031471491      5.1747402447224209
   216   1        19.2906055408172      13.503094403670243      53.015159634396255
   217   1      20.998722309563814       15.38010186351187      1.3778789769710542
   218   1      21.282146249991428      17.282714337236243      2.7734250246119023
   219   1      19.125654492888522      19.200242868985036    0.018953118338447431
   220   1      21.341794429945395      19.136143757144488      1.1276552736282937
   221   1      21.338368746620581      21.050579446626504      2.5745682390886118
   222   1      19.389227763686616      21.265601722597864      3.9840089750581793
   223   1      19.220186278195005      23.186505667958642     0.04731062257850456
   224   1      21.126179753947621      23.159474835034196      1.4074493811146354
   225   1      20.996005466372392      25.127437531831532      2.7745862374068904
   226   1      19.203034107070824      25.097357783680614      3.9888640295565687
   227   1      21.137425778569703      27.114685538154813     0.96692144798844271
   228   1      23.237274897404991      27.043503312291897      54.191386021104321
   229   1      20.987498414425421      28.840685961483985      2.6617933517716343
   230   1      19.064269047622801      28.594249950048706      4.1699731610682393
   231   1      19.225883399602829      30.822238264099383    0.036707321560845683
   232   1      21.020710818921618       30.96057270637214      1.4330065726915993
   233   1       21.13240938960379      32.777612297064046      2.8110095349750184
   234   1      19.283561711708266      32.415994445862239      4.3931189106626798
   235   1      19.074552334289375      34.596795727949697      54.151076358042566
   236   1       20.75803765685475      34.640807445473449      1.3799746344484121
   237   1      21.232268501510731         36.504463847691      2.7246906751211779
   238   1      19.284570546302596      36.330533109400896       4.196596714825489
   239   1      23.261852622818854      38.286541354731327      54.153177284505688
   240   1      25.001337276631073      38.335266319080482      1.1417256210746711
   241   1      25.050599521145998      1.8590501224352951       2.737911647146039
   242   1      23.024267154197918      1.8801568661937682      3.9748647252478553
   243   1      22.831370289070801      4.0403279107393741       0.108133934840225
   244   1      24.876830937209899      3.9401024931052731      1.5469175850275396
   245   1       24.86936764880744      5.7941101955440839      2.8954979132888052
   246   1      22.973612000440824       5.588187877014354       4.543206901703889
   247   1      23.031152798846616        8.08551429102946      54.276573233962836
   248   1      24.816328434813002      7.6365616553712341      1.4844382422182432
   249   1      24.882787298070838      9.7172502697893126      2.8028243459818238
   250   1      22.868992255428964      9.7902965675201159      4.1524538999604292
   251   1      22.917100608760304      11.747534272853564    0.020128431143598385
   252   1      24.791060966535785      11.806683915731766      1.4642276376041428
   253   1      24.896401096314172      13.723887468074139      2.7617341501791435
   254   1      23.060831841732828      13.431448581258659      4.3592052862540172
   255   1      23.088830049789863      17.373566418337951      52.738987213559717
   256   1      23.034622816022324      15.430374111491766   0.0025788050820438023
   257   1      24.720227526082422      17.369831874244756      2.5938522737211107
   258   1      23.156660901469685      17.425792008853055      4.3029161121988997
   259   1      23.418046833119877      19.125179503948523      54.254171163139723
   260   1       25.03923479184872      19.283916995357401       1.459426823491071
   261   1      25.000370103834651      21.057547167226954       2.766851956783785
   262   1      23.030728802359178      21.266806057011664      4.0268376541728115
   263   1      22.893374318466705      23.376986730206887     0.10973389831078745
   264   1      25.002575783203124      23.022404516660938      1.3353276860469461
   265   1      24.845714280497553      25.065792145767073      2.6947108689379298
   266   1      22.911718428747264      25.112429115986874      4.1202337760551568
   267   1       24.90997900641846      26.770934778247469      1.2800480992703471
   268   1      24.817825300448259      28.733410998033747       2.637888646766386
   269   1         24.899944077514      30.524322400014245      1.3206409888189894
   270   1      23.031568499978366       28.73315937099327      4.0517252511587794
   271   1      22.876155722189456      30.737802571477232      54.260093181893211
   272   1      26.708124288422081      30.829914861762045      54.248471488694506
   273   1      24.845971921849646      32.613976230860565      2.5919877000495464
   274   1       23.33638812195046      32.294852306383788      4.1666948796544947
   275   1      22.670535846101654      34.412267178793641      54.182980734938532
   276   1      24.800693647091947       36.36349506123625      2.6934816727865591
   277   1       26.64849826168054      36.617177372411469       4.023491571462559
   278   1       22.98778028749858       36.32180729103144      4.2388181090019641
   279   1      26.972026933138164    0.032879059887645189      54.019091812817834
   280   1      28.853639990521064      1.7759690142866349      2.6684128673569356
   281   1      27.053350703357477      1.8194825372696766      4.2323917458943709
   282   1       26.65527934887389      38.323374239761399      5.4823258958799794
   283   1      26.754873618091416      3.7284230232519198     0.19946886079308099
   284   1      28.868557593527676      3.7204415533555659       1.265574774796572
   285   1      28.754398614228357      5.6216212027903181      2.7501849799564893
   286   1      26.868941780606452      5.7171219663227619      4.1179370756638605
   287   1      26.794692118890083       7.564252435597985    0.098149892703907018
   288   1      28.529397364166794      7.6094771037047941      1.5869584386555511
   289   1      28.739924422274548      9.8720953131378959       2.935186722349524
   290   1      26.652266811682534      9.7088457620182247      4.1190762194091572
   291   1      26.690352237996386      13.541187949652498      52.851822099248302
   292   1       26.69533034023123      11.661503614707401      54.284333619482432
   293   1      28.505848029403285      13.635439556132884       2.695060417429274
   294   1      26.910356537490877      13.257602835113889      4.2760759959480747
   295   1      25.038911439073694      15.395805165295229      1.4004083026159484
   296   1      28.723877805857708      15.273317519210096      1.0822437334571195
   297   1      28.756777751396243      17.022575790433272      2.5207375982949798
   298   1      26.628601138014663      17.211988919113555      4.0362713437694646
   299   1      27.176807682785611      19.327011868796365      0.1643964829595691
   300   1      28.938108764819773      19.063301537735931      1.4337308587679927
   301   1      28.954303818008537      21.232178014661361      2.5765325360754674
   302   1      26.967501751719873      20.970308951829018      4.0988289076115958
   303   1      26.839113253073489      23.165356939379908      54.175660604057732
   304   1      28.642795573669645      23.211447934981297      1.3781241383289304
   305   1      28.639330579930309      25.104207803240321      2.7056839505080337
   306   1      26.760753187500946       25.05739927749168      4.0938316281693927
   307   1      26.762902636291383       27.19338485667021      54.228419959544766
   308   1      28.635253184145348      26.959337702016839      1.3031402318208394
   309   1      28.652062326659955       28.96613271710569      2.4919293048460167
   310   1      26.829590985272155      28.759595526437788       4.036941013636409
   311   1      26.679758162916563      32.859676904318427      52.872191368729005
   312   1       28.74542471282351      30.932414074035218      1.1248577957211761
   313   1      28.498632895300887      32.809266284257845      2.4794390477927526
   314   1      26.694468457534313      32.546501446343214      4.0819346827427827
   315   1       24.63522905767897      34.388869870985985      1.1764887100889938
   316   1       28.81110175873685      34.823656556294516      1.2476046541918537
   317   1       28.62822453150946      36.482875714910186      2.6966598954644474
   318   1      28.672432314309265    0.057805512738572741      1.3685305803642016
   319   1      30.582763775969255      38.358355965592565      54.088785836927428
   320   1      32.465142282518435      1.7598674267740866      2.7784043599581976
   321   1      30.616543904419007      1.9736319012556742      4.1926607759716825
   322   1      30.843028404963416      3.8067096811124288    0.094993987022098922
   323   1      32.823281373227978      3.7142473782368981      1.3100217187266612
   324   1      32.656303321230638       5.666730560914262      2.6305859142123809
   325   1      30.702249018170715      5.9121556525124905      3.8994881341574126
   326   1      30.571609943105607      7.6396268081936505     0.31140509755059603
   327   1      32.429914771942194      7.6164092823716834      1.4860143015580412
   328   1      32.389217589816447      9.3144687470951979      2.9790633913386637
   329   1      30.464443195834125      9.6743542245037553        4.36591409696101
   330   1      28.498921074264942      11.574088122983179      1.3139876355180715
   331   1      30.421971285693168      11.627806368253257      54.285058112070722
   332   1      32.370693181524558      11.310716682750165      1.4178285802350636
   333   1       32.45922161129328      13.148395197335454      2.7336769470180551
   334   1      30.679925931633452      15.076923099375254      54.111468312991491
   335   1      32.426379105690387       14.89757985464847      1.3184313193756769
   336   1      32.779138884638435      17.008693249499014      2.4943258661839969
   337   1       30.77611745644063      16.624024516336291      3.5576021420750177
   338   1      30.631352908224859      19.098736884813249      54.180311442663012
   339   1      32.627028530338485       18.99725419526861      1.3500926365688568
   340   1       32.86798078039093      20.773038925759224      2.7039067589466748
   341   1      30.898956550234459      20.812113754396712       3.844747484694675
   342   1      30.673331594710003       23.28708756777155      54.191393889826351
   343   1      32.504218982312381      22.833623416941077      1.3871474859552009
   344   1      32.792099201863088      24.944345585538123      2.5778246812622116
   345   1      30.779430458293625      25.020538869596344      3.8300087357939696
   346   1      30.570571606307301      27.050887234706373    0.024772667602940123
   347   1      32.571555604331721      26.939271997014998      1.3542223575601151
   348   1      32.594235657862889      28.784907965771051      2.5542628334490827
   349   1      30.527257519471288      28.967696760979898      3.9130946228144827
   350   1      30.844867210860162       30.80578985983156      54.259125176011167
   351   1      32.753262247813154      30.717343495425926      1.0807726833730624
   352   1       32.67243605366852      32.793603378639801      2.3468944813013666
   353   1      30.455615765138955      32.721045038367251      3.7046495392468959
   354   1      30.768346515894038      34.737665624976671    0.010377386892525922
   355   1      32.754539850241493      34.895087894136026      1.3249721637602314
   356   1      32.416656829013142      36.640662223425416      2.6523410027415451
   357   1      30.469430271325926      36.491360871185961      3.9380562534870158
   358   1      32.426214524395355    0.030361916125239072      1.1337927482714578
   359   1      34.623885930391658    0.056447905746281772     0.15873317719991761