dump/Si_1000_5/steps_41 (written by ASE) 

3995 	 atoms 
1  atom types
0.0      38.395898218429522  xlo xhi
0.0      38.395898217999999  ylo yhi
0.0      54.299999999999997  zlo zhi


Atoms 

     1   1      38.276261445827529      1.8559353724148402      52.839015901455447
     2   1      1.8689913017822575      1.9562805196210025      2.7342861537830254
     3   1      38.330447475125773      3.9156618527638751      5.3598911019440161
     4   1      36.214075409553445      2.0518142335135385      2.4628753286325944
     5   1      36.484829829726884      4.1078556569230527      1.3123119217620089
     6   1       38.28340579173117      1.9926640503266118       3.891497190902462
     7   1      1.6343233824193617      5.7582300785950364      2.5595921875483918
     8   1      36.243113498094367       5.857554295745115      2.8609954742472365
     9   1      1.8297080488330018      3.6389871226050885      49.991449456946349
    10   1      1.5967116999288624      7.7256179226103168      1.0166274888884339
    11   1      1.5965702699064834      9.5126288238617533       2.491886878962601
    12   1      38.104359376083217      9.8322225112049804      4.0631097266919936
    13   1     0.23367804860596467      9.4075993240880749      52.749325330719856
    14   1      1.8935567329429215      11.623315639036777      1.3717530112874874
    15   1      1.7215909557074036       13.47219654083742      2.6158338590756558
    16   1      38.215100373551316      13.563062855705974      3.9860496487308317
    17   1      38.239545273175708      13.796295964652343      52.932555285400021
    18   1        1.96797338952306      15.402318413091125      1.3576762276923984
    19   1      2.0687454568188581      17.274052609459513       2.575379339279503
    20   1     0.35882204295299969      17.175853658234907      4.1089946430034603
    21   1      38.328195173515859       19.28973892638033     0.04849950766587198
    22   1      2.0858453468189166      19.217142607164789      1.2134128555905839
    23   1      2.0259710857212991       20.98256806518377      2.6969620406497037
    24   1     0.32119999188555537      21.222583135405799      4.2337942840792406
    25   1    0.050572260936357485      23.159828336057892    0.067918807946034804
    26   1      1.8875354749612716      22.902797096739626       1.440600569100023
    27   1      1.9983152170843594      24.837727071174967      2.6643100960608508
    28   1     0.29822313412412249      24.830744972034516      4.2674119105581658
    29   1      38.338859538571938      27.090161720370176     0.20226131045978954
    30   1      2.1622669582801621      26.783429687303009      1.4607484052817554
    31   1      1.9491671458257442      28.757649841337013      2.5241487406190362
    32   1     0.31035050623782368      28.801152357978957      4.0680628091363582
    33   1      38.363008792467959      30.898560817800316     0.12415511309611711
    34   1      1.8023098610305541       31.01376332381826      1.4503209341385073
    35   1      2.0323953956763803      32.762000912316708      2.8686460874742328
    36   1    0.094325094239960466      32.485291029875683      3.9549123310831971
    37   1      38.159452221417972      34.658344180713598    0.026866280888407326
    38   1      1.6795597815324996      34.474249916247167      1.3160678617418713
    39   1       1.584080033437266       36.58663511663179      2.4394217951051917
    40   1      38.366351716136222      36.368223065807342      3.9849546313620188
    41   1      3.6557827019615319    0.056945559074675682      54.292076709715104
    42   1       7.457504309769722     0.02387997071702265       54.17774362117386
    43   1      5.7302638348845898      2.0763658407122128      2.8306158498976655
    44   1      5.5134891948118421    0.089137451866380696      1.3855817100722672
    45   1      1.6558953188984162      3.8072163593239501      1.2016234792771205
    46   1      3.8570125819208672      3.9232790444592625      54.167083434859201
    47   1       5.648515206483653      6.1455743759407202      3.0584659869490092
    48   1      3.4478694107278298      5.7279866223366334      3.8916019817505547
    49   1      3.6933995971595439      7.9460809282106943      54.226504775156947
    50   1      5.6411159247809257      7.4668022347264218     0.86564539703321952
    51   1       5.596202420398904      8.9905900790136553      2.8591559718724722
    52   1      3.4356967808444097       9.557632755507159      4.0250116682498867
    53   1      3.7049618410531124      11.700852670283709      54.180881126659401
    54   1      5.5238671903852836      10.727014359384693      1.2661772770022945
    55   1      5.9791151488794201      13.062960685078531      2.5388791446622547
    56   1       3.823827395354368      13.229733087714349      3.9833559464219332
    57   1      3.8581964681159828      15.253591293893173    0.036356687685963597
    58   1      5.9467378369179462      15.248059689157657      1.5684547846101409
    59   1      5.8060200931494004      17.197406692114455      2.5794134351361118
    60   1      3.9094084432049425      17.250286286784597      4.0256127303787812
    61   1      3.8624709311129459      19.096911657506752      54.126290911437685
    62   1      5.7229145733458084      19.137030951624357       1.267826552876625
    63   1      5.8270278896426335      21.000985459922081      2.4956747481653698
    64   1      4.0305774261492529      20.835321548572168      3.7690147968898136
    65   1      3.9309128619268781      22.928152480915795      54.283875820418906
    66   1      5.8186460430646569      22.872398161541263      1.2979159414433752
    67   1      5.8956726315747989      24.766274135157605      2.6076575966833526
    68   1      4.0198242723774733      24.977220130886771       3.866604648094413
    69   1      4.0818700087763569      26.869321329318602     0.03989996587237099
    70   1      5.9010631819535524      27.057876346698801      1.3380457203199068
    71   1       3.660809280185775      28.620087172752974       4.163135047933805
    72   1      3.7949014442705602       26.72652726264792      5.3816356861208625
    73   1      3.9973227113964955      30.821164921293672      54.003369106779338
    74   1      5.6422092133464092      28.969395154474451      2.8424845488815231
    75   1      5.5353881214625922      30.771804225643308      1.5651364625924178
    76   1      3.8639315309443307      32.831927434888243      4.1871214014904128
    77   1      3.6518540407885509      34.902731134780758  0.00026054615195789663
    78   1       5.677422625871432      32.571657943646549      2.7758463243818117
    79   1      5.7319396027834113      36.673604711256196       2.678395197518046
    80   1      3.8304383677053488      36.501664164413761      4.1779342736965397
    81   1      7.5144673791013776      36.530782624741747      52.974032812970378
    82   1      9.5412994458890115     0.24094896942205932      1.1914478956571786
    83   1      11.547148241963182      2.0900692277954631      4.0177942242718467
    84   1      9.6468204063179908      1.9769665779838104      2.5907468198297225
    85   1      5.5074433699835055      4.0469060441757669      1.5356068302492738
    86   1      9.5866585118686078      3.9982962171738126      1.2894453862381299
    87   1      9.6090414210402511      5.7361259363020656      2.4622017248043546
    88   1      7.7247552316603443      3.7638715745939963      5.4045537815607654
    89   1      7.8173572821243571      7.6411933706392752      54.139783480177314
    90   1      9.5196302128800276      7.7634301416698568      1.4697502446499144
    91   1      9.4053522045430782      9.7762458777184555      2.6938996475054884
    92   1      7.6297431465875256      9.4767670952979302      4.0796577388049293
    93   1      7.5236530940752733      11.416004266580913    0.014392788288989768
    94   1       9.557963656599723      11.562400600317092      1.3593588359569226
    95   1      9.4403803352380482      15.471054462580293      1.1435761618387006
    96   1      7.7867212343153573      13.541448349098218      4.1435639762892613
    97   1      7.5462735782662325      15.164190920163955      53.907590791927227
    98   1      11.541437504879152      15.625927824210729     0.10453677152354429
    99   1      9.5872989511136915      17.313467076060721      2.5618184910306234
   100   1      7.5560096069943885      17.384003768479417      4.0379605192334687
   101   1      7.8385701878649474      18.961323343997751       54.19538408045193
   102   1      9.9604532889839277      19.209631463273169      1.0556066949412195
   103   1       9.463696960681137      20.961374178752653      2.5580500742390857
   104   1      7.8759431943816072      23.064990860471323      5.3275289129806875
   105   1      7.8961696247297688      23.162895137882927      54.234793510593192
   106   1      9.8090937569706096      22.747541203125543      1.2223482119480886
   107   1      9.7226763473035085      24.920249680978319      2.5974132295004098
   108   1      7.8206506442946022      24.994891452013128      4.1625821419321607
   109   1      7.7621567013892143      26.857530101724606      54.107994327573351
   110   1      9.7604377965271407      27.082983823146808      1.4657785385680562
   111   1      9.7651125058503716       32.65807875492802      3.0110867170190656
   112   1      9.8164731564651682      29.057107311339131      2.9202512445859705
   113   1      9.3921696380893884       30.82580990671779      1.3073796980074599
   114   1      11.483648052804947       32.91548154942322      4.4433779445755031
   115   1      9.3241938226181666      34.417701919083783      1.6355843804786241
   116   1      7.5545896480887018       32.90103418404113      4.1435509624034257
   117   1      5.4921524730245865      34.564284632837051       1.439311292004505
   118   1      7.5306006980089926      34.707639150130241     0.20965890806143089
   119   1      9.3877789842045285      36.484859944562857      2.6640656116864441
   120   1      7.5147572232756854       36.36571441340709      4.0015749612045939
   121   1      11.518675597916273    0.097122899196989826   0.0060072514836406535
   122   1      13.333842239946312    0.040598313209172676      1.3473262801035151
   123   1      13.462947735629275      2.0349349757450699      2.4983106342470567
   124   1       11.31538924553575    0.092393486476904346      5.2484827282695257
   125   1        11.4963001509365      3.8151066075635005      54.142848618016764
   126   1      13.527947067263211      3.9942830670433818      1.0239591144533144
   127   1      13.525133975604312      5.9292704390160749      2.5008078129333384
   128   1      11.604104911522308      5.7078365877866606      3.8834139676686177
   129   1      11.457294684497226      7.8425524673514149    0.090754239380987436
   130   1      13.523890781957999       7.977899702505626      1.4898122520084922
   131   1      13.453611444919302      9.8043893763778662      2.8102896580663246
   132   1      11.442763606352305      9.5641913823398372      4.0540728022276902
   133   1      11.577852095006566      11.808901142025043     0.32673513744915655
   134   1      13.768558764006166      11.698647240167304      1.3474759354261889
   135   1      13.409296086069517      13.385593345882809      2.9899138175187305
   136   1      9.4951752848057218       13.47973837331271      2.5837184491436811
   137   1      13.287591099749788      15.363603740861874      1.4367745913367329
   138   1      15.357082174554952      17.313334530194744      52.892865858877784
   139   1      13.579793545425366      17.285486808057641      2.5681743814655307
   140   1      11.583189288292569      17.418289808413451      3.8397978896982181
   141   1      11.890244252049678      19.215140193195765      54.013500587626005
   142   1      13.644942938424109      19.227457508948365      1.3129174653220257
   143   1      13.487882733812841      21.217878824074834      2.5912981938788788
   144   1        11.3861547558253      21.038342960993294      3.8834859692874462
   145   1      11.599368097756789      22.845594311858065      54.002013276990127
   146   1      13.383639662172072      23.180465430752669     0.95696482802514815
   147   1      13.498847739213062      26.947571290390623      1.4548436238025713
   148   1      13.418851896755132      24.998518889135269      2.5047786400571335
   149   1      11.601710939376929      26.831654758704616      54.220053911742255
   150   1      13.393083537430881      28.915018230254084      2.6281977650752744
   151   1      15.208047765515158      28.780300300507765      4.0106795553035024
   152   1      11.761667814448934      28.984657497077578      4.3304368427869351
   153   1      11.210867135764394      30.632542434124584    0.066743562262036066
   154   1      15.226274661604185      30.992100081951129      54.182426330961661
   155   1      13.222724562391395      30.861527117853132      1.2825449011200907
   156   1      11.448133194132426      31.108061367978962      5.8790314713385436
   157   1      11.252910084604933      34.896525392155773    0.082164230741852654
   158   1      13.247069602680584      34.652341445178394      1.3740265808641983
   159   1      13.248718340310109      36.551475131639698      2.6764657525274855
   160   1      11.404030070831126       36.57504215425373      3.9725836629121565
   161   1      15.323374041337125      38.303388258457133      54.198889305466807
   162   1      17.299404030568454      38.291688612239788      1.1251048208099157
   163   1      17.116124897177954      1.6380284161144667      2.8950999280367546
   164   1      15.193613423376618      1.8085034657840109      4.0794967886337643
   165   1       15.54299013809214      3.9475404993812102      54.153070206226381
   166   1      17.262068003978623      3.9694335716402058      1.4599143435761583
   167   1      17.538885258382017      5.7256393812374053      2.9075193346424744
   168   1      15.258097600500854      5.6503945406056024      4.0162346497648418
   169   1      15.408643080717887      7.7333754216920587     0.09170501857266794
   170   1      17.181516168686379      7.5426759914115502      1.5787334347318831
   171   1      17.489172966771605      9.8053927881850935      2.6554506934264985
   172   1      15.534041939322057      11.548674154326898      5.4738922494377347
   173   1      15.548385815325439      11.676074824958988      54.135173061494164
   174   1      17.107919575241507      15.628939638400418      1.2603860789396781
   175   1      17.271575164013719      13.738807045584922      2.5465974223939272
   176   1      15.510171341749325      13.524105148649841      3.9313881185749215
   177   1      13.463526907672907      17.222913718409522      51.528600874378988
   178   1      15.282772495603307      15.240665069067651       54.21904641558735
   179   1      17.352246750376153       17.33178788919523      2.7259218075137697
   180   1      15.258532462449859      17.360035181551403      4.2702957974638478
   181   1      15.512281622218273      19.441418308687041     0.16941553829876743
   182   1      17.623946626271128       21.09086441960627      3.0352233166299274
   183   1       19.61364513041703      21.009912437556792       4.371400206248973
   184   1      15.427329538515817       21.09982391272284      4.0154935459043708
   185   1      15.413704756979124      23.061241088134903    0.028406865442934769
   186   1      17.261919326972972      22.957926781306618      1.5019640354864783
   187   1      17.300823843893401      24.838459972636233      2.7369159645330887
   188   1      15.280715279821651      25.002843635573232      3.9391623114427508
   189   1      15.574649573539377      26.690670608277941      0.0141134815311034
   190   1      19.220867181687989      26.855069214189616      54.246436140730033
   191   1       17.43110284238378      26.927668240413922      1.5231017300936398
   192   1      17.272558127833676      29.074958568220847      2.7488635084375934
   193   1      17.079192206014241      30.752748293114227       1.140510938241234
   194   1      15.363047643611463      32.795937282198786      3.9573081109934285
   195   1      13.319131537692947      32.717238090524745      2.7723797843094395
   196   1      14.987727847396842      34.501820113021239    0.084966074795670227
   197   1      17.318972922027847      32.697251004256607       2.608449097287858
   198   1      17.090368373600278      34.621533856560035       1.201604473891656
   199   1      17.063372394345031       36.57985530565648       2.580051532288349
   200   1      19.355549303798071      1.9582098928622644      52.965132309359213
   201   1      20.773557573329967     0.17616472765977481      1.4512798879247717
   202   1      20.918525886082165      2.1481589041441636      2.7935794334749073
   203   1      19.031996489467996      1.9912709187214706      4.0077729676327074
   204   1      21.113159964069848      3.8827780839545953      1.3479274656901434
   205   1      23.043052169134125      3.7487726474309375      54.185934822606164
   206   1      21.374188176683489      5.8420722900038973      3.0202201654599556
   207   1      19.384540581725695      5.7048263178762415      4.2273765922430018
   208   1      19.038922557223497      7.9200345799448337     0.31637953856543394
   209   1      21.189825019765845      7.7899440232794861      1.5912266288926948
   210   1      21.371422075340721      9.9134040815530433      2.7818122949492587
   211   1      19.334320866417421      9.7088816206317077      4.1724048288245834
   212   1      17.313516879729985      11.788949279469753      1.3947356008332938
   213   1      21.328229957839948      11.696370284840702      1.1264896005515554
   214   1      21.512599777283469      13.493037589252424      2.7122795383254141
   215   1      19.313323646935039      15.309788616636839      5.1394336165487635
   216   1      19.268842713213047      13.605538727426616      52.910591633782765
   217   1      21.338684889541927      15.425463382633769      1.4627950934059744
   218   1       21.08991999729594      19.426339173920006      1.1965475711921716
   219   1      17.239742360195059      19.190051518360274      1.4738097349021797
   220   1      18.998023697213945      19.305592171491607   0.0080448608191886761
   221   1      21.102332178021257       21.47840673446543      2.6058481123164037
   222   1      19.149438143812496      18.954726181155689      5.7457715965474385
   223   1      19.131028462634934      22.992550143073558      54.235878039595178
   224   1      21.151970238744077      23.256776531601247      1.1216132528506617
   225   1      21.043029138088464      25.043867688362333      2.7495400043275717
   226   1      19.351588210639065      24.900949720171727      4.0616236888182105
   227   1      20.939046610295602      27.099352611506848      1.7383334025854078
   228   1      22.984770917965868      26.881020394622961     0.48254718886879588
   229   1      20.952809329619637      29.027004215175751      2.7879595425939439
   230   1      19.038976319721296      28.936409663814675      4.1747146257854979
   231   1      19.037515672122538      30.824354590902367    0.093721114711547496
   232   1      20.992035919447915      30.967831938578964      1.2920324608152909
   233   1      21.372893464475649      32.684457931357386      2.7742161381632395
   234   1      19.254563051771502      32.756766759405856      3.9477292334858936
   235   1      19.104828258389187      34.704992023619226      54.250048867993101
   236   1      21.061562058262865      34.669535812634024      1.4119399231481453
   237   1      21.075465448202678       36.42592415838196      2.7229025712704122
   238   1      19.084491068207697      36.694614095788687      3.9461680292121177
   239   1      22.972714758861105    0.051816232409468629      54.247001383112412
   240   1      24.802710675683517      38.370642302597517      1.2802257106424915
   241   1      24.896819059222388      1.9490059022627486      2.9433076881536633
   242   1      22.928566887591085      1.7992061322771491      4.3833976150211784
   243   1      21.265650688049057      5.8350396328527152      51.817298570092539
   244   1      24.723710422252484      3.9910163420775904      1.7043671805342542
   245   1      23.196373979888605      5.5844595160271719      4.1324214011358551
   246   1      22.798692020604712      7.8042537040504838      5.2190990479492054
   247   1      24.997110515951796      7.7939530952202274      1.4084858021989379
   248   1      25.103454645268695      5.9239589797369341      2.7997608623426551
   249   1      24.919320796911663      9.8867774273324844      2.2826873314312262
   250   1      23.447049152038797      9.6624539616957712      4.0498405489629503
   251   1      22.951781591890281      9.8175978358067155      53.089238716851959
   252   1       23.27463193932396      11.900737183129889       54.18282283786926
   253   1      25.237928467713143      11.947132888430147      1.3525875698541192
   254   1      23.470876275870292      13.653854410923817      3.7862202499735425
   255   1      22.969044293627231      17.411788245348813      52.767465352829539
   256   1      23.165514244739498      15.459221022425254      54.057577854296639
   257   1      25.117345448209321      17.473846297664227      2.9489172904663512
   258   1      22.992714521783597      17.544327148628074      4.0753137563971578
   259   1      23.109145503945399       19.37774351552692      54.227657486073056
   260   1      24.959541948290219      19.178059877292895      1.3296969228788866
   261   1      24.889662326846118      21.147988980953553      2.8053830683385281
   262   1      22.980425521235279      21.336747666222315      4.0406347965648122
   263   1      23.089964065391527      23.143128766390383      54.207812120866961
   264   1      24.890709586501853      23.263537269934428      1.3989422554560278
   265   1      24.800133677561121      25.035891874362903      2.7777784297047123
   266   1      22.904508480572414      24.870854724741353      4.1742473557810742
   267   1      25.217630709304864      26.971917804903232       1.294971060769333
   268   1      25.258975736060023      28.673693979974136      2.8647349417962582
   269   1      24.922672018583054      30.701060190469271      1.3670050354912753
   270   1      23.086649809861967      28.788824482086635      3.8579310637805064
   271   1      23.118441782431869      30.750342381385078      54.248808683263981
   272   1      26.829852402634923      30.880634519696635      54.151951575262061
   273   1      25.207496934117373      32.769647794762506      2.8111671947096273
   274   1      23.273453243661599      32.473534654528208      4.1393551303859111
   275   1      23.063896201105198      34.728952588268349    0.060225868224062833
   276   1      25.090391928087051      36.487282169709864      2.7277338348791322
   277   1      26.968804418359735      36.148106615771646      4.0418137000892571
   278   1      23.113375634213266      36.471846072763704      3.9897991437898668
   279   1      26.638836413488516      38.385124466729529      54.244289546317006
   280   1      28.880399335236998      1.4953968305586223      2.5433012397262478
   281   1      27.026119257958428      1.7085595182612408      3.9868901660430511
   282   1      26.991714602794254      38.194417739094575      5.3707670282974531
   283   1      26.638701072015152       4.073401151275851     0.25109001730222646
   284   1      28.939368474573406       3.679404370464924      1.3566327131128588
   285   1       28.66440672839828      5.6801310158318481      2.4770206121508749
   286   1      26.794401776752952       5.501997030072447      4.0560329709457532
   287   1      26.836683998391074      7.7797416386432312        54.2644346934024
   288   1      28.809536848148568      7.7106330479602825      1.3546761500223534
   289   1      28.775367295650078        9.65783130829643      2.5220317563816814
   290   1      26.824158534053417      9.8900837900958862      3.7570589644520607
   291   1      26.792435787796364      13.565412524647845      52.739308404996997
   292   1      27.017976749357874      11.697246102735392      54.009099048191146
   293   1      28.655805426766939       13.53209383640983      2.7123853342190816
   294   1      26.824169403530888      13.545310131404392      3.9485447440359027
   295   1       25.22131918201584      15.895979172888868      1.1913637653701914
   296   1      28.783658317145683      15.399108456711684      1.2740708554605911
   297   1      29.003844104876819      17.311409747943017      2.8071373584874078
   298   1      27.273747145437728      17.468033434900523      4.2143438923898868
   299   1      27.144530762172181      19.393446561405803     0.11349237132552628
   300   1       29.00676947497271      19.368651326777513      1.5545010321674799
   301   1      28.976466220864669      21.423957299428373      2.8284024580299385
   302   1      26.985430722348212      21.471631839894091      3.9912376831236744
   303   1      27.086970964244248      23.109106115678205    0.045862988646467796
   304   1      28.925093266031155       23.23301416392831      1.3150991622210866
   305   1      28.639092252602076      25.084766294426831      2.6535276185376322
   306   1      26.720446325362374      25.201787057000761      3.9639625272383219
   307   1       27.01104794964699      26.945458774663301      54.130446934540515
   308   1       28.95755589261471      27.059599787066617      1.3047745938418058
   309   1      29.206537570523782      28.967396035996252      2.5931558107173913
   310   1      27.325865055415871      28.936682648679401      3.9623714381249009
   311   1      27.357867420109763       32.67526143691029      52.742271105383224
   312   1      28.752724288417241      30.881660844114208      1.1379130064272212
   313   1      29.171510313334963      32.773711315981004       2.837338017516434
   314   1      27.124460156628977      32.603204731315898       4.320798342781428
   315   1      25.027577240618111      34.440625969114194        1.44367951572914
   316   1      28.825387372693235      34.498878477934021      1.1714472154503695
   317   1       29.00715899289311      36.199773409481502      2.9487589413833697
   318   1      28.698357140375652      37.799740871081191      1.2745605226447303
   319   1      30.567649120949962      38.163630102936388      54.292210505034205
   320   1      32.669127265192614      1.6815412614799272      2.5619772748917495
   321   1       30.76209240538585      1.6151004512542046      4.1293336306463413
   322   1        30.8874087129267      3.6093146871049844      54.270659502949343
   323   1      32.832581855021282      3.8260804551320526      1.3906993357837678
   324   1      32.589183541280342      5.8728060155037562      2.5017914806316073
   325   1      30.514861289851115      5.7956766883094817       3.899376985560187
   326   1      30.571599627835344      7.7507331987210328      54.189577965295015
   327   1      32.551428450731763      7.7442805342930754      1.0823868880162431
   328   1      32.626263198872941       9.519927699951177      2.4498922472749629
   329   1       30.90198704418032      9.7007961526075039      3.8890484848616769
   330   1      28.769522178966145      11.669357585134666      1.2561720313106073
   331   1      30.656750858152048      11.661885416342972      54.063964407687031
   332   1      32.672496451013018      11.435815733880178       1.148762849567516
   333   1      32.596321506921328      13.342292739047169      2.6019295059306615
   334   1      30.584424619990735        15.5828558365149      54.168984794690985
   335   1      32.539114057056707       15.21096225566175      1.0467353594154249
   336   1      32.803539587989206      17.313345748156301       2.542171289547845
   337   1      31.068933494378498      17.147276174908498       4.222984073846578
   338   1      30.744475966538289      19.563279941437237    0.068787708085414956
   339   1      32.740612878633733      19.277050237728982      1.1662389770289001
   340   1      32.779020834214407      21.162737155570195      2.6637107147448758
   341   1      30.902145620788815      21.178002563893632      4.0309191739971846
   342   1      30.819661403032615      23.342643158010816      54.230035237743643
   343   1       32.65521128326867      23.159825107532178       1.579632385553807
   344   1      32.641101708684765      24.876893818254043      2.8756329078705334
   345   1      30.703922478738793      25.002362432142188      3.9581782924226996
   346   1      30.943618482013282      26.702582554302516     0.15316702384195649
   347   1      32.717943652024637      26.851085719552636      1.5521202803332472
   348   1      32.743311917430368      28.594039330310544      2.9983286776190208
   349   1      30.837527731882535      28.781448015442916      4.1219222913946982
   350   1      30.819118361147133      30.818379488248404     0.16351851600134043
   351   1       32.77284388199255      30.756877938716691       1.838412212409944
   352   1      32.823098699393007      32.668888487700684      2.7978905190299286
   353   1      31.017271430371942      32.743717695746049      4.1431599235949319
   354   1      30.843937470115414      34.730702337003933     0.14440882817630127
   355   1      32.823562405649938      34.626594947145925      1.3966710256314512
   356   1      32.510234013694124      36.395237575269832      2.8695386529898759
   357   1      30.792354861751694      36.452787482128102      4.5027475162631161
   358   1      32.466125545514203      38.016095072314606      1.2281214870518169
   359   1      34.541422932627057     0.24144430418391682     0.15672091284977774