# LAMMPS data file written by OVITO
500 atoms
1 atom types
-7.66608 11.1900997 xlo xhi
-7.6691499 11.1931 ylo yhi
-7.7435699 11.2675991 zlo zhi

Atoms # atomic

3 1 -5.66782 -6.0678101 -6.5815101
104 1 -3.61832 -5.66888 -5.4671202
201 1 -0.947172 10.3192997 11.3032999
204 1 -0.10301 -6.3575201 -6.4478698
203 1 1.61271 -5.3087201 -7.6879502
202 1 2.0687499 10.9857998 -4.1942401
304 1 4.47644 -7.5046001 10.4847002
303 1 5.8509002 -5.4640899 9.8706904
404 1 6.8055201 -5.2264099 -7.0630298
4 1 -7.5448799 -5.6813002 -5.1652799
403 1 8.9512998 -6.1834302 -6.28825
22 1 -4.84119 -3.6739199 -5.39884
23 1 -5.8043399 -1.58346 -6.5188699
24 1 10.9137002 -2.0783999 -4.9149098
121 1 -4.5078101 -4.1487899 11.3394003
122 1 -2.1585901 -3.87337 -5.9695002
124 1 -3.20438 -1.6764701 -5.8290701
221 1 -0.542295 -4.3650198 -7.7515702
224 1 -0.520386 -2.05023 -6.7938299
222 1 0.134322 -4.0595999 -5.46169
321 1 1.84443 -2.98645 -7.47222
324 1 1.45695 -1.0825 -3.96746
322 1 4.9368902 -3.7895401 -6.3362899
323 1 3.99256 -2.25754 10.9368
424 1 8.1066599 -2.3236599 -6.3467698
21 1 -6.7291799 -3.7599399 -6.38866
422 1 9.4473601 -4.09408 -5.99362
423 1 10.5656996 -1.50684 -7.37075
42 1 -5.0692 0.213354 -5.7853999
142 1 -2.56845 0.247366 -7.0950899
144 1 -3.29299 1.63247 -5.5229998
241 1 -0.632792 0.52637 10.8447
242 1 1.10016 0.1385 -6.4063802
341 1 2.96401 -1.47377 -5.9570398
243 1 1.5084701 2.09284 -7.72683
342 1 5.7405401 -0.718912 10.0173998
442 1 10.0094996 0.282227 -5.5438199
44 1 -6.8808098 1.84996 -6.3323898
62 1 -5.5247598 3.58721 -5.5876599
143 1 -1.39638 2.54614 -7.3062801
161 1 -3.8473104 4.2705302 -6.7446199
162 1 -1.39407 4.01859 -5.5793901
244 1 -0.436748 1.92415 -5.4110999
262 1 1.17296 3.3569501 -5.8589002
344 1 2.85514 1.09351 -5.5799899
361 1 2.7427001 4.3785801 9.7197199
362 1 3.8385401 4.7126999 -4.25985
444 1 5.8761702 2.9884 -6.6081901
461 1 6.81566 4.79455 -7.23316
462 1 10.1078997 2.5989399 -5.0751801
64 1 -7.5405302 5.5555401 -5.1490502
82 1 -6.1020002 7.5959902 -5.50348
164 1 -3.9839302 6.5067902 -5.7773199
182 1 -1.94898 7.6019402 -5.4849901
264 1 0.0723764 5.99783 -4.7343998
282 1 2.12149 8.75107 -6.4640999
364 1 2.98773 5.36866 -7.4003701
382 1 7.0787501 7.1437302 -6.9569898
464 1 8.07131 6.43959 9.92169
482 1 8.7072401 6.3358898 -5.0954499
2 1 -5.5423599 11.033 -4.9159598
83 1 -5.34126 9.3962097 -7.2037602
102 1 -2.3611801 11.1522999 -6.0732098
184 1 -3.9311 9.0714102 -5.3502798
284 1 0.410695 10.5595999 -5.7122102
384 1 4.40555 9.0130701 -6.2148299
302 1 3.84814 -6.38942 -5.2291098
383 1 6.2742601 8.6722203 11.0165997
484 1 6.5810499 8.5352001 -4.88093
402 1 6.1513801 -7.5180998 -5.9267202
84 1 -7.4357 9.8090401 -4.9604702
7 1 -5.2811599 -5.44096 -3.39907
8 1 10.8742 -5.4474602 -1.93616
105 1 -3.2290599 -7.4149699 -3.4906299
107 1 -1.37209 -5.1504502 -3.9154602
108 1 -2.99951 -5.7604099 -1.96669
208 1 -0.029472 -5.3975802 -1.82001
207 1 0.991012 -5.9155698 -4.0749102
308 1 2.3899601 -4.84799 0.0275706
307 1 5.1245098 -4.49226 -4.2133498
408 1 8.1978903 -4.8374701 -1.89698
407 1 9.64431 -6.0970998 -3.96013
26 1 -4.9193102 -3.6695099 -2.0403299
27 1 -5.4306798 -1.9748502 -4.1076102
125 1 -3.08898 -3.5240801 -3.69468
126 1 -1.96051 -3.5709 -1.4478101
127 1 -1.31395 -1.50264 -3.2997701
128 1 -3.4724 -1.4315502 -1.99174
225 1 0.147784 -3.3267501 -2.97557
228 1 0.142726 -2.23173 -0.988607
227 1 0.279338 0.599657 -2.9932004
226 1 2.0257499 -4.3608198 -2.3973301
325 1 2.6224001 -4.3564301 -5.4252801
328 1 4.7395301 -1.15116 -0.22246
326 1 6.4684901 -2.5460601 -2.5692201
327 1 3.95269 -2.8525902 -3.02932
425 1 7.3450399 -4.3832202 -4.2300601
428 1 7.5903201 -0.16622 -2.0053301
25 1 -7.0854802 -3.87811 -3.82796
28 1 -7.1715298 -2.2358999 -2.2286
426 1 9.52561 -3.7402301 -3.5035901
427 1 8.7030602 -1.4850201 -3.86165
45 1 -7.29495 -0.14017 -3.5218101
46 1 -5.5418301 -0.338363 -1.93458
47 1 -5.29389 1.79565 -3.85139
48 1 -7.5261202 1.63211 -2.10375
145 1 -3.7309201 -0.225972 -4.0760398
146 1 -1.65571 0.531538 -1.4575
148 1 -3.8065901 1.35206 -2.07687
245 1 -1.25312 -0.125155 -4.9587798
246 1 3.03317 -1.40659 -1.63532
345 1 4.4810701 -0.7339821 -3.94485
247 1 1.91648 2.43309 -3.6199601
348 1 5.0097699 2.89378 -0.924095
346 1 6.4377599 -1.02384 -4.21067
445 1 7.93748 0.7929001 -4.9326402
446 1 9.5671797 -0.166967 -0.727756
65 1 -7.2044802 3.40166 -3.8513
66 1 -5.3596001 3.93398 -2.33862
147 1 -1.8403 1.5510302 -3.5414901
165 1 -3.58125 3.3469401 -4.0886202
166 1 -2.26439 3.7059 -1.7778701
248 1 0.715537 2.12467 -1.19356
265 1 -0.422035 3.28372 -3.0941801
266 1 1.5216202 4.80266 -2.1982601
365 1 3.90722 2.2232499 -3.39445
347 1 5.5053001 1.3545801 -4.8355999
366 1 5.8515602 3.5831101 -3.244
448 1 7.4744902 2.43026 -1.77106
465 1 8.6276102 4.09975 -6.1525798
447 1 9.6835299 0.8251511 -3.3227999
466 1 9.2550097 4.6429701 -3.3612399
67 1 -5.26752 5.4645 -4.13023
68 1 -7.32232 5.6097899 -2.4789701
85 1 10.9889002 7.92793 -3.3122499
86 1 -5.7866502 7.3650098 -2.1556499
167 1 -2.1819799 5.62606 -4.1547499
168 1 -3.71839 5.5151401 -2.0322001
185 1 -3.8202701 7.4928499 -3.5295601
186 1 -1.81673 7.8047199 -2.5651601
268 1 -0.6750191 5.5914402 -2.2462599
285 1 0.0998442 8.2777596 -4.3190098
267 1 2.3427301 6.3474302 -5.2262998
286 1 0.98253 7.3316102 -2.19958
368 1 2.84086 6.3092098 -0.535374
385 1 4.8961102 6.52387 -5.6774602
367 1 6.8411698 5.7266302 -4.8762598
386 1 4.0798998 7.4121299 -3.0000401
468 1 5.8252502 5.2449298 -0.7438661
485 1 7.78963 8.1079998 -2.95103
467 1 9.3937903 6.5643401 -2.3926599
486 1 9.7047005 8.6990996 -1.53624
6 1 -5.0952101 -7.25915 -1.79714
87 1 -5.0169902 9.3892899 -3.2374599
106 1 -1.04194 -7.5982199 -0.994326
187 1 -2.0629699 9.5532904 -3.82074
188 1 -3.08462 9.6643801 -1.70267
205 1 -0.7117991 -7.6282501 -3.4688101
288 1 -0.150709 9.49578 -2.03932
206 1 1.81954 -7.5479398 -1.80611
305 1 3.3357999 -5.7827101 -2.3536601
287 1 2.96464 8.5960999 -4.2151799
388 1 5.33809 -7.1841898 -1.64907
306 1 5.8407402 -4.9098402 -2.0458601
405 1 6.81212 -6.4742298 -3.8424102
387 1 5.0624499 10.0014 -3.7068999
488 1 6.5360599 9.8068896 -2.13849
5 1 -6.9029002 -7.1784701 -3.21748
406 1 9.2248097 10.6569996 -2.8968
88 1 -7.1251402 9.6446696 -2.12147
487 1 9.0640802 9.04492 -4.64883
11 1 -5.2143798 -5.5401802 -0.267257
111 1 -1.45533 -5.7454801 0.304061
110 1 -1.8241301 10.9755002 1.68759
211 1 3.0158501 -6.3903499 1.99695
212 1 -0.622495 -5.8156901 2.7354601
210 1 1.2504801 10.5717001 1.9882
311 1 4.70679 -5.8438602 0.50225
412 1 6.5450802 -4.8948302 2.72331
411 1 9.3825598 -5.0637999 -0.271754
29 1 -6.84828 -3.9788402 -0.432119
31 1 -5.17733 -1.85807 -0.178544
129 1 -3.52753 -3.84975 0.230025
131 1 -2.1946001 -1.79618 0.0014619
130 1 -1.99981 -3.7826901 2.51981
229 1 -0.0241407 -4.0266299 0.908672
231 1 2.90871 -2.85229 0.739201
232 1 -0.352155 -1.9363 2.0241699
329 1 1.5197802 -4.23701 2.5634699
230 1 1.31048 -6.71174 4.08284
331 1 6.50843 -1.90872 2.4888699
429 1 6.7986799 -4.5903101 0.199487
330 1 4.1528301 -3.82141 -0.837229
432 1 4.9997202 -1.40175 4.5167299
431 1 9.1686802 -2.2732401 -1.5857902
430 1 8.5547896 -3.6217101 3.9238802
51 1 -5.7037301 1.4937201 -0.277939
149 1 -3.6867001 0.282005 0.0359806
249 1 0.242793 0.254332 0.289851
252 1 -0.224335 1.48426 2.2356601
349 1 5.4984198 0.988003 -2.24944
251 1 2.6912101 3.39482 -0.346925
449 1 7.1891699 0.758577 0.246739
351 1 7.38234 3.5641301 0.573107
452 1 8.4895897 1.96974 2.6061299
49 1 -7.2012901 -0.592669 -0.225196
450 1 7.9949002 -1.2945 0.63103
69 1 -7.0860901 3.6083501 -0.5329
52 1 -7.5664201 1.92242 1.30425
151 1 -1.86875 2.13779 0.407957
169 1 -4.0813999 3.5547099 -0.018688
269 1 -0.357077 4.0109601 -0.246032
270 1 0.635847 3.78001 2.3865199
369 1 4.4163098 4.0095901 0.702746
469 1 9.5717497 2.03565 -0.306895
370 1 5.6964998 2.6690099 2.1986699
451 1 10.5100003 -0.378827 1.85833
71 1 -5.5418802 5.53792 -0.436444
89 1 -7.32621 7.6298199 -0.313584
171 1 -2.4302299 5.41011 0.112899
189 1 -3.8625 7.2744298 -0.46101
289 1 -0.429708 7.19695 -0.232699
271 1 1.89728 5.4636898 1.62242
272 1 -0.644423 5.8966298 1.5509501
290 1 1.7882 7.5247202 0.740362
389 1 5.3366099 9.8006001 -0.281012
371 1 6.93853 6.7373801 0.557892
489 1 5.97812 7.55088 -1.96222
471 1 9.9227696 5.5893898 -0.723747
91 1 -5.3901 9.6880703 -0.531162
109 1 -3.4330399 -7.2886701 -0.0667572
191 1 -1.74252 8.9509698 0.114791
209 1 0.446765 -6.7813401 0.514345
292 1 -0.404827 8.4895897 2.14345
309 1 3.7513299 9.5754299 -1.65767
291 1 1.2963901 9.7656098 -0.190805
392 1 3.5629301 9.0928497 1.04921
409 1 7.74049 -7.1942601 -0.875596
391 1 6.70014 -6.6961599 1.06095
492 1 6.2476301 9.2489405 1.86549
9 1 -6.8589302 -7.1669698 -0.44287
491 1 9.9442196 10.9589996 -0.334653
10 1 -5.5468898 -7.5569201 1.5119602
15 1 -5.7277498 -5.8955598 3.4104099
112 1 -3.60215 -5.87432 1.85524
113 1 -4.0022898 10.9648 3.1270299
115 1 -2.7777 -5.8917298 4.06318
213 1 -0.870473 11.1124001 4.2276602
215 1 3.3041301 10.3930998 3.2864699
312 1 5.5740299 -7.43575 2.97119
315 1 4.6005202 -3.6849201 1.68502
413 1 5.6726499 -3.7885399 4.3532701
12 1 -7.3239699 -5.62919 1.3588801
13 1 10.9722004 11.0256004 2.5929401
415 1 9.9665204 -5.82865 4.0921102
30 1 -5.6029201 -4.0599499 1.72454
35 1 -6.2227802 -1.77081 3.7231
132 1 -3.9933704 -2.0866301 2.1380401
133 1 -4.27916 -3.7486301 3.8132301
135 1 -2.25071 -1.98596 4.2592802
233 1 -0.813454 -4.0599198 4.6550102
235 1 1.0449899 -2.37865 3.89447
332 1 3.5964101 -1.64833 3.0141101
333 1 3.3648501 -4.0977502 4.11062
335 1 3.3869701 0.7805521 2.9106904
433 1 6.5569902 -5.8070798 5.4303999
32 1 -7.6252899 -2.3626299 1.82572
33 1 -7.50348 -4.0908799 3.43256
435 1 6.5278402 -0.399893 6.1857801
50 1 -5.8196502 0.244536 1.53714
53 1 10.0338001 -1.40376 3.92312
150 1 -2.20502 -0.25891 2.47049
153 1 -4.2185702 -0.232002 3.6538701
152 1 -3.53337 1.8014602 2.1563399
155 1 -2.0262401 2.0955501 4.0055799
253 1 -0.611281 0.150075 4.2670298
250 1 1.45558 -0.242116 2.4391899
353 1 2.42305 -0.667033 5.0196099
255 1 1.30405 2.04212 4.1482601
352 1 2.96344 1.43356 -0.982015
350 1 4.61061 0.992706 0.924163
453 1 8.3419304 -0.464526 2.7214501
455 1 10.5796004 1.4107701 3.85133
55 1 -6.0206699 2.0251999 3.4741299
70 1 -5.91114 3.93455 1.9314
73 1 -7.1974902 4.6173501 3.71714
170 1 -1.77957 3.6679399 2.1275499
173 1 -3.76734 3.5531099 3.3870399
273 1 -0.592004 4.0871601 4.1698198
373 1 1.75664 1.6993802 1.24079
355 1 6.0272899 0.469854 2.9310802
473 1 9.2796803 3.3949399 4.3149099
470 1 9.9708796 3.99439 1.69311
72 1 -7.39504 5.9330402 1.2694
75 1 -6.31497 6.49259 3.1231
90 1 -5.7535601 7.6517201 1.26995
172 1 -4.2139101 5.51931 1.96041
175 1 -2.50666 5.5760598 3.5398901
190 1 -2.5434699 7.2217398 1.58296
193 1 -4.2431598 7.5974999 3.0513799
293 1 -0.826823 7.3053398 4.2093701
275 1 3.34992 4.6479802 3.01039
372 1 4.8635702 6.5230298 0.948535
393 1 3.3387001 6.7147398 3.08952
375 1 5.8796902 5.0984001 2.1148801
390 1 7.55161 8.8552104 -0.455168
472 1 7.8731098 4.7960601 2.75065
493 1 7.7645402 7.09302 2.81197
93 1 11.0998001 8.6799803 2.85393
475 1 9.8709202 6.2449298 3.08617
490 1 9.5616799 7.5503302 0.991385
95 1 -5.7676602 9.8145104 3.3399999
192 1 -4.0067101 9.3709698 1.33882
195 1 -2.1486399 9.2798004 3.4247999
295 1 0.879185 9.3792105 3.9129704
313 1 5.41888 9.5670405 4.9306402
310 1 7.5544 -6.8014002 3.6922601
395 1 5.30268 7.6064 2.96291
410 1 9.4173498 -6.6033902 1.6944602
92 1 -7.5578099 9.5917597 0.870017
495 1 8.7668 9.7108498 1.43635
14 1 -5.2476502 10.7938004 5.3735299
16 1 -7.2536202 -6.1725302 5.56918
19 1 -5.90162 -5.4911099 7.50771
114 1 -2.78737 11.1520996 5.39814
116 1 -4.4678002 -5.9481802 5.7374902
117 1 -4.13234 11.0416002 7.5635901
119 1 -2.7581601 -6.08811 7.8217802
216 1 -0.92302 -6.0096598 5.81357
217 1 -1.83916 10.4611998 7.3819299
214 1 0.685365 9.6635704 6.5425902
219 1 -0.130759 -7.0812702 7.7101002
316 1 2.26014 -6.9579 6.1635599
319 1 5.4986301 -5.7697602 7.6094799
416 1 8.4374905 -5.5608101 10.1283999
417 1 7.0431099 8.9407598 7.26051
17 1 -7.2076898 11.0858002 7.3780499
414 1 9.1532402 10.1904001 3.7381101
419 1 9.5071001 -6.5105701 6.31352
34 1 -6.2171998 -4.0076199 5.5054403
39 1 -6.5453801 -1.92529 7.0552301
134 1 -2.4587701 -4.09306 6.46732
136 1 -4.6545 -1.68925 5.5373702
137 1 -4.5550699 -3.6264999 7.3638702
139 1 -2.71629 -1.98964 7.6464
236 1 -0.803626 -2.3396299 6.2802401
237 1 0.0981934 -4.1205401 7.3110299
239 1 1.35673 -1.80751 7.86332
234 1 1.19933 -4.6025701 5.0272198
336 1 3.7333501 -6.2717099 3.91787
337 1 2.90866 -4.8498202 6.4446802
334 1 5.9138598 -2.74784 6.2428799
339 1 5.77312 -1.62481 8.0341301
436 1 8.4493504 -1.97874 7.3026099
437 1 8.3359404 -5.8046599 8.0325604
36 1 10.0037003 -3.28601 5.8010102
37 1 10.8306999 -4.08954 7.7698498
434 1 7.9647002 -2.0182199 4.9510798
439 1 10.3452997 -1.37341 8.2214604
54 1 -5.7876802 0.523079 5.4900399
154 1 -2.08939 -0.0954737 5.99568
157 1 -4.5261598 -0.151725 7.6996799
156 1 -3.72853 1.45142 5.1485701
257 1 -0.811488 -0.485039 7.8443098
259 1 2.5931101 0.105303 7.1326299
254 1 3.49896 -2.4735501 6.5553999
357 1 3.2932899 -1.40377 8.8593398
356 1 4.2112498 2.84968 4.2252002
354 1 4.2234101 0.646403 5.1656399
457 1 7.86478 0.379665 7.80512
359 1 4.91185 0.66011 7.8073802
456 1 8.1444502 1.00007 5.1510902
57 1 -7.2274099 1.07482 8.2416096
454 1 10.5131998 -0.180827 5.7897902
459 1 8.9540006 2.23122 8.98341
56 1 -7.5145002 2.392 5.80442
59 1 -5.2534299 2.4138899 7.3319602
74 1 -5.6760001 3.4693301 5.18818
77 1 10.8596002 3.6612501 8.18995
159 1 -2.79004 1.86394 7.2306299
174 1 -2.7461601 4.2532902 5.4663701
177 1 -3.4310801 4.4682498 7.6434202
256 1 0.406376 0.350416 6.1814399
277 1 -0.823774 2.51383 5.9312302
274 1 1.56843 4.1975799 5.25979
377 1 3.2899001 3.7839799 6.8913102
374 1 6.4390502 2.63531 4.24436
477 1 6.5404301 1.95307 6.6612702
474 1 8.8821698 2.78335 6.72012
79 1 -6.0021601 4.6527901 7.68258
94 1 -5.6203199 7.6336699 5.1497898
97 1 -7.1037798 7.2259002 7.2818098
176 1 -4.7498799 5.6513601 4.4921799
179 1 -1.25193 4.2655702 8.1532698
194 1 -2.59019 6.5678301 5.8642802
197 1 -4.5967398 6.5801802 7.5169702
276 1 -0.729524 5.2163 6.1698499
297 1 -1.67118 7.3386598 7.6851001
279 1 1.16201 5.4528899 8.2260304
294 1 0.729455 5.99511 3.7145701
376 1 4.2583499 5.4045601 4.99509
397 1 3.0426199 7.4760399 6.4098802
379 1 6.3158798 4.6979299 6.3175998
394 1 6.6115899 6.1167002 4.5056401
476 1 8.8154001 5.4425402 5.0029998
497 1 8.1140499 6.7997999 6.7396002
76 1 10.9188004 4.91184 6.3449998
479 1 9.7908697 6.1006298 8.2399302
494 1 10.8744002 7.32586 5.0953598
99 1 -5.5150099 9.2101898 7.27665
196 1 -3.9203504 8.9271698 4.8635402
199 1 -3.2323101 8.5714998 7.44102
296 1 -1.46717 8.9477902 5.71765
317 1 3.3599401 10.2560997 7.1933298
299 1 0.7769431 7.1944399 6.3507099
396 1 3.11519 8.6206198 4.3118301
314 1 4.93075 -7.3288202 5.4134302
399 1 5.4925399 7.1581998 6.0063901
496 1 8.8098698 8.24539 4.69207
96 1 -7.53366 10.0367003 5.2445598
499 1 9.4089899 9.3197699 6.7042899
101 1 -4.0115399 11.1815996 -7.4513798
103 1 -2.3406899 -6.0165601 11.1781998
120 1 -4.0380201 -5.97791 9.6725397
220 1 0.0604151 -6.59938 9.9868098
320 1 3.6285601 -4.8327298 10.5644999
318 1 7.0970202 10.9182998 11.0030003
420 1 10.9337998 -5.4035602 -7.3764801
20 1 10.4646998 -6.2079802 9.22011
38 1 -6.3298302 -4.68324 9.9637404
123 1 -2.6239801 -2.5336399 10.8935004
138 1 -2.18327 -4.31672 9.2307596
140 1 -4.09694 -2.89607 9.2241202
240 1 -0.638586 -2.3288801 9.3154202
223 1 1.27666 -1.14414 10.2712002
238 1 1.3779301 -4.1189499 9.1453104
340 1 5.0741901 -3.47503 8.6917496
421 1 8.1455402 -3.2420299 10.8081999
338 1 7.1760802 -3.7925799 7.9945002
440 1 8.1812496 -1.21535 9.71591
40 1 -6.2575498 -1.00264 9.2157097
438 1 11.0426998 -3.27174 9.94524
43 1 -4.6111202 1.9419302 -7.4776602
58 1 -5.0406199 1.28349 9.37675
141 1 -4.28618 -1.01211 10.6552
158 1 -2.65432 0.102193 9.3818998
258 1 1.13177 0.860539 8.9374304
260 1 -0.881039 1.92584 8.4914103
360 1 4.2416601 1.86087 9.6761704
441 1 8.69872 -0.255518 -7.2550502
358 1 3.15047 0.100115 10.7168999
460 1 6.3326702 2.09057 9.5815602
41 1 -6.5785299 0.393297 11.1247997
443 1 9.00214 2.2818601 -7.6718102
458 1 10.0107002 0.239723 9.7479801
60 1 -7.5597801 2.3106599 10.3876
61 1 11.1464996 4.04877 -6.86835
78 1 -5.2157602 3.96761 9.8293896
160 1 -3.2202301 2.6315501 9.3936796
178 1 0.280752 3.85182 9.8516704
261 1 0.58858 5.7073002 -7.12215
278 1 0.889372 3.1909599 7.0925202
343 1 5.0888901 0.80095 -7.0781298
378 1 5.22786 3.5706201 8.1037903
478 1 9.44489 4.2859802 10.2446003
63 1 -6.1761499 5.6394201 -6.8980598
81 1 -7.3364601 8.2720204 -7.1511002
80 1 -7.2946601 5.5078101 9.8046398
98 1 -6.4253302 7.7881499 9.4364004
163 1 -1.76551 5.8370199 -6.9707098
181 1 -4.9344602 7.2216802 11.2334004
180 1 -2.2674301 4.40726 10.3287001
198 1 -3.0627699 6.4842 9.5743704
281 1 -0.16945 7.6960702 -7.4639402
263 1 1.91322 7.2933898 10.0373001
280 1 -0.746844 6.0686202 9.5655003
381 1 3.87901 7.7281699 11.1008997
298 1 1.83994 8.4030705 8.0641499
380 1 4.41328 5.5535302 8.3073902
363 1 5.0760298 6.0918698 10.2472
481 1 6.35602 7.4002299 8.7038698
398 1 6.5406399 11.2312002 8.6202402
480 1 7.90974 4.37571 8.1671305
463 1 10.059 6.3603401 -7.1760302
498 1 10.2451 8.0078096 9.8286896
18 1 -5.64112 11.0129004 9.4524699
100 1 -7.4403701 10.0281 10.3599997
183 1 -2.93286 8.9500704 -7.3803501
118 1 -2.41447 10.7975998 9.7114201
200 1 -4.0289402 9.13869 9.58459
300 1 -1.52526 8.4128704 9.4788504
301 1 2.43344 -7.3495102 9.0889702
283 1 2.3484001 11.0459003 -7.1884699
218 1 0.248409 9.9384204 9.2186203
400 1 4.0605998 9.2411404 8.9896098
401 1 9.2272997 11.0221004 11.0802002
500 1 8.1841097 9.0319099 9.6244402
1 1 -7.4401798 -7.3332501 -6.6875201
483 1 9.1293297 8.8089504 -6.8186698
418 1 9.0278997 11.1335001 8.1849203

Velocities

3 0.0394436 10.8410998 2.00701
104 -5.6059799 4.6349302 0.524017
201 -4.6296602 -3.07833 6.5899401
204 -10.3185997 0.289619 -2.1194899
203 7.9029398 -6.00634 -11.5073004
202 -8.3542299 2.12149 4.1977801
304 0.839731 -1.74983 -11.2390003
303 -4.4376302 -8.7222405 13.8086996
404 0.679527 -7.0423899 -16.4911003
4 -5.2390499 0.137122 -4.0903101
403 6.6222101 -2.6313901 8.17031
22 3.76474 1.9845902 -3.76509
23 2.19396 11.7905998 4.994
24 1.4627 1.0889601 -0.536903
121 -10.2872 3.6282101 5.3024402
122 -5.8312702 4.5418902 -13.2770004
124 9.3229103 -5.0778399 -3.0544801
221 -10.8266001 0.152882 -2.5507601
224 0.414688 7.8820902 -5.4259601
222 -2.1134601 -6.91855 1.87977
321 7.5035501 7.60425 5.1665602
324 -8.9793396 0.321284 1.61601
322 1.36113 8.3591204 -2.6105299
323 -4.4555502 -0.113125 5.94835
424 3.3208399 -4.8389502 6.5809398
21 -0.537742 -0.82905 11.7328997
422 -0.0259847 0.613477 -4.75629
423 -3.3938501 -9.8580304 -4.56808
42 -4.4751902 -0.0118174 -0.0877226
142 -4.4309402 -2.4877301 -1.69747
144 -5.4626398 5.96105 0.356901
241 4.97294 -5.1360602 6.5032101
242 -8.6714297 -2.2918501 7.2683702
341 0.740802 -0.566133 0.412964
243 10.8860998 -16.0886002 -4.93991
342 1.53921 3.7335899 -10.0289001
442 -3.27193 3.4644101 1.98558
44 3.91237 -5.5239301 1.7564401
62 6.9296198 -1.80443 6.0476499
143 4.9323702 10.9554996 1.8181
161 -1.1793701 -9.99924 8.0953798
162 -6.1052899 -2.4814 -12.1170998
244 3.5767401 2.1568799 -4.5323301
262 -3.7095201 2.5984001 1.98717
344 -4.4313402 14.8114004 1.7828601
361 7.5324798 -3.44682 -10.8763
362 8.0931101 -6.0072498 2.93392
444 -0.4876 10.3850002 1.95379
461 -0.0702613 -5.4857102 8.0618801
462 -2.65675 1.08201 2.90323
64 -3.8007701 0.935345 -3.6816101
82 6.1024499 10.9860002 2.3062301
164 -8.6131096 -9.5596504 1.2914
182 0.996967 2.7105 -0.955667
264 -11.3998003 4.42062 6.5242701
282 0.90591 2.60881 -4.4273501
364 3.5588 1.9254 -5.9176602
382 8.6117802 11.9554996 -7.27771
464 4.90058 -7.64888 -1.26453
482 9.42729 -5.1399999 11.639
2 3.83887 -4.4172201 1.53885
83 -4.0193901 -2.4880901 2.96965
102 1.77635 0.296677 2.6053901
184 -4.89291 5.1480699 3.85685
284 0.974362 4.2335 -2.2757499
384 3.3058701 -13.7620001 -10.8943996
302 -2.7970701 5.6399398 1.5676301
383 -8.2105703 -3.5938301 9.35042
484 -8.3520699 -1.5948302 5.4684601
402 1.93978 1.00109 -12.4206
84 -0.313393 -4.2708998 -7.3572698
7 3.89567 1.5230202 3.1658199
8 -2.3810401 3.36378 -1.08512
105 3.4004901 -4.6712899 6.0546498
107 4.7473698 1.66264 9.8888598
108 -0.943896 -1.70793 0.541924
208 2.5504799 1.88261 -0.220264
207 -5.6550799 2.8762704 6.0926199
308 -4.03269 12.5516005 -2.57863
307 0.674002 2.0545399 4.6321602
408 -8.7362805 5.24013 -0.6711141
407 -8.3333902 -0.703632 -0.333172
26 6.1378899 4.7279601 -0.5391881
27 -2.6595199 5.9569602 5.9320798
125 3.4817 -0.68845 0.389721
126 -2.1960499 -6.75066 0.0393376
127 13.5605002 4.2130299 8.19771
128 3.0859599 -1.6782 5.1353698
225 5.17278 5.3274002 -5.4270401
228 2.60478 -2.6482899 -3.90835
227 1.23323 10.0546999 3.2992001
226 -8.3004303 -6.8350001 -1.0040801
325 4.1991201 14.5548001 -8.0798998
328 8.3092299 -4.5443001 -0.101836
326 11.4743004 1.7403702 -5.0072298
327 8.0489302 -3.0599999 2.4538
425 7.0036998 4.7683501 0.95075
428 14.9715996 -8.0774698 -7.5282202
25 -3.6621001 5.02703 -0.257371
28 3.13817 -1.8491 -0.685623
426 5.46064 -2.7715099 -7.8159099
427 -0.902926 -2.79212 7.5900302
45 6.2154698 -1.67668 2.21257
46 3.53456 -3.5578699 2.36972
47 -9.1398697 4.99547 -6.9716402
48 10.5355997 -5.23276 3.89224
145 7.5998202 0.911158 2.3896301
146 -7.6476698 -8.0491896 4.98941
148 0.935965 -6.90264 0.319147
245 -0.123155 -2.62795 -10.7493
246 0.611971 -1.8274 -3.1927199
345 4.93496 -14.7769003 -0.237023
247 -11.3226004 6.1975298 1.72987
348 1.30555 -0.563859 2.6056199
346 -1.3031401 -1.54663 -2.17359
445 6.9716202 2.0493901 -8.3206797
446 7.6352 0.351378 -0.752905
65 3.67573 6.6995101 -3.29565
66 2.84269 2.2806301 -1.09857
147 2.5434301 0.129092 -2.6772001
165 -4.8301702 3.4739201 5.7329998
166 9.95852 -3.12129 -0.251931
248 -1.81074 8.65516 1.24171
265 -3.6745801 3.1003399 -7.7846399
266 -3.74294 -6.5813198 -11.1896
365 11.4513998 -3.9448 2.5580101
347 -5.3850098 -2.36096 -8.1009502
366 4.0908599 -3.1428299 -1.3311
448 4.9615798 6.7483001 8.1518602
465 7.9512602 -1.94311 11.2062998
447 5.5384898 -6.0274401 -3.46192
466 -0.175129 5.4756098 1.9309602
67 -2.8957704 -4.7894202 -4.4725099
68 2.8429204 0.992073 -2.2269101
85 -1.15223 -3.7802 -2.95786
86 -10.4996996 -2.8899902 9.7407599
167 1.02355 4.1535802 -12.4778996
168 6.8017102 2.576 0.911116
185 -5.3001299 -1.90426 -6.5144601
186 8.0386801 4.5929899 -2.8111
268 -2.7372999 -1.5552 -13.2195997
285 0.142698 1.2058001 -9.1937704
267 7.5242901 -0.742794 -4.3390799
286 -7.46979 9.7455702 3.09797
368 -7.75106 12.8114996 0.147317
385 -8.4152899 -0.714866 -8.9161502
367 2.38556 -6.36868 -4.9896498
386 -15.3558998 -8.76229 3.2288401
468 -6.1643901 -9.6191702 -4.2333002
485 3.97288 6.9421202 -1.74383
467 12.4667998 -2.7674999 6.6672402
486 8.5209198 2.1345301 0.91601
6 0.371318 -4.1963701 3.2815001
87 -1.25791 -3.50505 2.7693401
106 -1.63273 0.617985 -1.66597
187 6.8667798 0.862423 1.72445
188 7.13869 0.472777 -2.7869001
205 -2.88321 -1.26204 -0.603962
288 0.777642 -6.2804198 0.525086
206 6.3719902 0.447002 1.9660702
305 -8.1429501 0.110519 4.28754
287 0.7482201 0.715277 -12.2585001
388 -2.95374 -0.449777 -1.24244
306 1.64204 13.3100004 -5.9847102
405 -5.1608 3.2567201 1.10089
387 -1.56258 9.2862902 -8.6896
488 -2.5149801 2.5962301 -8.2846699
5 6.10884 5.5981798 0.497055
406 -12.1046 2.6841901 -3.1947701
88 5.6364999 -0.874917 1.8055002
487 2.0007401 7.7067399 -1.38105
11 -6.28897 3.9960302 4.6194101
111 -0.813558 -1.64173 -1.85391
110 2.56614 -4.00632 5.2034702
211 1.2417801 10.5487004 -5.95718
212 -5.3355999 6.3364201 -1.6016001
210 -0.0400203 -7.4119702 2.5527401
311 -1.82776 -2.5688901 4.64112
412 2.89215 -8.6735897 5.2412601
411 0.603105 -6.0437799 6.8018699
29 0.167371 7.5696402 3.2316201
31 -9.2287302 -7.3801398 3.4938901
129 2.2964001 -6.1237798 -1.2581
131 7.43996 7.84199 2.24278
130 -3.0116 -3.62975 -2.99471
229 -3.7446599 -2.2696099 -11.5053997
231 -4.7707601 7.4203501 1.71801
232 2.5128701 -5.7358299 2.98123
329 -6.1071301 -7.1019902 -2.4679301
230 0.330077 -7.0826702 -11.0699997
331 1.6173101 -8.9645396 6.9699402
429 11.2732 2.6799901 2.688
330 -3.6217301 -7.67521 -13.6615
432 -9.8695602 8.5927296 6.4215498
431 -3.2360001 0.346851 -3.9259504
430 -9.9691496 -1.90179 6.90512
51 -4.13658 -8.3425198 6.7259598
149 -2.2359901 1.60603 -3.0062399
249 5.21663 1.1885099 -6.91773
252 8.9832402 0.0512913 1.57216
349 12.8111 3.8564702 -4.2549701
251 5.7579298 0.235452 5.56737
449 3.8543502 -5.4839902 1.22807
351 -7.90932 -11.7838002 -1.30144
452 2.99834 5.7019 -3.42466
49 12.8539 -3.8357799 6.81634
450 -6.4278698 -1.9307802 2.8434
69 -4.0174098 2.54212 -7.3105002
52 -7.3882499 -3.1384101 2.3053701
151 1.0125099 -5.8091102 2.19455
169 0.380429 -3.5015199 -7.6761399
269 4.04214 0.435263 -1.72876
270 -7.16079 -8.75492 6.6441202
369 0.816751 2.3287799 0.21342
469 -2.0383999 2.8423 0.209647
370 -6.97572 -2.05212 -4.7550102
451 9.3445597 -4.5308399 10.7472
71 6.03613 -1.95219 0.216248
89 -6.9726902 2.46222 2.56655
171 1.2576801 -4.4087601 0.944011
189 -3.6631201 8.20084 -4.2286101
289 6.67698 0.114195 -6.8957902
271 -5.88336 5.5769501 -10.8525
272 -2.2868099 -3.3367901 0.19414
290 2.9343804 -2.89213 1.81266
389 -4.1192799 5.5556002 6.1399298
371 3.4985399 -1.0309401 1.94722
489 -6.6585899 -9.1799898 -18.4846001
471 7.6749702 5.2879901 -6.7454801
91 0.801883 7.9274702 6.8376298
109 -2.6341901 -1.3567 5.7038102
191 -6.64813 4.5738502 4.0831599
209 -3.69786 -0.901264 6.7117
292 3.2196 -0.961582 -4.2318101
309 -0.874082 -6.2265 -5.8824302
291 -3.7305501 -1.19771 6.9503398
392 0.914665 3.4326401 3.2615199
409 4.96592 -9.5552302 5.1753101
391 0.310479 2.2360201 4.7007299
492 1.9098002 4.4755602 -0.93564
9 6.3347302 4.1339698 1.1411099
491 0.0537906 -0.089287 5.66922
10 -1.78247 2.7795999 -2.27333
15 -6.0132399 3.1738401 -0.19596
112 -0.0553093 -1.52748 2.05463
113 -7.2530499 6.2416201 4.6181202
115 -3.45471 -2.87306 5.1896701
213 -8.8902998 2.4408701 -0.572773
215 0.159936 -5.2230601 -9.1614704
312 5.4709702 -2.34478 7.87946
315 4.0323701 -11.8979998 -0.26511
413 8.7700701 0.930108 -3.93903
12 1.9303402 10.5747004 -8.2396202
13 -0.482705 -0.731081 -5.03196
415 7.1115298 -0.12998 1.5453
30 -2.3139801 -1.54825 3.1857801
35 1.70489 -1.1097601 5.92794
132 -2.7988501 -6.3763399 8.73874
133 -0.877982 3.41958 1.00888
135 -5.99753 3.941 7.3397699
233 -4.6767102 -0.973412 7.2119002
235 2.0504799 3.8841 6.2964702
332 -12.5223999 2.5822101 -3.5685001
333 -0.683556 2.1477201 -0.141504
335 8.5978699 8.1007605 2.09044
433 0.115804 11.2532997 -1.69574
32 -0.124258 -0.46305 3.8504604
33 -7.81949 -4.2923498 7.86863
435 11.4666996 7.7066398 1.86731
50 -0.858234 -1.7482001 12.8409004
53 -8.0828199 0.579546 -4.0402398
150 6.1167402 2.4655199 -1.05735
153 0.78306 0.710759 1.0863301
152 3.2939201 -5.33917 2.2620101
155 0.581024 -4.684 -0.0504923
253 -1.38279 5.3815398 8.7445698
250 0.990563 -7.36234 4.0095301
353 1.02955 4.70746 -7.36303
255 -2.4356101 -17.4801007 0.964575
352 -0.903844 5.90304 -2.0034001
350 2.95386 1.3593 0.0175094
453 1.95436 -10.6070004 -4.7293802
455 11.3985005 -11.5369997 2.8276501
55 -1.5515701 1.02774 -3.15692
70 -2.6668401 1.84618 3.31445
73 -4.1079702 6.4033699 2.34862
170 2.49311 2.82056 -7.42272
173 6.04072 7.8276901 -5.96279
273 -6.8000202 1.01591 -0.860018
373 -8.1118202 -7.47118 -0.225628
355 -0.555094 -2.9691504 -11.7671004
473 -0.36918 -14.3251 -0.110537
470 -2.73626 5.44767 -2.80163
72 0.440639 6.0413599 -1.11229
75 -3.1466 -1.5588 1.93139
90 -1.54236 0.229945 -0.51925
172 -7.0813799 6.31387 -0.952269
175 -1.6472501 1.04269 3.5797901
190 0.905859 7.2997198 -2.2764299
193 2.34003 -3.0274501 -2.5614
293 2.72064 -0.980865 -1.01797
275 -4.6963301 11.1800003 -9.0319796
372 6.2121201 -10.0529003 -4.4190502
393 14.2187004 -3.77262 -0.793857
375 9.76929 2.0064399 4.7052102
390 -9.7870102 -7.4602099 -0.0135302
472 -1.31348 0.182178 -1.39244
493 7.3978 2.48085 3.3416901
93 5.7906699 1.55601 4.7483301
475 -6.0588799 -5.9224602 1.0042
490 2.3613601 0.0299491 13.2573004
95 -2.97264 6.8409902 0.65058
192 -6.7811198 4.5518499 0.886373
195 -5.9277302 3.0222199 5.9373498
295 -2.9180704 -3.32007 5.7234102
313 5.0099602 -11.1293001 6.7864299
310 3.2718201 -2.2669101 -4.6835599
395 -11.7924996 -7.86408 4.10219
410 3.4584501 3.4470999 0.0415558
92 -4.0379701 -3.36431 2.2348299
495 2.23101 4.4505501 -14.2697001
14 2.55161 5.2321601 -1.566
16 -1.67026 -8.6928301 -0.0858489
19 -5.3998199 1.4894902 10.9202996
114 -1.52173 6.7091699 -0.0316708
116 -1.15483 3.6785701 -1.95333
117 -0.693626 2.51032 -2.7140999
119 -5.5580101 9.7706003 1.5191
216 -9.8622504 -2.0752599 -5.8712002
217 -4.3724599 1.14197 -4.5867801
214 5.1893802 -0.77792 -5.9474602
219 -7.3029399 -2.42728 -1.28669
316 7.5522399 1.49831 5.6289902
319 -7.0363102 -2.44307 -3.0378201
416 5.6096502 -5.4767499 8.9509402
417 -6.6936698 8.4465904 0.7582
17 -2.7783401 4.72153 -2.5948501
414 3.3752799 -3.36221 -3.11466
419 -3.36307 2.8903502 2.5713601
34 -5.6656199 3.5155201 -1.25081
39 4.93713 -2.4119101 -1.7559201
134 4.0862098 3.0801599 -5.9081402
136 0.310192 -4.06425 2.1515601
137 -2.2952001 8.2197905 -5.6255698
139 6.5571599 0.330001 -0.781678
236 -5.9733702 5.36412 1.05617
237 -1.4583302 -6.3197999 -8.38515
239 -7.78475 5.7274599 -9.4129801
234 1.6973 -8.4807596 -11.4854002
336 5.2890802 7.63555 -6.51191
337 10.1948996 2.44188 -7.00983
334 12.7027998 -7.7342 9.4842901
339 0.200696 2.8071499 -5.4588199
436 5.8220601 0.188249 -10.6512003
437 -6.0549202 -16.5387993 -4.34549
36 10.7400999 -7.0582199 5.1028099
37 -3.94028 -5.5623203 2.7535901
434 -8.5186701 -0.459134 -1.13433
439 -4.1189199 11.7933998 -6.7642799
54 1.0459 0.198927 3.79437
154 3.5588 6.4782601 -3.89477
157 3.3188501 -2.5947299 -5.8102899
156 -0.0014777 -5.1701498 11.6309996
257 -0.272686 4.01649 2.10604
259 6.1912098 -2.07745 -9.9663898
254 3.57829 0.267756 1.0585001
357 -10.2278996 -10.5754996 -1.60943
356 3.1758201 8.5317202 -7.7561999
354 1.11552 -3.46262 4.4614201
457 8.8559104 -6.58951 -5.6567898
359 -3.93936 2.3139401 -7.8129802
456 -4.3856902 -4.0821099 6.0173602
57 -9.3021298 -11.1781998 0.26367
454 1.2883901 2.09466 0.685346