dump/Si_1000_5/steps_81 (written by ASE) 

3995 	 atoms 
1  atom types
0.0      38.395898218429522  xlo xhi
0.0      38.395898217999999  ylo yhi
0.0      54.299999999999997  zlo zhi


Atoms 

     1   1      38.211352113041727      1.8420246706307799       53.10038470944307
     2   1      1.8734585209185937      1.5966896664814685      2.7875161363167202
     3   1       38.20125855877135      3.5841521752804919      5.4585387251856785
     4   1      36.421014767263053      1.5933820584967386      2.4639348933779068
     5   1      36.445097517667612      3.5557736192434359      1.1857670591834661
     6   1      38.244207008587495      1.8005844344920967      3.8090215196865511
     7   1      1.6425499756941886      5.5440216277617118      2.9558730856856754
     8   1      36.405351471380158      5.5535104604008207       2.536696558057602
     9   1      1.6415949626794286      3.7309860044573226      50.517277931715661
    10   1      1.7592298971727223      7.4266030490488504      1.5575329603583687
    11   1      2.0259667087792415      9.3532241943986172      2.7375771880984296
    12   1      38.388108245500256      9.4426172475837387      4.2594121504000118
    13   1     0.15655445808846469      9.5627713508904169      53.051982977878403
    14   1      1.9134811537041376      11.335409866665058      1.5978517063479303
    15   1      1.9602604865696556      13.314643431674615      3.2121609019867279
    16   1      38.314357016028744      13.277529226149451      4.2471621892451932
    17   1      38.355542008836032      13.196608305577307      52.997765405028396
    18   1      2.0209883016808972      15.145805753840495      1.7310502175407103
    19   1      2.0130599606999104      17.090076578812727      2.7574386768201959
    20   1    0.095934287437144564      17.131453081607859      4.1865113057482839
    21   1   0.0062898499236643717      18.968768421880011    0.093200295775238862
    22   1      1.9152194774018407      19.056256162815661      1.3580989042749021
    23   1       1.750129907952976      21.280730149489891      2.6495159371827319
    24   1      38.204666600952066      20.888623438450601      4.0508788956397117
    25   1       38.34344889547998      22.885968754776705    0.062183109224008846
    26   1      2.0727300047303054      23.193028877018879      1.3022541012810056
    27   1      1.6729737633398987       25.04956522425892      2.5579947193018837
    28   1      38.282893110277932      25.023188664663909      3.7496946645040441
    29   1      38.222532135151489      27.083919607506132      54.292715883145434
    30   1      1.8064218447809051      27.130407230676148      1.1407880148582439
    31   1      1.8189071422392635      28.838571425187318      2.6239486250595188
    32   1      38.252766086786451       28.61311609190961      4.2099418972559297
    33   1     0.13008707506082975      30.850530787401681      54.196212988613588
    34   1       2.038002026264353      30.702401393786349      1.3391580091347488
    35   1      1.9860553146357434       32.44841599315815      2.8021580652361284
    36   1      38.266640640186026      32.529050223652241      3.8868554299252969
    37   1      38.389352261670474      34.437271698152806    0.031790475161676553
    38   1      1.8660585772253937      34.480080955740675      1.5551519396012303
    39   1      1.9116663129806659      36.535567033059088      2.7521197045044139
    40   1      38.358270706762255      36.426610443136703      3.8438749388575295
    41   1      3.7887810284462549      38.190027400189443     0.12778481351024293
    42   1      7.7638486350735851       38.25988077874166     0.28443701458511428
    43   1      5.9460228881385593      1.6053681838439007      2.7963877506363568
    44   1      5.8722307211606495      37.881694017382962      1.5044749989795698
    45   1       2.146478415252012      3.6664017104113844      1.7939699101733002
    46   1      3.8995906403939613      3.6861558595702588     0.34619722850413859
    47   1      5.8456802984787499      5.5463227514879225      2.7311379871706993
    48   1       3.781775722172787      5.5512558002400212      4.0184720155204312
    49   1      3.7140443485992449      7.5629949371994591     0.34492867818341882
    50   1      5.7933921873033194      7.6868201349092429      1.6218666297363009
    51   1      5.6210181680854312      9.5537351732414582      2.7727887491510712
    52   1      3.7808001243944283      9.6270625667275507      4.1947840943148318
    53   1      3.6428698733606151      11.500409202301121      54.297878632590283
    54   1      5.5966468125577853      11.622374718429191      1.4268822308917506
    55   1      5.7426873137191823      13.547873609389683      2.8237546517660941
    56   1      3.9301453110613114      13.402791037813573      4.2874862441641906
    57   1      3.8882625123722336      15.253961824347822     0.16349003996510891
    58   1      5.7163791302096998      15.457886518619549      1.3651255578434638
    59   1      5.8312676656822786      17.174164525422285      2.8653773630495611
    60   1      3.7983301790548678      17.372195067815447      4.2740567941857659
    61   1      3.8218265132371183      18.898274384133661    0.013093427970363817
    62   1      5.7776362801117402      19.009274939525429      1.3672838327321397
    63   1      5.5419166536851172      21.054260812273341      2.6534671062846744
    64   1      3.6457660726210199      21.057441968847115      4.0194342717069045
    65   1      3.9296689104890512      22.951789999163772    0.033598664065073065
    66   1      5.7587989196224161      23.192269903612885      1.4791525846743523
    67   1      5.5510181570910788      25.260557174730245       2.677771178393221
    68   1      3.5858872398494981       25.15168860108713      4.0857666777726216
    69   1      3.6924207189281306      26.935468234907049      54.138762626030321
    70   1        5.73500661037966      26.970604849336549      1.1277172783623299
    71   1      3.9390128143319663      28.834211143865399      3.7761046886153515
    72   1      3.7915450081630833      27.081860727828154      5.4245043372861366
    73   1      3.7282618350147145      30.987164600126984      54.178807762210695
    74   1      5.8884182236724305       28.88007387156107      2.6296294484151876
    75   1      5.7060431128477855      30.626167449809852      1.1621276119412303
    76   1      3.9176982554302242      32.486061958601695      4.1079941101356656
    77   1      3.7947936838384435      34.526667050636888       54.25609435992758
    78   1      5.7442069488547114      32.490579032809137      2.5798387108128491
    79   1      5.7240583330519978      36.167376645022223      2.9548610517105858
    80   1      3.7175511338194713      36.371803352509943      4.0735894497047163
    81   1      7.6013693471169601      36.455146901628368      53.094978487913622
    82   1      9.8598470446818549      38.108141298748585       1.670994977743135
    83   1      11.508629717269514      1.8315855832067929      4.3389020343620706
    84   1      9.6472550930733796      1.5740305092213924      2.9247044202066741
    85   1      5.9884626226126088      3.6075766171335792      1.4742014792760292
    86   1      9.9084164270794126      3.5166984738998832      1.7097823499374134
    87   1      9.7342008868456062      5.7292269364257979       3.072804371775383
    88   1      7.6444227119737418      3.6811574783957544      5.6741688833780621
    89   1      7.7761272254498337      7.4770787225534212     0.18449739198611068
    90   1      9.7978041788436414      7.5850132562610373        1.62552007603133
    91   1      9.7169384625374828      9.5338800369278225      2.7560436571921039
    92   1      7.7138953562910739        9.56760284674791       4.363409574326786
    93   1      7.4402007714192955      11.417523183293769     0.28448843087556924
    94   1      9.6641916930647369      11.432650088137988       1.317196841592752
    95   1      9.5798677449822769      15.421780200028095      1.6126311975103345
    96   1      7.6135985162046369      13.371308212778201        4.17247666928598
    97   1      7.6044838788907416      15.376931480064554      54.299082383744299
    98   1      11.611127792695006       15.39274985396731   0.0092467983872097526
    99   1       9.824254766322813      17.371304315973145      2.7681367152052982
   100   1      7.7860428821844669      17.418012693536443      4.0472929589885771
   101   1      7.7229967511237234      19.220244031295508     0.17534458105275247
   102   1      9.7799410618054168      19.314609925668666      1.2741926688329621
   103   1      9.8593576488418346      21.265132450758085      2.5024267736963113
   104   1      7.6054978738985906      23.175993293427084      5.1845982350630822
   105   1      7.7073712542125916      22.981800732770704      54.088614915934699
   106   1      9.7798726734798631      23.201362589452053       1.142998417528998
   107   1      9.7159758323826342      25.184648237551226       2.614268811716193
   108   1      7.7007412553368679      25.046937741516359      3.8974150022498875
   109   1      7.7525039883385407      26.782265795372734      54.165980482462068
   110   1        9.70164061408693      26.939327348525708      1.3028625185621976
   111   1      9.7631419766529959      32.514335345841218      2.8125605355002241
   112   1      9.7692325323912534      28.876056045779851      2.7062747332790664
   113   1       9.456992070612241      30.814418486857104      1.4034538577094873
   114   1      11.642375081889197      32.389836686401601      4.3418204692959055
   115   1      9.5877567860381134      34.592155201339644      1.6208119888550196
   116   1      7.7433967838916784      32.579273505650576      4.2151975582994163
   117   1      5.7603989739460468      34.554796863621227       1.171129147754856
   118   1      7.9297507679477706      34.520474834347461     0.19608970833739942
   119   1      9.7800604240929161      36.213832666982327      3.2294813734956489
   120   1      7.8202584197539586      36.366126765584134      4.3796224318520212
   121   1      11.312155567582254      38.308856661973223      54.095661540469067
   122   1       13.41671814295588    0.054531482720477857      1.3365546879051857
   123   1      13.414203702456962      1.9338597349335227      2.5874341301736563
   124   1      11.554019457318754      38.178654341798669      5.8294101707298021
   125   1      11.633220450632887      3.6810260172155331      54.267825456555023
   126   1      13.132147218373328      3.9397148350483984      1.6352091364940176
   127   1      13.438608158255613      5.8262796929034719      2.8869856082514507
   128   1      11.715969934109879      5.7555986727725763      4.3792113100589178
   129   1      11.588815298263134      7.6412537533955911      54.266892414009028
   130   1      13.528945774339334      7.6113889741016578      1.3780578534716714
   131   1      13.525864248986695       9.482954374353076      2.7270871668193428
   132   1      11.713114906105233      9.7915484560037314      4.1846820900281063
   133   1        11.4679868446333      11.498925300675081      54.298733516727431
   134   1        13.2979194093083      11.414749499941346      1.4111791594076952
   135   1      13.665746775448284      13.475958102497504       2.771487249585697
   136   1      9.4240862435399873      13.339992705807934      2.9397807712065043
   137   1      13.359816986577959      15.341067971090872      1.4956570346038123
   138   1      15.230107195048626       16.93367496783744       52.97244639944433
   139   1      13.318866927755437      17.238929898528358      2.5498981586573808
   140   1      11.575941684170932      17.514963685817708      4.3270895586000258
   141   1      11.597719380887737      19.283067074048006      54.120406904763861
   142   1      13.177209637292739      19.037537878162478      1.3025324998754388
   143   1      13.370469112891946       21.02551597062681      2.4802748474688872
   144   1      11.545251009838928       21.31974334926797      3.8924252382346496
   145   1      11.584937185589341      23.025455026426521      54.088263552082552
   146   1      13.335153877568969       23.06854187371912      1.1398505035423447
   147   1      13.403223765859117      26.750664592530217       1.398162584150564
   148   1      13.643647803023388        24.9848984450846      2.7757250136680427
   149   1      11.576236221102866       26.70819645936951    0.038073290119564264
   150   1      13.593670901859578      28.870561628972997      2.5894442162562754
   151   1      15.509679252960535      28.757289535367075      4.0217628967776351
   152   1      11.615106287200909      28.828894919363442      4.1813794510562277
   153   1      11.231390105812938      30.728567796479986      54.123163878043343
   154   1        15.2237480563867       30.69527916612418     0.20417320555617369
   155   1      13.252298224108888      30.818708928319651      1.3294500379216734
   156   1      11.811432009435782      30.472704602064688        5.65251846864708
   157   1      11.457199808725388      34.595943117157418     0.34156203151021597
   158   1      13.414786175731578      34.457982606304249      1.4751449786654345
   159   1      13.598424647460973      36.385888827566788      2.8790763394320726
   160   1      11.779161792576613      36.405609051095617      4.2399995745876469
   161   1      15.517001492833584       38.11117927845131     0.31756938026348969
   162   1      17.525237390673958      38.304808209326644      1.6311122234429736
   163   1      17.338518145787379      1.7269772633911471      2.8888513896160699
   164   1       15.31111225002322      1.7022868874369079      3.8516154227393824
   165   1      14.936079139058839       3.675197539586597     0.34734160669926262
   166   1      17.125495918945965      3.7232883543402524      1.6761549311904202
   167   1      17.283970045867441      5.5250920087585049      2.9571639484836982
   168   1        15.5003344852758      5.7361098391403864      4.1728141107153531
   169   1       15.38852477373438      7.5312561177717177    0.099278651813665492
   170   1      17.529162057227264       7.548454393129763      1.6554983352427051
   171   1      17.459778165770626      9.4000497414984032      2.8084752939119628
   172   1      15.335967040241888       11.52366792901794      5.4071006141951887
   173   1      15.222557732944582       11.32046553605716     0.24869223811627975
   174   1      17.122370053282076      15.293131847292207      1.2840357062562808
   175   1      17.247782143961096      13.412807667341683      2.7752351415214784
   176   1      15.520031648579618      13.470429783505566      4.3414885869338375
   177   1      13.441770154937531      17.346914239513559      51.548604353182277
   178   1      15.191779026396363      15.158256529303229    0.045480367539164485
   179   1      17.380037355028481      17.216333622896268      2.6875998021278069
   180   1      15.293556995130171      17.140770162702946      4.0899940025063986
   181   1      15.327118942348079      18.913221035438291    0.016263668577107624
   182   1       17.45969293278479      21.012794989764558      2.7191990272732727
   183   1       19.57339254097451      21.309754612209737      3.7421609529959698
   184   1      15.312159131695486       20.97734925860545      3.8919718884645906
   185   1      15.342419354893803       23.09388989851918       54.04486054278091
   186   1        17.0981610382517      22.921552428062117       1.383069707080995
   187   1      17.121879889885779      24.902399361115091      2.7966570426750903
   188   1      15.337399022899357       24.84064786435443       4.265439504375558
   189   1      15.380288249118067      26.671836836453423    0.078670202004968617
   190   1      19.032112329532158      26.771191816380881      54.155702613903891
   191   1      17.516737262788283      26.725546161786323      1.4273601330274581
   192   1      17.612548977885371      28.708794152502584      2.5925943037015244
   193   1      17.148100157386921      30.498810647420047      1.3807272576641378
   194   1      15.498209400651346       32.81335050481529      4.2790347477116821
   195   1      13.617714026010061      32.623773907580272      2.9174519325175865
   196   1      15.391513329265454       34.57770609122376     0.18942756936963845
   197   1      17.173651078673938      32.555551485585511      2.6625067614372262
   198   1      17.349350322606668      34.783953388234487      1.6501545477745128
   199   1      17.574422594009633       36.61300539079393      3.1742321431846463
   200   1      19.030745611437094      1.7537593355536278      53.012165946526586
   201   1      21.019876535904977     0.05022250141659898      1.5366293546005652
   202   1      20.972465581260675      1.6498681064104943      3.1686296827650517
   203   1      18.943969758413598      1.7755452340859668      4.4512036009834208
   204   1      21.045446649852718      3.4734888971757352      1.7518239851241446
   205   1      23.018353710522533      3.7234066105005517     0.19695167560190638
   206   1      21.021574840892619      5.6854300698182074      2.9040855981829043
   207   1       19.14562899178668      5.5668498624830587      4.4061270589896937
   208   1      19.226670691753363      7.7012328266650671    0.056152930567145584
   209   1       21.02311280931691       7.397837296892475      1.2795672795158675
   210   1      21.119188490956354      9.5025683794810458      2.6908901194204105
   211   1      19.134615710305852      9.7062886385916798       4.223678794953603
   212   1      17.383023264592424      11.517791043744085      1.5316909642313459
   213   1      21.194930915996672      13.196575568849989      2.6889871791302404
   214   1      23.181881963141844      13.425100423288498      3.9982772513810012
   215   1      19.075765953144334      15.212776519536126      5.4129914665567771
   216   1      18.961156439402654      13.366250953316872      52.882074201816273
   217   1      21.023615352989562      15.101433406656597      1.1975156933710405
   218   1      20.907070684848485      18.951429301053071       1.258270815702748
   219   1       17.29461996771883       19.13839883757354      1.3759795124923244
   220   1      18.984961715308607      19.178558882421097      54.140030373030051
   221   1      21.410114438222394      20.984888756158135      2.4652583133115624
   222   1       19.34262176108076      19.130958641235505      5.3436939907151775
   223   1      19.096908761335744      23.168386387655335    0.025504861104195697
   224   1      21.122122369516894      22.988302505958547      1.3885305799268421
   225   1      20.793448172883231      24.847726374689202      2.8501722373378802
   226   1      19.015086032659966      24.895987649259716      4.2405871837745419
   227   1      20.809505056318407      26.780667798983792      1.2807907163414849
   228   1      22.920221672368619      26.805928516817271      0.2706418430165739
   229   1      21.227887558101653      28.653869349974652      2.5886987591263946
   230   1      19.410784597842706      28.635300912935698      4.0608152309586236
   231   1      19.122112249662624      30.581557715843189     0.06663534322253796
   232   1      21.140208592445298      30.635492242270253      1.3207024038091637
   233   1        21.0351962944926      32.484749981456559      2.7426425112029644
   234   1      18.967487659168324       32.56962698608627      4.0138744826787045
   235   1      19.138603448740401      34.529694156682559      54.252917866750607
   236   1      21.096493724862796      34.449346515668232      1.2701536163079719
   237   1      21.369559571856218      36.605693896612671      2.9743678621083287
   238   1      19.493750952634937      36.407203360609387      4.4149075703982703
   239   1      22.923473234563446      38.311984235583893    0.089683283318663626
   240   1      24.824813589382099      37.982129368988012      1.5351869594828034
   241   1      24.914004566940189       3.733947149238722      1.4099036837248837
   242   1      25.240910731145803      1.6443688394314437      2.3486202629059645
   243   1      21.094452109318844      5.6068642777903586      51.891772476655142
   244   1      24.941972771870905      5.6817501025686807      2.7868053695380124
   245   1      22.976667545642542      5.5719422134817771       4.302556107629627
   246   1      22.740986350859913      7.6951323225309141      5.3976514173591221
   247   1       24.99852939769281      7.5495410010716499       1.242967990835641
   248   1      26.674536001726263      5.9610055681202354      3.9579479165898093
   249   1      24.964210887084388      11.553830589868298       1.209445101668599
   250   1      23.124937464351316      9.5396643046268839      3.9078140638113488
   251   1      23.025174098937473      9.6337252882923217      52.827470825734203
   252   1      21.043083573205809      11.414162001126369      1.1714172868057304
   253   1      23.079964223249007      11.662581297517598      54.238142031703241
   254   1      25.024353221933318      13.358666722047525      2.6909906697278081
   255   1      23.306059531693421      17.420561134531351      52.916756594374228
   256   1      23.081310146073097      15.520478262077599      0.1094302745217986
   257   1      24.945632960993947      17.366126207066863      2.6585985297666985
   258   1      22.877393354474002      17.237622577513243      3.9022254896982425
   259   1      22.982181289878554      19.169077745659891      54.245023946368278
   260   1      24.890397239146893      19.339999040254146      1.3657936479218262
   261   1      24.896085856201989      21.108790816444358      2.7452556463005977
   262   1      22.982595759831518      21.092146794678115      4.2799204731417504
   263   1      23.236598047032864      23.046602713394428      54.289992849497921
   264   1      25.122098082563312      23.390691053422525      1.3425009154335381
   265   1      24.882410415274922      25.255034083474918      2.7382608321905093
   266   1      22.814734739625901      24.852419375068763      4.1102261637579449
   267   1       24.99044559089339      27.031277805678538      1.2976259714104343
   268   1      24.873012408394647      28.885874884989626      2.6574390864255411
   269   1       24.73695895428315      30.726175674223846      1.3226974305300356
   270   1      23.091996372001617      28.677867354235818      3.9072905213477056
   271   1       23.08219388575316      30.520159181032849      54.194252278756323
   272   1      27.076285651369783      30.649447801211856      54.249840222048377
   273   1      25.096355200695339      32.506900950941571      2.6317805900162075
   274   1      22.908512577974726      32.596504801564024      4.0016255976538107
   275   1      22.945454503402726      34.417792363921592      54.088445260413046
   276   1      25.168250595513541      36.129363781579428      2.8107014714610168
   277   1       27.06770377765233      36.388241209960377      4.2045199884767062
   278   1      23.168608333043895      36.095807939847518      4.0700934853933175
   279   1      27.068908608278523      38.302422536893346     0.21644021730478474
   280   1      28.884513962047301      2.0728802162360171      2.9435649980820719
   281   1      26.850675056374875      1.6923464761516505      3.9355509217073847
   282   1      27.055269289949223      38.227074816620657      5.4008427788806666
   283   1      26.736416571084959      3.9197711128874322     0.02907776526348016
   284   1      28.693545604922825      3.8300179693730958      1.5289248199016927
   285   1      28.755563686291861      5.8098407163396919      2.7150844903052618
   286   1      26.845199305608901      7.5491785203043946      5.6848669821740536
   287   1      26.691616880728311      7.2513351791884499      54.145638483330814
   288   1      28.721246353712687       7.557662370496117      1.3298840900918865
   289   1      28.641363434448827      9.4626627185060741      2.7871929800810227
   290   1      24.910917533082845      9.4923958217691347      2.4830898109886999
   291   1      26.821391701454623      13.421383430186852      52.860046824859623
   292   1      27.033583795925477      11.379577138309013      53.999186493326121
   293   1      28.764677137247919      13.346922348098111      2.4372647162484116
   294   1      27.065907285543496      13.554158547854973      3.9837331101653262
   295   1      24.919429523534319      15.551229910511168      1.2665762412428645
   296   1      28.680092525717974      15.319787287782225      1.1723181403669429
   297   1      28.708007130497961      17.163484649835883      2.7572301750874901
   298   1      26.830172717250953       17.41293474381559      4.1793895062208311
   299   1      26.932584704640099      19.030288843573132      0.1953671437738079
   300   1      28.807558791950608      19.116169331244258      1.4302897024425201
   301   1      28.834247730735608      20.943169982863626      2.7630067581843374
   302   1      26.952688198563283      21.137886227036514       4.202621177961591
   303   1      27.297673756703738      22.990318662807397     0.40323286335192293
   304   1      29.171831471010531      22.913809620808568       1.523012436255976
   305   1      28.650699597963914      25.028331045521465      2.8117347843291438
   306   1      26.672443443474588      25.208922993136959      3.8724336040183296
   307   1      26.774841954382143      27.131650435030068      54.119575697219666
   308   1      28.685675728006082      26.849157353031956      1.3225735061471147
   309   1      28.763333356020116      28.560105206905238      2.8660414049316478
   310   1      26.674660631791422      28.824397867868267      4.0828215247001589
   311   1      27.032635537243525      32.593040525177898      52.870826011390704
   312   1      28.848802281145812      30.539430930437284      1.3103543854796185
   313   1      28.939786139584822      32.658039529253401      2.4180435487391607
   314   1      27.112531428426163      32.717281758002542      3.8533057171938032
   315   1      25.032082798914917       34.36424252989687      1.2069251928574887
   316   1       28.87024124515683      34.704804895758734      1.0822082048971429
   317   1      29.058866414141448      36.473491170080592      2.7793965793530351
   318   1      28.976914240188453     0.13347499337949914      1.5468772905879538
   319   1      30.681182815306869      38.332474455159129      54.280167174476482
   320   1      32.850587822627752       1.903664188104025      2.3756369009229252
   321   1      30.862370817499926      1.8142145872113757      3.9160457024939439
   322   1      30.665953645212728      3.6337952548383345     0.25689660019596638
   323   1      32.716601372402828      3.9839822347894289      1.3250831284332798
   324   1      32.571192851696779      5.8514638416092337      2.7424711099232946
   325   1      30.607160065099961      5.3203201322260298      4.1139780676842053
   326   1      30.514765201927997      7.5294510342437597      54.091283728364665
   327   1      32.524845635703393      7.5731977350499555      1.1639973386011326
   328   1      32.430639088008185      9.5890139536811478      2.7963650131222155
   329   1      30.624228937662206      9.4965553027905134      4.2543764955856078
   330   1      28.652604680604401      11.392790484659892      1.3111699053634982
   331   1      30.764926193328122      11.424300461131262     0.15915951994433017
   332   1       32.53112471175853      11.381801613728825      1.4208461459006561
   333   1      32.574722654364187      13.282048441040921      2.8580851179333191
   334   1      30.813751754312516      15.110903707739363      54.265752197448805
   335   1      32.726487337941805      15.133534754178104      1.3588160945472714
   336   1      32.605643885896022      16.958686953046438      2.4968820766490256
   337   1      30.810472958722379      16.974686579269225       4.085805401806887
   338   1      30.685102538095702      18.764674028939698     0.17350005419705222
   339   1       32.60225587973239      19.013962498548686      1.3774347316701641
   340   1      32.541068708727146      20.948045807953733       2.573588597949573
   341   1      30.830982997168281      20.827137436858269       4.022163847780857
   342   1      30.921593133416057      23.002774801233379    0.015163689348253252
   343   1      32.677795224379707      23.007505864099727      1.5703682142826219
   344   1      32.547903108253415      24.834908789904421      2.8227166424359345
   345   1      30.771590501230026      24.964622402103597      4.1323664174854811
   346   1      30.716193529368336      26.857717688371078    0.040533140907598401
   347   1      32.808443752619276      26.775186982086371      1.3087754639193034
   348   1      32.496514418234817      28.910039255229048      2.4870544430517492
   349   1      30.713419333058894      28.948375042160251      4.0152647241486976
   350   1      30.942152872718204      30.771218320529375      54.115077534759308
   351   1      33.053951551174691      30.711672845854867      1.2288677970641848
   352   1       32.91812202308742      32.836965419301812      2.3518562991998002
   353   1      31.020590304482862      32.752359538215373      3.7166154980522155
   354   1      30.625834462326409      34.372030248295644      54.158354209036005
   355   1      32.660580336340523      34.491769338987851     0.97234674877797711
   356   1      33.036092773001712      36.280413802591781      2.8100155949131147
   357   1      31.055805148924858      36.150828639844519      4.0719741994210263
   358   1      32.627992407687714      38.274524362638644      1.2875577110684862
   359   1      34.407801514370021      38.272480622797346      54.030907634856057