dump/Si_1000_5/steps_31 (written by ASE) 

3995 	 atoms 
1  atom types
0.0      38.395898218429522  xlo xhi
0.0      38.395898217999999  ylo yhi
0.0      54.299999999999997  zlo zhi


Atoms 

     1   1      38.367749971686592      2.0172794202547601      53.167106592918643
     2   1      2.1246965376345246      38.307267143789979      1.1825951756054904
     3   1      38.292351209121932      1.8061325261366898      3.9916768094752242
     4   1       36.58086458085937      2.0145298315708873      2.6486579411100597
     5   1      36.374738987986007      4.0829106819967675      1.2897060236052209
     6   1      2.1327492879240717      2.0197384390650774      2.7070850864577656
     7   1      2.0702034212073954      5.9249950570329597      2.9280051938056069
     8   1     0.13951184642774381      5.4366489261984237      4.1045144826485265
     9   1      1.9729644442126375      5.9443533276670637      51.523563123857379
    10   1      2.2008151191254748      7.8285415600987092      1.4555022315875226
    11   1      2.0700674725823971      9.8920995793851834      2.6377105670092185
    12   1     0.29122737933171611      9.6990361749871479      4.1001657607885926
    13   1   0.0038056705638923015      9.4673357355946663      53.018456846033729
    14   1      1.9984468126662656      11.576620694736146      1.1681064945120954
    15   1      1.8566900410548022      13.511705905022945      2.8026859840384182
    16   1      38.280775635752661      13.329844016634539       3.931559012059894
    17   1      38.090303508176106      13.228418994639773      52.842906151046385
    18   1       1.936762189472429        15.2975918967993      1.2056783650603167
    19   1      2.1507357305366708      17.168467489369874      2.7487796942614171
    20   1      38.218761442001394      17.047674270855861      3.8213212172757514
    21   1      38.369913964260363      19.200440431143509      54.183628793893298
    22   1      2.0064529168023055      18.974590735015774      1.2133460753899588
    23   1      1.6522245923560548       21.13345861983019      2.4976959572285513
    24   1      38.258132382786059       20.90976134142122      3.8092251156241761
    25   1      38.327910971226501      23.095008052138098      54.127974081342614
    26   1      1.8967203847080363      23.054717044544535      1.2813346087742623
    27   1      1.8752650978024654      24.903838326038223      2.6516191387183294
    28   1      38.242874269501215      24.718532765334139      4.0284281779820521
    29   1       38.13927944828994      26.518216713212009       54.08410905737955
    30   1       1.669426419821129      26.902157955779433       1.379930912274232
    31   1      1.8583845553693552      28.949588958314031      2.7443808168503554
    32   1      38.367779287301808      28.711023754157075       3.981850589792769
    33   1      38.392636533330382      30.801953550489952      54.255657941658036
    34   1      1.9395887581149298      30.686117169175546      1.4102794869701136
    35   1      1.9752324528221203      32.581535391802845      2.5696983949971148
    36   1     0.11363795921906467      32.715683868165925      3.8119668529731019
    37   1      0.2610150675179278      34.644611783679686     0.07349321702671438
    38   1      2.1393963237168698       34.36724819187247      1.3374583218056482
    39   1      1.7369132152968803      36.430458963986496      2.4115161856315783
    40   1     0.30253216892245216      36.304665473023171       4.252314339508187
    41   1      3.9540185277775692      38.359879030764652   0.0039862368822809902
    42   1      7.8505610115528288      38.317569291672292   0.0021463819069481348
    43   1      5.8270330554121497      1.7939264712488965      2.6429862410950129
    44   1       5.901292130824932    0.032778501779371423      1.1463586663026031
    45   1      2.0677219588917892      4.0724525431757188      1.4266895788749825
    46   1      3.7658070574880531      3.9171818101185734      54.200133269469291
    47   1      5.6642011280474067      5.7255305919230794      2.8634810106143851
    48   1      3.9854232582548557      5.8540941873258587      4.3037397210119375
    49   1      4.0134879154075662      7.6944020008922722      54.230189292344548
    50   1      5.8502609984997429      7.4734948145308504      1.4963218204979178
    51   1      5.8553218508118841      9.3714501381867219      2.7868403906428183
    52   1      3.8665881890533429       9.593908784085917      4.1415199984385254
    53   1      4.1067817903808743      11.496414348469532     0.09558344204376687
    54   1      6.0721152486757974       11.55173115497356       1.510721375738638
    55   1       5.808773593751634      13.375592449130245      3.0369855281612685
    56   1      3.6943668214118555      13.319235733533432      4.2206485443470587
    57   1      3.8507115834670831      15.326750972517097       54.08378061352429
    58   1      5.6006162493549594      15.304839805697094      1.2301815456626715
    59   1      5.9933796417880805      17.134110481833304      2.8542794226414459
    60   1      4.1197612063247764      16.889243039422773      4.0722581520083967
    61   1      3.8874337498250342      18.951299074919095      54.207333984588139
    62   1      5.7333755655334997      19.003188872855855      1.5570265479375385
    63   1      5.8007688988864174       21.12168730665449      2.7050221675956441
    64   1      3.8154644245608345       21.06246845001311      3.8050281533131312
    65   1      3.8984648295982374       22.99388570966525      54.089955839679625
    66   1      5.8464663215177222       23.08375847941641      1.4322429398845649
    67   1      5.6496141990844935      25.092920433997946       2.368251639384106
    68   1      3.7464143078807286      24.879788015274183       3.943829025104935
    69   1       3.591567018363572      26.878647122606633    0.047366498774147225
    70   1      5.5460932322331482      27.091603217230684      1.1705765416964264
    71   1      3.7813163446496527      28.836939010282109      4.0503487802972487
    72   1        3.98902462485096      26.917822781416497       5.314496140364124
    73   1      3.6795402570417877      30.606554265475026       54.23131996647826
    74   1      5.6232251260552024      28.797493717050727      2.7043919098458344
    75   1       5.704641757029469      30.505701962099835      1.0612510203723999
    76   1       3.714876655500845      32.533304908217062      4.2283273222898723
    77   1      3.9739642916351934      34.474653072476819     0.19575594899678231
    78   1      5.6638295166260866      32.440461487216425      2.8096389899179695
    79   1      5.8212502229387617      36.469114313460523      2.5996382671998162
    80   1      3.8369133128070003      36.389950128521001       3.765401716810119
    81   1      7.6360920455567056      36.558743756057886      52.856910204063965
    82   1      9.7808131491651231      38.349022724868931      1.3648283998962571
    83   1      11.659948034947792      2.0445961035020916       3.822176000132365
    84   1      9.6681039390648138      1.9399923521083395      2.4409730158282725
    85   1       5.730742808325866      3.7393169237755757      1.2887192199237441
    86   1      9.6783815806467803      4.0350422808010178      1.2328399549745515
    87   1      9.6035946429818893      5.9114776549506445      2.8596667278461037
    88   1      7.3833383757621318      3.6973758205455716      5.1527680245434242
    89   1      7.7714403306126343      7.8401647532435019       54.24111115933335
    90   1      9.6086441075123226      7.6910584557832324       1.350586739990147
    91   1      9.8368335018522721      9.7016033595080682      2.7698484618960806
    92   1      7.8338384833058283      9.6869793785854323      3.8799804188556655
    93   1      7.8917057635577104      11.485636404706831     0.12419595251155915
    94   1      9.9304886431586095      11.554019133547285      1.3930455318301382
    95   1      9.5720605846182369        15.4506216719232      1.2052859651610333
    96   1      7.6896181257061675      13.571646417965036      4.4220748485715049
    97   1      7.6128027390650059      15.235654207136312      54.226280888488169
    98   1      11.407364097022862      15.245127790693205      54.062981853886285
    99   1      9.5667794108660331      17.209608573216709      2.7127432412724026
   100   1       7.595216485233502      17.296776519276648      4.3249506876568269
   101   1      7.7743786547303619      19.161054102553916     0.14956360763403614
   102   1      9.6676550186997705      19.093280773686423      1.2692818432437571
   103   1      9.6444886845229973      21.018397155152279      2.6987634868373331
   104   1      7.4493246349002016      23.215555253941208      5.2079934434512341
   105   1      7.6870192885194379      23.034140227804212      54.247416641702586
   106   1      9.5538707285635649      22.904964136248427      1.3835058666195799
   107   1      9.5783540545829187      24.849690276648243      2.6092134053683838
   108   1      7.6806914452173665      24.961897661030175      3.7723407475570743
   109   1      7.6118423792204108      26.992883063032203     0.22419164841015804
   110   1      9.6227791885586846      26.872104550711942      1.3592018927883049
   111   1      9.6661838193030167      32.748597263610918      2.6733877078824557
   112   1      9.7529672498925226      28.804652884860506      2.7203580391698114
   113   1      9.6500054009743188       30.84494336524126      1.4901232842244578
   114   1      11.563206405387751      32.737921977329115      4.1646612165031671
   115   1      9.7645706118617568      34.562555212999868      1.2117027287585871
   116   1      7.7431654538886852      32.676808361964852      4.1341772892595499
   117   1      5.9692618566907631      34.464624671871235      1.4908363285356605
   118   1      7.7383493284896261      34.572319708977801      54.199364487930339
   119   1      9.6108683225578293      36.488417658649027      2.7566232137358866
   120   1      7.6238394594572858       36.58292329271751      4.0858726584917564
   121   1      11.546712622641694      38.211723836930389      54.248633808493999
   122   1      13.604035352253293    0.092690395984868487      1.0260724115275464
   123   1      13.652913045031466      1.8821259875607488      2.5780406012804846
   124   1      11.689883031238036    0.070705648909722238      5.0729226992874388
   125   1      11.775271554679698      3.4849578322271295     0.11636316276042168
   126   1      13.791339777947057      3.6664580155061892      1.2699521402147409
   127   1      13.444405412588299      5.5575089845769465      2.7180544469739059
   128   1       11.56973359940341      6.0588899095367736      3.9911870203457842
   129   1      11.482269189577531      7.4239330990629906       54.20757877287204
   130   1      13.290793369479156      7.4322983177693205      1.2435838374277268
   131   1      13.556584136596157      9.2777093645580564      2.7682140761391776
   132   1      11.704722881980572      9.6645852671625452       4.106575705505497
   133   1      11.671104186024417      11.328876643933025      54.279842643214018
   134   1      13.407853876749142      11.402467192500946      1.3070002830725931
   135   1      13.517914518909814      13.393696849338255      2.7351097513176326
   136   1      9.5919603459662834      13.463195694265494      2.9915460073157427
   137   1      13.180189927081006       15.35744734813845      1.2480458379582731
   138   1      15.090389483563795      15.543148958427137      54.195951881531165
   139   1      13.446506956074835      17.259028074841503      2.9084852529227216
   140   1      11.408421638280728      17.164781103154482      4.0307539539009234
   141   1      11.756615800677825      19.181645208668151      54.147219194957259
   142   1      13.624977155285226      19.032964762717913      1.3260110308250075
   143   1      13.501913226049261      20.955012089709747       2.914112151979189
   144   1      11.525049192136185      21.283422435018753      4.1120001425415484
   145   1      11.457524797634644      23.179973763834134     0.12207371897784461
   146   1      13.469039382439432      22.804078507943146      1.4808292021738549
   147   1      13.473839052384376      26.773343404864423      1.2853663223515901
   148   1      13.359406939042785      24.838391547726733      2.7142705801499587
   149   1      11.484020752513231      26.996255258485572      0.0569700036146173
   150   1      13.445381534843161      28.754279540445356      2.5831417731301145
   151   1      15.666108184866358      28.850201651045307      3.9187113187582225
   152   1      11.714824635881973      28.780089792446525      4.0118137072240652
   153   1      11.476210998100697       30.88679328310598      54.157021600217831
   154   1      15.398626556471719      30.662919743712397      54.208630919680566
   155   1      13.435299138249977      30.657170609137037      1.1384194372071308
   156   1      11.357116222842174      30.709706509335287      5.3177469727329232
   157   1      11.722112740573602      34.430168651876329    0.015711509167874765
   158   1      13.535439298716705      34.434745423103408      1.2382756645182984
   159   1      13.496642828815181      36.504213198744715       2.554802505663325
   160   1      11.640191283058011      36.370414502600191      3.9209600901958535
   161   1      15.622313119563875      38.251572307963819      53.874293206075421
   162   1      17.284834518906894      38.233742477060964      1.3522575467473514
   163   1      17.339061285708837      1.7055772299474701       2.876777586607671
   164   1      15.402028760852703      1.9686290768200199      4.0652946506227163
   165   1      15.618427850426043      3.3819582420734395     0.12993699992456417
   166   1      17.439528241148317      3.5625020182356648      1.4883231592796375
   167   1       17.24504579424018      5.5298702879444201      2.7332827203283072
   168   1      15.224321935588126      5.5872033331256361      4.1698529997108364
   169   1      15.329072051070639      7.4494524732104193     0.11228284841292868
   170   1      17.325752042539129      7.5250316877298307      1.4896724060783297
   171   1      17.385392902053784      9.3178004245050516      2.9005208505801314
   172   1      15.490594592575615      11.424952343206433      5.2902659757002972
   173   1        15.3582165477375      11.358263174882504    0.052138399159093761
   174   1      17.377008869983964      13.093531517659208      2.4287787669090344
   175   1      19.173328342956172      13.247263020976575      3.8521066524950576
   176   1      15.627022482739431      13.192600795804056       3.939428783485619
   177   1      15.509132892702297      17.341908449903535      52.787552067000952
   178   1      16.977035264252432      15.174344578821042      1.2900999877428057
   179   1      17.190023128730349      16.945523911399068      2.7163518015113581
   180   1      15.356127441321767      17.003538546787738      4.2915170165452992
   181   1      15.511085662539665      19.078437014369396   0.0079431845580074847
   182   1      17.179641749744071       18.94550880879741      1.4768977035142248
   183   1      17.194274893810427      20.923198988785284       2.713973729683437
   184   1      15.243439720954923      20.773046695119348      4.4335111056693135
   185   1      15.481519724697902      22.973587491742265     0.15426753261367609
   186   1       17.37559415477369      22.876920299662785      1.4788688326726156
   187   1      17.201959536140723      25.099240025577863       2.434006311856785
   188   1      15.334518303164023      25.002109621258178       3.863910468541961
   189   1      15.462732024831647      26.912326446733836     0.10296682298037461
   190   1      19.428114285295525      26.919148061953635       54.14995345280105
   191   1      17.555535477864474      26.902622015954954      1.1485418936417233
   192   1      17.380050357612117      28.912405965942025      2.3481532083769237
   193   1      17.555650885813478      31.048600538611435      1.2128854824864126
   194   1      15.264993552318169      32.801532415934041      3.9583691077965777
   195   1      13.373690792791043      32.611062684310788      2.6494316960375053
   196   1      15.597467180907357      34.255324908963317      54.291520024180826
   197   1         17.343285191926      32.958310180697218      2.8887179515737338
   198   1      17.475011900956069      34.752341967088242      1.3770379260107939
   199   1      17.422412634715727      36.567711829039141      2.8481180575288034
   200   1      19.464585409275632      1.8322793711592373      53.009067407691141
   201   1       21.27582456973332      38.160306342093385      1.6042367265666253
   202   1      21.225900054547942        1.61666491891494       2.934156222748471
   203   1      19.242717324002442      1.8083187666959488      4.2230575533345354
   204   1      21.267779535649996      3.5462624564652732      1.4528336065325558
   205   1      23.177170451970685      3.7771949714437252     0.20164261859878269
   206   1      21.437401888113108      5.4270444173874726      2.9729802609880367
   207   1      19.203619374913902      5.5453351438562892        3.97709841392733
   208   1      19.336105300709136      7.5263951463723542       0.234003195993921
   209   1      21.416469143112938      7.3936467928329286      1.6745739512769107
   210   1      21.479239295970906      9.3515735042955299      2.6505308144019319
   211   1      19.558102345846375      9.4111126413566275      4.1237240957140786
   212   1      17.275497784077665      11.068531325754249      1.3611699706782476
   213   1      21.373433773694213      11.242271427920155      1.3783778203939256
   214   1       21.01284505939763      13.399369311581664      2.5413335631001699
   215   1      19.000385604295573      15.262929355675862       5.247313443682172
   216   1      19.011670004771265      13.333674037208349      52.920321011501166
   217   1      20.905178673179833      15.418894027648362      1.3977936285407269
   218   1      20.879153049050831      17.279618798707595      2.6826723821933256
   219   1      18.922004395723235      19.077740464041153    0.012348163450349125
   220   1      20.920313135899242      19.278431236886803      1.2705384156766184
   221   1      21.077013014282123      21.152898853276888      2.9474180888153789
   222   1      19.187397617088504      20.845922893294418      4.3501877113493377
   223   1      19.277888970377262      23.038708948872472      54.299596680986838
   224   1      21.080133645225253        22.9441921776057      1.3296449035228097
   225   1      21.103269822532205      24.906138397856278      2.3886839729623817
   226   1      19.305175383236072      24.943466301027268      3.9304890687164278
   227   1      21.214630963768428      26.795481219637363      1.2772194072679566
   228   1      23.122129526597572      26.647586647487415    0.048509352757969304
   229   1      20.921541830476222      28.462335685963943       3.106654905202221
   230   1      18.875909058903293      28.714869082170271      4.1494488826970493
   231   1      19.378488233801825      30.814983968633534      54.199850048630893
   232   1      20.875597102440594      30.132506224586773      1.7444700019003436
   233   1      21.209352320827414      32.379876008080252      2.7231940131536154
   234   1      19.378978395111563      32.565241846110155      4.1541838412306875
   235   1      19.442882106230055      34.542436532398234    0.055611908491152988
   236   1      21.478534084403559      34.358338775094424      1.3910574612015247
   237   1      21.324037821762403      36.326270699598467      2.8234843764731634
   238   1      19.290141511956939       36.53566106671861       4.055196226709004
   239   1      23.077349442273007      38.172733850433488    0.052194812305435809
   240   1      25.064103532809284      38.363997190765545      1.2781389036752213
   241   1       25.06896299052886      1.8728907668248176      2.7755444934121991
   242   1      23.058623540649812      2.0959529865346451      4.4061473367262689
   243   1      22.825280417214064      5.6708910150404783      53.085482259697223
   244   1      25.249178458175756      3.8222092866776491      1.5821973664008406
   245   1      23.211259659789157      5.7419715162286842      4.5497492639228287
   246   1      23.153296443528586      7.8127461818830488      5.7303195885515388
   247   1      25.118752791803772      7.5673163368129144      1.7483684032080198
   248   1      25.286455815401574      5.5923621742607157      3.0364661081080526
   249   1      25.230489929718896      9.5286078643998913      2.9427276439768435
   250   1      23.381545075552157      9.5649731457228366      4.1604356102202846
   251   1      23.393563561446154      11.536321572533003      54.279344347566543
   252   1      25.036098783174843      11.330420016706141      1.6351250245414253
   253   1      24.697787488499834      13.366003320284989        2.88053587500066
   254   1      22.689060508800758      13.102799853869836      4.1008159048141462
   255   1      22.984888499895931      17.496857928934062      52.668141169774472
   256   1      22.935411572023888      15.548498801211876      54.271516765297619
   257   1      24.517862020813574      17.132350440901412      2.4802237761304124
   258   1      22.615589944634664      16.913231251615571      3.8778626233246434
   259   1       22.76357627817999      19.273320240755979       54.23999094784277
   260   1      24.753217322053207      19.150832657785976      1.3154923240593441
   261   1      24.937991033268915      20.996246394511555      2.7279952788359179
   262   1      23.057415290502579      21.308925067208165      4.0566407369424926
   263   1      23.147068930100762      22.875535529405028      54.131964747578941
   264   1      25.037889573989588      22.698387789367835      1.3354971430108553
   265   1      24.938522847777357      24.850286424558576      2.6776726852969754
   266   1       23.04414266596406      25.014025354555407      3.9703931972793289
   267   1      24.872461889934275      26.962480248810934      1.3998051198216224
   268   1      24.908294541661284      28.782217654899277      2.9708030819481221
   269   1      24.739903318706748      30.729908058780094      1.6748160097769407
   270   1      22.982554820419754       28.92296597586537      4.2569611082924865
   271   1      22.939147159308149      30.237313865799972     0.34700166984829395
   272   1      26.760976958808282      30.611422480365604     0.16854353110994683
   273   1      25.005203249009096       32.73911516349213      3.0460501547468319
   274   1      22.895567155167271      32.550790330863308      4.2061426961778485
   275   1      23.275262060212665      34.398494488693871      54.164162134575037
   276   1       25.16622680604155       36.48314946850541      2.5132447334990635
   277   1      26.729071438942974      36.347888382132354        4.08318257265055
   278   1       23.43077951192673      36.492227590545021      3.9946733033584807
   279   1      27.282499025520238    0.078221222639815582      54.240519095010065
   280   1      29.357292471689302      1.8060459464276664      2.6674930253803724
   281   1      27.224379027007533      1.6367508139916633      3.9244558502670874
   282   1      27.021881284669213      38.230543154231469      5.4061465524192611
   283   1      26.986604556506585      4.0331231352397063     0.12860025193264191
   284   1      29.109284114421328      3.9081392811759805      1.3804230551874739
   285   1      29.117070262878443      5.8461875153490652       2.716872964399589
   286   1      27.145539016045593      5.6925941861678702      4.2742850044000198
   287   1      26.843853961633069      7.8310727682922714     0.15663725260222935
   288   1      28.950533463815649      7.6404175422975165      1.1921998868056132
   289   1      28.854246184858969      9.5182295688039744      3.0114034197717165
   290   1      27.062422874611016      9.7605816391316704      4.2731583720548079
   291   1      26.623264153393901      13.572807696806214      52.815155136769654
   292   1      27.061802949152881      11.779903461736749     0.30780685123939971
   293   1      28.596906932198404      13.619585739563478      3.0225315130781385
   294   1       26.61446463592037      13.356760018830078      4.2525247499805348
   295   1      24.909655363660562      15.090769267385838      1.2709186520662343
   296   1      28.765422056947827      15.480331331385861      1.5494454603286483
   297   1      28.591811427391459      17.601717787514591      2.7340673672909013
   298   1      26.426381625685668       17.21617220330155      4.0951989909380959
   299   1      26.575348898526851      19.395038691914259      54.144820737673598
   300   1      28.470015937174043      19.512492750720877      1.3692561046600999
   301   1      28.655254810357935      21.160206049214622      2.9810740901356088
   302   1      26.759340251207615      21.236036858145297      4.3947513698270644
   303   1      26.899759703029662       23.04326752855896     0.15667370206095924
   304   1      28.530333067915713      23.101717704631668      1.7608577956682419
   305   1      28.397670313641235      24.938536186522732      2.8667884716851657
   306   1      26.728153425327793      24.782811131239832      4.2116026999612588
   307   1      26.551198022325242      27.033180606541585      54.137093546489936
   308   1      28.621339650453507      26.828777918952493      1.3311816728697978
   309   1      29.102833004482527      28.692341067511713      2.6497133950690661
   310   1      26.944676353598386      28.790435386454252      3.9995239151316824
   311   1      26.992315341392903      32.289936308085004      52.885284056162874
   312   1      28.722689907525712      30.544706232114851      1.3073196150508459
   313   1      29.026211025634723      32.368301305168266       2.763820591353725
   314   1      27.201935955033044      32.636631065484885      4.0476202607780127
   315   1      25.132632585897774      34.530699996397928      1.3124389908261731
   316   1      28.912333910581118      34.436509406718912      1.3387049910689959
   317   1       28.78222181425274      36.250588660296643      2.8061800205843968
   318   1      28.964993554186872      38.284198900772104      1.7325986093168004
   319   1      30.580570269089254    0.027673704294339435      54.279333044723764
   320   1      32.988021689204679      2.0023094854627299      2.5322793780237953
   321   1      31.343767532227208      2.1518626704614698      4.0569579823930884
   322   1      30.978428510742432      3.8178388203490541    0.020811510425346576
   323   1      32.903436168296068      4.0215106367105582      1.2954121094600599
   324   1      32.727036492100659      5.6169700804561709       2.920360789677205
   325   1      30.609256283320256      5.7593683950330945      4.4112068197534784
   326   1      30.928051308531323      7.6848239199439323      54.175873434931916
   327   1      32.623336885699771      7.3787871200641559      1.3636142600817702
   328   1      32.613880830566735      9.4048435342659396       2.529442361572503
   329   1      31.036003700303951      9.5856705356535112      4.1520897650481734
   330   1      28.875296421719526      11.692637585800203      1.6237327674856608
   331   1      30.716370838223355      11.410191002720488     0.31276476759816191
   332   1      32.728054754853019      11.467865211134647      1.6623443890199698
   333   1      32.720671340441029       13.46493531684917      2.7490793107577272
   334   1       30.51224342653688      15.465455870295584     0.16055481580439149
   335   1      32.416022028331184      15.363989364808845      1.4868391655236699
   336   1      32.280370408122792      17.381818787664198      2.6012675065304873
   337   1      30.466146884794295      17.258454031848093      4.0455798294464893
   338   1      30.405580611478975      19.465338151503229     0.20811687838040577
   339   1      32.329512982963678      19.306000368906208      1.4158826241138947
   340   1      32.437182654095672      21.322230466712217      2.7276534996380302
   341   1      30.584618781996181      20.990126423011684      4.3210236445564538
   342   1      30.245462399862792       23.08467153419441    0.036564191459922291
   343   1      32.618782233715841      23.107192227435856      1.1841485855967211
   344   1      32.316141886860485      24.765241923029638      2.7929259654861744
   345   1      30.340638757272625      24.844824392799712      4.0916498801686192
   346   1      30.707239603200801      26.937254309567113     0.14284950762220228
   347   1      32.688393191307135       26.78393378972963      1.4498331827746571
   348   1      32.534924225503104      28.821513876562875      2.6953809124560393
   349   1      30.845666096511248      28.662000062869705      4.1597552838008962
   350   1      30.554913130798191      31.034396335089557      54.182429336048443
   351   1      32.305253256908081      30.744466995988578      1.3281689865780095
   352   1      32.765274577075495      32.543137658874024      2.6760506887108906
   353   1      30.964387951907231      32.414843151088753      4.0844347164331101
   354   1      30.871640161404642      34.735308181353581       54.21934431323767
   355   1      32.848994397498011      34.540794857657964      1.3142823616584571
   356   1      32.983524003712347      36.400821526160826      2.7394579447582252
   357   1      30.949962793087796      36.517243410754766      4.0026397012666983
   358   1      32.664554474079907      38.380805928920353      1.2351506783345376
   359   1      34.523119437251793     0.13789251612503448      54.188525867118926