dump/Si_1000_5/steps_91 (written by ASE) 

3995 	 atoms 
1  atom types
0.0      38.395898218429522  xlo xhi
0.0      38.395898217999999  ylo yhi
0.0      54.299999999999997  zlo zhi


Atoms 

     1   1   0.0051204969024741869      2.0146142554708115      52.865615535290885
     2   1      1.9313874099329513      1.9648627396660532      2.7368182269742212
     3   1      38.299927700919106      3.9697776225537433       5.443199675255487
     4   1      36.473048901902501      2.2623924922041465      2.6245118785031978
     5   1      36.603857057862058      3.9817752506377482      1.1300882365395282
     6   1      38.335922086661775       2.091561562478879      4.0314447973523668
     7   1      1.9001761976818434      5.7836905759485324      2.6159072212852506
     8   1      36.467800402009161      5.7514875358096322      2.4918252425337419
     9   1       1.880300805768476      3.7147719435707542      50.234149245234526
    10   1      1.8254255094167413      7.7891817291741274      1.3263436439637624
    11   1      1.7684166100933274      9.6742618599961308      2.7589473100332631
    12   1      38.221088528391888      9.4800823387212763      3.9955731720357681
    13   1      38.102306032159099      9.6116465651639746      52.856003563468605
    14   1      1.8835375652395814      11.473733263192912      1.5408154905098717
    15   1      1.7945633652211266      13.440834066271456      2.9185223908043074
    16   1      38.305512527359227      13.443844029969554      4.5076746527121232
    17   1      38.249299466162554       13.37177577878172      52.962148909193544
    18   1      1.8985613963725469      15.342719167725514      1.4232314530961945
    19   1      1.7602412315641454      17.369356777277137      2.6768092214400441
    20   1     0.37428319687784128      17.287836456527163      4.3538780128178356
    21   1     0.25565654050305825      19.331321234347627     0.10492608231886616
    22   1      2.1164300549005044      19.518372598515114      1.4676601340971862
    23   1      2.0102357665453452      21.320364552532951      3.1461006356115164
    24   1      38.324859342832035      21.475508578004014       4.055304359687991
    25   1      38.365051452161062      23.105566585367129    0.036122233074786417
    26   1      1.9213350710037593      23.133553211538903       1.524651042509207
    27   1      2.1151332935231273      25.030888948368656      2.9188421776421163
    28   1     0.10623912822251233      24.997702066686944      4.2522709289075218
    29   1      38.333658339190208      27.005897879117772     0.14067112786493677
    30   1      1.9319452033263724      26.714383972049646       1.366942292825821
    31   1      2.2198829883794247      28.748102509507586      2.6741789761155479
    32   1     0.16321069897351798      28.937647336646659      3.9158678632568122
    33   1       38.19568983227785      30.587047797573792      54.276743116253726
    34   1      1.6425836252878885      30.620567094065038      1.2940270332075088
    35   1      1.8242265013909833      32.626533841601244      2.6524823268124553
    36   1     0.10504342321305475         32.991151319676       4.157361033701056
    37   1     0.17028993880090196      34.644650938338359     0.10438521202322618
    38   1        1.99767616967152      34.466482351732125      1.3278582894245703
    39   1      2.0730956553344182      36.440684102853865      2.8450638196385509
    40   1    0.081331743163748971      36.464453001444632      4.0886022864884586
    41   1      3.7187359911595315      38.345130669159843       54.26909662822127
    42   1      7.5496091232755296       38.14303418061705      54.232742854339037
    43   1      5.8210823875122673      1.7711366307319976      2.6176220006631628
    44   1      5.4864475463623457      38.260336844175612      1.3424083256466577
    45   1      2.1650052594619908      3.9783155240999863      1.3064395497247709
    46   1      3.8509050002350578      4.0746007435757168      54.002749953802237
    47   1      5.8288179114649852      5.6946160252178286      2.7224855254753968
    48   1      3.9961244482240805      5.6208615630854748      3.9506644489424061
    49   1      3.7226238985251383      7.5938538898283783      54.211829064457255
    50   1      5.5099126482518406      7.5681211043251144      1.3577039257455237
    51   1      5.6588155642417117      9.5229246343729663      2.6455948665376812
    52   1      3.8021599725950495      9.8427220373677589      3.9624345969995236
    53   1      3.5971009866481052      11.373330925076155      54.113091809960345
    54   1      5.3748237954209301      11.485692515484482      1.5014036044400325
    55   1      5.5567708013925028      13.261980955057432      2.9296740516912307
    56   1      3.5720310942663711      13.609525747163504      4.3129889224820905
    57   1      3.6267579779284889      15.210977347469152      54.265721533135221
    58   1      5.4867661100286957      15.274758910430622      1.5500180794787741
    59   1       5.708094894772505       17.17219921619164      2.9444598744531159
    60   1      3.8760236382607571      17.313265403432556      4.3128342013489354
    61   1      4.0853260455798024        19.2263321254487     0.32186299907110644
    62   1      6.0787108237753156      18.963047655549534      1.6217522514652831
    63   1      5.9503646003729553        20.9365621258206      2.7033205957443558
    64   1      3.9148806820405171      21.195105305282613      4.1622270962351076
    65   1      3.8600672204765116      22.999718205908874     0.38522346000789859
    66   1      5.9845080989502479      22.885781934023424      1.3254338160458257
    67   1      5.9180917167032918      24.801426180668184      2.6014982185802862
    68   1      4.0780331575719799      24.863757913258095      4.1118733732477502
    69   1      4.0145551731039815      26.980683209452884    0.057576866577835631
    70   1      5.8973294642495535      26.759810529363826      1.5945650207214284
    71   1      3.9255674404511081      28.735043721037016      4.1442408666155526
    72   1      3.6407142578813669      26.792238219069844      5.3993771980500904
    73   1      3.7845304151480033      30.602219928959723    0.096045086069625682
    74   1      6.0602196909305803      28.633276787284878      2.6592706249215663
    75   1      5.8149244690525093      30.492350755402963      1.2454016451817904
    76   1      3.6422144929349347      32.346261945809118       3.854373295184895
    77   1      3.9534850796448415      34.460948504535779      54.275654771229341
    78   1      5.7155435211953574      32.662872387452417      2.7165342648977142
    79   1       5.720382465189112      36.403765583564486      2.8310433148857692
    80   1      3.8505106056768494         36.339174884521      4.1241363808643516
    81   1      7.6124512080801248      36.430525206121459       52.74388237815991
    82   1      9.4736883931108729     0.15307073372467556       1.254541980007216
    83   1      11.238049787258864       1.969258705062588      4.2894587925525256
    84   1      9.2261197037542111      2.0641321094448486      2.5951034085195932
    85   1      5.7361642361534146      4.0013239760956081      1.3055952790665957
    86   1      9.7076781076914838       4.038555782111251      1.3202432547480851
    87   1      9.6583608170619097      5.7320584255841531      2.6699668996803307
    88   1      7.7737908704591199      3.7487817838382198      5.3910214941492987
    89   1      7.4050229750740177      7.5250414772402268    0.063395630050126536
    90   1      9.3847497467594039      7.7653029372632885      1.3748714605512984
    91   1      9.4206195339115322      9.4760571936836779      3.2018945592965209
    92   1      7.2631284329766954       9.326067686415179      4.3189073875770649
    93   1      7.0929557181102227      11.444745104021974    0.027179087885667721
    94   1      9.0994084302326019       11.49906123669802      1.5058506120756205
    95   1      9.5795533656083034      15.226977912766371      1.3394129078871488
    96   1      7.4831770804170015      13.227884610125889       4.422122256451928
    97   1      7.4986812939914556      15.049482033896131      54.213918131798614
    98   1      11.452861713402232       14.96642436383827       54.27016217382053
    99   1      9.5578726577773363      17.070597790468867      2.7521291366591281
   100   1       7.495093732569674      17.195353913727235      4.1683035247673814
   101   1      7.8153428842045605      18.991472056773311      54.150523605228763
   102   1      9.5425507116244592       18.91296859190431      1.4046774715761658
   103   1      9.4443181307710642      20.918095458980062      2.7753603697017644
   104   1      7.8934903584199541      23.115523503872325      5.5768183293353433
   105   1      7.7738638594341509      22.897542133655367      54.288746920122897
   106   1      9.6436348381431696      22.942731125060234      1.6838529446986419
   107   1       9.712734540807336       25.11450386423893      2.6323827843214631
   108   1      7.7868076425847397      24.949873542806642      4.1141970796893235
   109   1      7.6706027708433773      26.817859587638218      54.136606094405693
   110   1      9.4451567936893319      26.971431579118306      1.3107587475004141
   111   1      9.7806748999316415      32.814418624127285      2.7580024108718226
   112   1      9.6279268035477514      29.090346375240351       2.742298177080043
   113   1      9.6235162631027364      30.853661177151007      1.5959812415652412
   114   1      11.483394733285401       32.81840011854073      4.2248957740304958
   115   1      9.4418221318680153      34.828100217500307      1.5483101879854897
   116   1      7.8944924604284541      32.649624191124921      4.1723686282505712
   117   1      5.8604380968497178      34.611450750759097      1.4218039075379683
   118   1      7.7415494597175556      34.536249130133541      54.140486589378895
   119   1      9.5087107131614328      36.849725347590471      2.9131738325611662
   120   1      7.6005650893140571      36.469841170451623      4.1231993885598524
   121   1       11.66536914299188     0.25884901580402481     0.16263965125680199
   122   1       13.59905091312535     0.11026736029401389      1.4958507732387589
   123   1      13.164538179644206      1.9375882767977042      2.8021132082866753
   124   1      11.464098740012798      38.330030968807343      5.6297000844538454
   125   1      11.515294621279368      3.8979976794411586      54.111375051036234
   126   1      13.253082690868913      3.7883906264835958      1.4990031240366775
   127   1      13.488572581918966      5.6410446718074585      2.9008512505728175
   128   1      11.565252259329581      5.8523962874595732      4.1225980378279043
   129   1      11.471941659120978      7.7398994666225169    0.089582496658135766
   130   1      13.343389032209153      7.6157144880566152      1.4146161706239027
   131   1      13.210437667178445      9.5710725261777228      2.8846466999460838
   132   1      11.372711482369095      9.5021047331177719       4.228511988562448
   133   1      11.200280745326683      11.044771034292662     0.38603067104254474
   134   1      13.171909909468939      11.437903202328288      1.5917448200602722
   135   1       13.37549055479808      13.300481393474623      2.8876050771757611
   136   1      9.4418406149891307      13.218267034306631      2.8876178902722458
   137   1      13.106793962785201      15.158666721087794       1.349897031616466
   138   1       15.11223037737059      17.169704295614391      53.041070445100402
   139   1      13.460178827578639      17.289744802919763      2.5883174174138137
   140   1      11.528110597076688      16.973819634103084        4.06957306815917
   141   1      11.574409647775957      19.029573522812296     0.15456597423980173
   142   1      13.425671183071907      19.176299389151335      1.4168378425799457
   143   1      13.511363609169392      21.103134491395075      2.7283209133502493
   144   1      11.372677367254065      21.003657272194051        4.14505125545063
   145   1      11.448572008835363       22.91819714370596     0.12635158572946895
   146   1      13.603515489302138      22.994127753752206      1.1150609633805606
   147   1      13.624844680190755      27.045091562952461      1.2906720805601262
   148   1      13.509827966675582      24.922135947937512      2.6775607937124848
   149   1       11.63110247095546      26.866952151669047      54.261112412239839
   150   1      13.572628947399041      28.815916856603248      3.0400532734966621
   151   1      15.420018031575292      28.855468439539546      4.1715050116626129
   152   1      11.555520359937063      28.974162190411764      4.3223036636924785
   153   1      11.638444239650616      30.443318627561723      0.2174643318403125
   154   1      15.617643875194638      30.527852751332041    0.072688898942749491
   155   1      13.636248744875326      30.467983332833793      1.3578260331039704
   156   1      11.619583590780577      30.820886598067442      5.6857027984684327
   157   1      11.544153593125126      34.419729206068226     0.28625130878482424
   158   1      13.493378438313631      34.474978187664313        1.75047789447649
   159   1      13.184326596906629      36.692597048296214      2.7828500571911023
   160   1      11.382982008907529       36.52232382652172      4.2291548564587718
   161   1      15.444685646397422    0.061335178756202459      54.213952504551237
   162   1      17.383136654407824     0.13464376738216419      1.2910044352148462
   163   1      17.203717897243639      1.8377685914225994      2.8442610036905394
   164   1      15.078136237796116      2.0415138245703122      3.9833969133570704
   165   1      15.576015184821951      3.9025733001217464     0.12419979866532468
   166   1      17.368235698400646      3.6938025517540996      1.2849521171523877
   167   1      17.216017904691764      5.8997832770479448      2.6054507308275463
   168   1      15.258921674563858      5.9617696625839223      4.1995776977839352
   169   1      15.349821120347439      7.5701065096192925      0.1175594454222848
   170   1      17.104477683518947       7.814945952885413      1.6398824162753738
   171   1      16.896878094045992      9.8021134816590898      2.8673564677848975
   172   1      15.252500913887021      11.664788342929203      5.6833266677770933
   173   1      15.188866276910927      11.407509323099495     0.21233353011017475
   174   1      16.984025750446495      15.601452454758201      1.4802772574683571
   175   1      17.264996050872387      13.704252096998461       2.549991699536112
   176   1      15.418016432733456      13.272292584939191      3.9838616991565914
   177   1      13.396930982071991      17.224043725309649      51.442032310130749
   178   1      15.178107255709046      15.275104228343066    0.060811856638531489
   179   1      17.362793959135143      17.648206261562052      2.6749700015445224
   180   1      15.476081869675964      17.304415910795093      4.0397077566548898
   181   1      15.278827372397993        19.1047644421262      54.131639889331559
   182   1      17.277206508705309      21.395496200844306      3.0488648858026273
   183   1      19.303892781047644      21.090987561012394      4.3270946809940121
   184   1      15.318443005991112      20.971443111885183      4.2588823743919191
   185   1      15.550431327361432      22.989198681565732      54.240338035639823
   186   1      17.175954854823299      22.937279005781249      1.4776795632482838
   187   1      17.238261231220285      25.074961593894397      2.8837017713138131
   188   1      15.306671352109854      24.740934965420486      4.2672653148007136
   189   1      15.699713188150172      27.011813545872855    0.028918289140233359
   190   1      19.592600398189298      26.527506795427215     0.14142585102267741
   191   1      17.512074880312515      26.817085256685729      1.3578349563466441
   192   1      17.562303765931823       28.64540226199939      2.7485709524161033
   193   1      17.548739009819368      30.556852613785978      1.2972746590087902
   194   1      15.442679964468271      32.562102562269423      3.9482049845161433
   195   1      13.446272337281433      32.354926834482931      2.8958375007122297
   196   1      15.517819211661271      34.593035331053301     0.14319369530458054
   197   1      17.540671488518576      32.510318551277535      2.8746310656001106
   198   1      17.430415854584659       34.38368455920147      1.5438892530192223
   199   1      17.227073232772252      36.390464164026426      2.5938024583994652
   200   1      19.240250835199806      1.9242448191632495      52.981767069363691
   201   1      21.155839336474109     0.20102598543207412      1.5355053187691974
   202   1      20.823770498751603      1.7888435682869157      2.9588973871221933
   203   1      18.941115940233637      1.9788100355537728      4.2279303347002637
   204   1       20.96361472543035      3.8236695436995931      1.5018974584765832
   205   1      22.845084296833591      4.2250287780218416    0.075470488952714951
   206   1      21.090781212554738      5.9430023323907308      2.8111493787322135
   207   1       19.06804592490689      5.9014946287766419      3.9717942819051153
   208   1      19.179991054699531      7.7318832892877545     0.26982597995241814
   209   1      21.083826154225246      7.9467762679329299      1.7046881042523954
   210   1      21.137792523113614      9.8953862018151391      2.8934656983629203
   211   1      19.011151248724239      10.028454973672494       3.939815569703343
   212   1       17.35492783046266      11.824685369846669      1.3277996772934684
   213   1      21.022236552672101      13.516862541795872      2.5714981504700196
   214   1      22.751830285556629      13.635204654314601      4.2195674830233196
   215   1      19.265446755699212       15.39899826851987      5.4015883218488296
   216   1      19.026161821783756      13.633692263966742      53.002039611670924
   217   1      21.022709680879867      15.420340055491209      1.4571321750698856
   218   1      21.254955390491492      19.269147983582211      1.3951299119723573
   219   1      17.252615413597837      19.552214643366678      1.3058502153705513
   220   1      19.065143337777652      19.091049588553986      54.240369430504771
   221   1      20.988069973785727      21.438085365623369      2.6781695655141089
   222   1       19.11635401392385      19.218371355707568       5.539565878961846
   223   1      19.092626892875934      22.927863625517066     0.13226803785657903
   224   1      21.134398267686418      23.209882107759579      1.1690390209110637
   225   1      21.265128460287418      24.742530716860461      2.8836456577649847
   226   1      19.357739893209935      24.689534004978412      4.0737958376859771
   227   1      21.320909181936884      26.793344256117283      1.7176068841201659
   228   1      23.064616361439708      26.986703716308465    0.016926028164709832
   229   1      21.105040825486256      28.874673755021451      2.9313952628719315
   230   1       19.29564941861582      28.584366205651509      4.4494735233040625
   231   1      19.533322455215004      30.548948937338515       54.17938877492174
   232   1      21.197832595117951      30.518894348737383       1.374503982199438
   233   1      21.156639003051776       32.53777674401843      2.5557431913473585
   234   1      19.430644611222178      32.439053516080932      4.0892370234100017
   235   1      19.104744267237358        34.5973071917429      54.188648012331399
   236   1      21.230709774224888      34.509539469136719      1.3163170734936804
   237   1      21.282919197706576      36.392862261404289      2.7745148166980793
   238   1      19.297597405045348      36.259921095411201      3.7771282756760316
   239   1      22.914985600390242     0.22987327977483632      54.255531196702066
   240   1      24.741105653429507     0.13286065713693065      1.1564698394819608
   241   1      24.817582856696312      3.7938366504257992      1.6042064975096095
   242   1      24.752727333640991      1.9654212181282864      2.7928235739368601
   243   1      21.120633742787746      5.8545527144211604      51.656346752287213
   244   1      24.685567341409893       5.822111540446163      2.6820425732656767
   245   1        22.9081557281229      5.6829363090502243      4.2135596394993833
   246   1      23.000780006861753      7.9272765947940691      5.4353504309819183
   247   1       24.81770052930711      7.7154681199807529      1.3457009313674475
   248   1      26.662298923442169      5.8042206131245226      4.0878068233160674
   249   1      24.942829753952473      11.468798810543406      1.5835104941055211
   250   1       23.18530965002514      9.7887741073869634      4.0420805289242923
   251   1      23.028436642360912      9.8717387366160345      52.977278904090618
   252   1      21.047479399687209      11.628865757043211      1.2469888174830523
   253   1      23.184367322420933      11.575015704893811     0.15945344814366533
   254   1      24.706083978812575      13.676412304997177      2.8003722989521882
   255   1      23.028937025846275      17.349467356569601      53.007815518889323
   256   1      22.967464607767365      15.389497059257964     0.20387766917156086
   257   1       24.80201242642892      17.344688112790788      2.7681062444738602
   258   1      23.077396903998995      16.901465284331184      4.2387805478742289
   259   1      23.042952884607292       19.35664753485948      54.162832640127704
   260   1      25.027500929363537       19.08457236078014      1.1981601681068934
   261   1      24.960162070348449      21.001125219478645      2.3308955811010366
   262   1      23.189598869139569      20.787693472837283      3.7841775237443227
   263   1      23.243172022171162      22.917381346778711    0.084822696384139903
   264   1      25.071393404893978      23.132091937442347      1.2841358231127724
   265   1      24.930225710114684      25.004683485320111      2.5834086201699029
   266   1      23.200150028614019      24.834803337907395      4.2121183669278022
   267   1      24.846809460185078       26.92792023786874      1.3712040952256745
   268   1      24.819025283530063      28.808206927222756      2.9757725054021744
   269   1      25.032792383783789      30.496280596486503      1.4502809539269021
   270   1      22.919471763445983      28.770985928730621      4.2996175653764439
   271   1      23.122419659113483      30.669938101646352    0.071356874729246886
   272   1      26.936852194031808      30.629533928896439     0.26991506401873261
   273   1      25.163693624046413      32.499276895763856      2.7946321376704999
   274   1      23.064681266910853      32.670819812821911      3.8155979454489373
   275   1       23.11374417549246      34.621556575023448      54.262471418780031
   276   1      24.926247605814513      36.431151452895804      2.4327942742066613
   277   1      26.955598645615602      36.220852697682503      3.8948650054701357
   278   1      23.227158921718988      36.287295191949553      4.0902397788873701
   279   1      26.936039145634222      38.259055282864701      54.230599500196092
   280   1      28.855446895669793      2.1834119905483633      2.7258043190635015
   281   1      26.741286018970239      1.9928317107035138      3.9858602209986564
   282   1      26.880395317363195      38.354734863263936       5.103626381177742
   283   1      26.521562986998088      3.7796923020365285      54.219066459612925
   284   1      28.655791108452355      4.0588995926776184      1.1530824071169854
   285   1      28.388423339222658      5.8069514479196416      2.5385568423399731
   286   1      26.707800540822987      7.5378925264421364      5.6477339006493192
   287   1      26.841621707673259      7.5885981531203637      54.130165853998292
   288   1      28.623509471239053      7.9258063921872948      1.2602091754910449
   289   1      28.769956240886842      9.5554774708943881      2.6957615889327498
   290   1      25.271673204602919       9.558421406498427      2.8649675732591482
   291   1      26.892499896732431      13.326622267696932      53.094041410533244
   292   1      26.733736321351174      11.293614463515455    0.040339541873288455
   293   1      28.828999843430672      13.487081892276519      2.5696472128806462
   294   1      26.690891791745713      13.302594080982059      3.9204089483884763
   295   1       25.11496764402769      15.401592964633158      1.4901529247475522
   296   1       28.88881157722485      15.368501677477681      1.1656649024739092
   297   1      28.984158647745662       17.08999566279676      2.6135135684543997
   298   1      27.231852229417651        17.4251051689089      3.9664394671841046
   299   1       26.84207746209109      19.190959042227458      54.162923528581963
   300   1      28.798298738179255      19.322653947710272      1.1582973898530784
   301   1      28.563280368549339      20.988654247485051      2.8606618315800092
   302   1      26.787100302380757      21.068238050983425      4.0643730066410644
   303   1      26.822804337223367      22.819430276144384      54.187482836326524
   304   1      28.728532048091939      22.872074156103977      1.3586633313294325
   305   1      28.798867039309251      24.772658067638684      2.7143165100439655
   306   1      26.787234574092686      24.724823184223414      4.2410567754065953
   307   1      26.673610378575027      26.622559706527078    0.083184125027980713
   308   1      28.758812735454608      26.623822439074495      1.3126937751954437
   309   1      28.677062321920818      28.533745018168542       2.805505097581364
   310   1      26.807477960708216      28.495201892960559      4.0968697961273053
   311   1      26.764623272016095       32.48431236438654      53.010244370020359
   312   1      28.685533426598944      30.509253780618401      1.5853873001240466
   313   1      29.118742415607706      32.399988915830555      3.1792836800378383
   314   1      27.035397689014527       32.15495891923765      4.1311854207231153
   315   1      25.022665992774908      34.331663008831427      1.0991874154726149
   316   1      29.038395071140478      34.528790015254799      1.4723605329600191
   317   1      28.722326846949834      36.702133216871985      2.6143531446506612
   318   1      28.702473324844302     0.27141026635095306      1.2816594687377827
   319   1      30.531189051789866      38.214424877936665     0.10073278309547508
   320   1      32.579370737269137      1.8097461514146558      2.5090279663984467
   321   1       30.77104326788902      1.9248342493683881       4.198058588763411
   322   1      30.640432723027406      3.7085853864259053    0.088499902931266569
   323   1      32.495253549230661        3.83620309398981      1.3070212954194036
   324   1      32.379827260340925      5.6851826404579064      2.8714756111974014
   325   1      30.297359676897994      5.7555260562416803      4.1263661531884832
   326   1      30.671983195302438      7.5404020647585899      54.163590234670068
   327   1      32.223350052249756      7.7042573610595912      1.6147057321406806
   328   1      32.403770307631973      9.7984195202086237      2.9367437192758739
   329   1       30.45516422632447      9.5315940854928769      4.3274352531532037
   330   1      28.689507468655172      11.511976889654759      1.4049048875285952
   331   1      30.568283510499846      11.429597875980178     0.26611168184165296
   332   1      32.360971934152957      11.824625483206749      1.7470957637812621
   333   1      32.942931519908349      13.678945215945232       2.990632544947597
   334   1      30.795160792651284      15.193743709705663    0.030442828307047878
   335   1      32.676740440988475      15.566017988175583      1.4126269371751843
   336   1      32.849032537858314      17.639676789917235      2.8059004068952378
   337   1      30.915939229565662      17.143269619273706      4.0722569279378478
   338   1      30.922354977142643      19.046152414138419      54.203165234276497
   339   1      32.770018074140417      19.573336255552501      1.2964783862773945
   340   1      32.613601780571777      21.182150960901147      2.8105349026820812
   341   1      30.552043252376617      21.162422072108647      4.0029230063723054
   342   1      30.734921397835119      22.738437893520807    0.073054240331941661
   343   1      32.701924821355171      23.010207004337978      1.3280737175194322
   344   1      32.616359218283428      25.033271215856029      2.6593604109110536
   345   1      30.622140339157397       24.91439492471244       4.036892686289411
   346   1      30.717697852524751      26.703717599864508      54.272364578505645
   347   1      32.593944119886892      26.995173185873707      1.4179102824438379
   348   1      32.709989273282062      28.788434626455299      2.7394559754471968
   349   1      30.569653563485204      28.504159228661642      4.1116201540551067
   350   1      30.750051726788271      30.641428011007953     0.22492121363648057
   351   1      32.750634622519222      30.599588220814216       1.589473316707585
   352   1      32.839225351872386      32.510949179029517      2.7663565833448502
   353   1      31.149185571811742      32.452318803352483      4.1558905551005534
   354   1      30.847764484417368      34.617721547194698     0.18277532815750436
   355   1       32.72044762430864      34.536536601317124      1.4742693823253128
   356   1      32.681154406031155      36.221643151389301      2.9063946946034456
   357   1      30.576039615160958      36.349363398296809      4.0275472914543249
   358   1      32.584212486215989      38.068268394159226      1.3083339199778026
   359   1      34.675099471768711      38.204560669400301     0.14468088631272166