dump/Si_1000_5/steps_61 (written by ASE) 

3995 	 atoms 
1  atom types
0.0      38.395898218429522  xlo xhi
0.0      38.395898217999999  ylo yhi
0.0      54.299999999999997  zlo zhi


Atoms 

     1   1      38.385232948536697      1.8973602704798036      52.755289269315263
     2   1      1.7194876490707223      1.8721476255965888      2.9811116926237577
     3   1      38.149052359637956      4.0952838278636836      5.5476191857122128
     4   1      36.375868626108684       1.841301234147223      2.6368978733869883
     5   1      36.560173825626755      4.0003199243373011      1.3729423524258344
     6   1      38.265749812873182      2.2076617658985671      4.2782951144544858
     7   1      1.9917267207717888      5.6048036356911934      2.5918055748308357
     8   1      36.802491626184164      6.0241553633598812       2.668257981405644
     9   1      1.7892473884390125        4.07469044332879      50.266925976774537
    10   1       1.791715065402284      7.7423603307823541       1.319347561354643
    11   1      1.9314929873657067      9.6535609343757898      2.7959895675519215
    12   1   0.0071699594705530376      9.6016367072152189      4.0587066172962896
    13   1      38.069398900591679      9.8505816043832688      52.793143653923501
    14   1      1.9422928375770541      11.374087707992279       1.325872270364812
    15   1      1.5228215461096897      13.452581578620229      2.6603538278069991
    16   1      38.083704065669281      13.242150241589915        4.01240971874706
    17   1     0.12125016317160053      13.589972365689102      53.011968559131965
    18   1      2.0225566892044937       15.60642199395574      1.2525451279403998
    19   1      1.7222691732488846      17.211848457887655       2.945866183225669
    20   1      38.218885637589892      17.218098338527348      4.2286872736276813
    21   1      38.289320310224952      19.440588948137478      54.155402939234484
    22   1      1.9406659102371209      19.170651565097984      1.1752683656700036
    23   1      1.9302025318542644      20.934105680966216      2.6098278293969988
    24   1      38.320075745340048      20.849671585982442      3.8782585785461126
    25   1      38.229477613788191      23.040306666632205      54.248017513931643
    26   1      1.6995962235778401       23.02931892576219      1.5947363555281302
    27   1      1.9022106609042444      25.124376435312143      2.5453508709213217
    28   1    0.051397540009310821      24.841599331923497      4.0207794062562483
    29   1      38.302841295389065      26.669560215092545    0.027356654588572841
    30   1      1.7742831192648607      27.025446296289857      1.3849594119663835
    31   1      1.9215952940903964      28.896909809357968      2.7008975805731121
    32   1     0.22732935887389674      28.662216741570145      4.2326428235808731
    33   1     0.20220774726223534      30.828856381652333      54.297357748035985
    34   1      1.9916237050377321      30.777556216989932      1.3371939411672651
    35   1      1.7272312330168329      32.890565784295411      2.7289818675050004
    36   1      38.359050806534853      32.582191102195807      4.3679839977440436
    37   1      38.354557781701367       34.65576662058357    0.085495813881880392
    38   1       2.016184597262809      34.661137159193316       1.427996289370308
    39   1      1.6736145847152712      36.728773253519201      2.7014831896632447
    40   1      38.314068109252702      36.673165383639933       4.243345892922596
    41   1      3.9429592668524238      38.307250291056434     0.15484053389076294
    42   1       7.468291934888641     0.30034061054922229     0.18079946757827633
    43   1      5.4206297530990142      1.9631877861087357      2.8112212494854836
    44   1      5.5512107843681227    0.098294076383811768      1.6430276553239098
    45   1      1.7373655871093698       3.776542368693574      1.3951433053924132
    46   1      3.5478534126814543      3.6773322557918142       54.21860834067602
    47   1      5.7242974005367273      5.8545890333178345      2.7656255528612408
    48   1      3.8461359214008426      5.6049530770098164      4.1856969249917846
    49   1      3.7828840966047546      7.6340135901292214     0.25671700343161791
    50   1      5.7018966833734863      7.5823849705394117      1.4199466011926549
    51   1      5.5715229302910254      9.6409905500581186      2.5373578223475088
    52   1      3.7697243780705114      9.7715795213005219       3.928334373114287
    53   1      3.8361621384700508      11.595194786650655      54.167674142144399
    54   1       5.723037749960894      11.649409615854349      1.2055114953628034
    55   1      5.7455203559569021      13.425783713277839        2.57641576954952
    56   1      3.8127575264042664      13.280570955670035      3.7616452128224385
    57   1      3.9912750457016215      15.513004484494731      54.297674540701223
    58   1       6.013504155191618      15.404000696463992      1.5001255691961184
    59   1      5.5637171106481702      17.337719288180214      2.7348058175601628
    60   1      3.6028443331598003      16.908506450706579      4.1597762692696199
    61   1      3.7474792397383276      19.257486174289085      54.207735805289623
    62   1      5.7328698907774447      19.038264330542983      1.2540860423843108
    63   1      5.7406078816666994      21.099142613969285      2.5849043399782303
    64   1      3.7189996382981865      20.666337170815893      4.0204347950864996
    65   1      3.5344991971851782      23.101291666015662    0.055403364015239577
    66   1      5.7357270592827305      22.710137062417921     0.95881486089571333
    67   1      5.7058915665037198      24.724381216637735      2.5356979208854802
    68   1      3.6985169319121209      24.961316250314631      3.8502241050345223
    69   1      3.8496892855650202        26.8046939055194    0.068383735247539074
    70   1      5.8409612658114165      26.741191034352095      1.4848596321525163
    71   1      3.6895620979592407      28.519710189258358      4.1775534397971796
    72   1      3.8105024081820646      26.728425212430849      5.5329367066965371
    73   1      3.8768087992519922      30.860825571544989    0.045551565080791091
    74   1      5.5097812204952241      28.664470042606492       2.848951773788567
    75   1      5.6220163143717246      30.659641630022044      1.5694972148061974
    76   1      3.7050222200990826      32.549605194531729      4.1497057615944417
    77   1      4.1769622579054477      34.551098068577296      54.250944482317166
    78   1      5.7201788503584146      32.626063936567576      2.9772057774817973
    79   1      5.8666234904313859      36.559473063328326      2.8176861826802013
    80   1      3.6480470403769734      36.502934628589315      4.0031936727741915
    81   1      7.7324472114364289      36.810222701051188      53.271457809896198
    82   1      9.3155938662607998     0.33998820344347636      1.5871619243152189
    83   1      11.230004560141701      2.0661445535945346      4.1200244788506799
    84   1       9.381682464335988      2.1645237521995542      2.7914983838394507
    85   1      5.4393970133939122      3.9053088303633916      1.3529218404525956
    86   1      9.6325771178698734      3.9837205491951106      1.2769371189493433
    87   1       9.596186665852585      6.0484885780554825      2.6354602629585679
    88   1      7.4931327088145583      3.8819599612802054      5.7609848331772104
    89   1      7.6811289180860234      7.6681203975573808     0.13448152719288373
    90   1      9.7444316830112321      7.8329188918433772      1.3739111927510315
    91   1      9.6987916165928123      9.5470392823758452      2.8132954041247888
    92   1      7.6797992627282632      9.7409110133203374       3.907074393835988
    93   1      7.6047630734144258      11.526282528789498    0.022803835311492555
    94   1       9.649769357798105       11.57049325787103      1.5425222748220673
    95   1      9.5128168970797748      15.507747913623232      1.2550798951942759
    96   1      7.5978594220394218      13.303276773383701      4.1589938275822664
    97   1      7.6666423563582899      15.353819799064405      54.174524023602146
    98   1      11.336001272016437      15.489776855481281       54.26589278710393
    99   1      9.2182911139650692      17.477934199007525      2.6495463480897365
   100   1       7.423560948655676      17.303569585867834      3.9571984201160122
   101   1      7.7611792771927988      19.374005910467023      54.114512334181804
   102   1      9.5766596059370706       19.29270314424156      1.2609124745245472
   103   1       9.489848813116085      21.052269269078227       2.727418649127491
   104   1      7.5821780919584265      23.210680784243397      5.3192279613465665
   105   1      7.8240840980970585      22.987561477119705      54.098097613942294
   106   1      9.6637583179850726      22.886354160721485      1.4106288515496224
   107   1      9.5809378833489287      24.951577130932794      2.7084749776977004
   108   1      7.5386475378633833        24.8978055486931       3.907082352572457
   109   1      7.8602035621294828      26.865065673346951      54.240402053175053
   110   1      10.001098738339193      26.979875492790597      1.4464972356547285
   111   1      9.7451002788720107       32.81474236757078      2.8790281352341451
   112   1      9.7058223937138042      28.921654430621537      2.6970234443305778
   113   1      9.5096411883181933      31.003679165930201       1.409540912051694
   114   1      11.488486179296849      32.761203713592259      4.2292715334363464
   115   1      9.6836323714296935      34.665236388319961      1.4614663715865059
   116   1      7.5463868576967625      32.552268076761301      4.3432329896857143
   117   1      5.7551994501722143      34.379143713051029      1.4613855696641842
   118   1      7.7623391084942543      34.813425858714965     0.15431080148395018
   119   1      9.6660552870667455      36.562401177082414      2.6424046594839092
   120   1      7.8109763638508447      36.561392904893005      4.0913815674455902
   121   1      11.423718380866061     0.24369139502440401    0.099041146952618078
   122   1      13.310688531618192      38.143016343099809      1.6900567910620912
   123   1      13.333915267006921      1.7797991492655432      2.8149490974574189
   124   1      11.460534926844558      38.382747546071997      5.3311488766422945
   125   1      11.536836385732961      4.0032972516313485      54.292663923129197
   126   1      13.482712312172046      3.8203493781190692       1.589926254311913
   127   1      13.560895848550292      5.7525617884348383      2.9963444912327848
   128   1      11.571225755549529      5.8722407640522611      4.1411742858534479
   129   1      11.470916711685542       7.718906471910393      54.235994101296548
   130   1      13.459175309707987       7.515187948279495       1.421208897412191
   131   1      13.369329037219245      9.3425204305652763      2.9791143639060138
   132   1      11.489485329990195       9.515821451420571      4.2322789868154373
   133   1      11.540417428590215      11.523693113317925    0.055135543116853009
   134   1      13.252056594571874      11.378094773576478      1.5691245114927117
   135   1      13.485301167312189      13.580623017718219      2.5731520117505955
   136   1      9.3927442226093714      13.614797046962236      2.8368037138955491
   137   1      13.417223300520842      15.522039741795544      1.2834227943271561
   138   1      15.459348404362121      17.407137977065531      53.095057723020332
   139   1      13.206428280775256       17.30381499573263      2.7138255891209035
   140   1      11.172835050331285      17.150310170963248      3.7671836800415459
   141   1      11.292330925687656      19.408462894640181      53.896422472864181
   142   1      13.119637276653069      19.206540928415698      1.0715055719818098
   143   1      13.347465010202614      21.276172053060165      2.4285711435787993
   144   1      11.533360569192279      21.047328936287464       3.874140096418639
   145   1      11.497657803120784      23.222939214201187      54.179197430467987
   146   1      13.378803548676016      23.299523296889429      1.2220577119154636
   147   1      13.246492126608127      26.872283873269982      1.3846157432274955
   148   1      13.289854324091481      25.110029309328667      2.7560626676087305
   149   1      11.602373220571684      26.756282436566135      54.229430045858216
   150   1      13.393068553157917      29.018376145373747      2.6977529278731831
   151   1      15.332454031769769      28.772764853692625      4.4344423598838496
   152   1      11.526346936645046      28.976436725757242      3.9888802144893587
   153   1      11.650514004719241      30.908922491893399     0.21656752109852262
   154   1      15.334433846128567      30.753855090358357    0.002187641550312946
   155   1      13.466369108178368      30.943907700858343      1.4895682127770198
   156   1      11.506519770884122      30.778972285440513      5.4938280874691729
   157   1      11.567753484554938      34.646371720966407     0.18136634652103115
   158   1      13.510739220239653       34.64607273541295      1.6147262213338862
   159   1      13.632508401775057      36.317564947221292      3.2031212111160712
   160   1      11.578242767358395      36.668821957712105      4.1228819071326921
   161   1      15.290480615921522      38.182148051339283      54.272778650635452
   162   1      17.012002776789558    0.083117920568842735      1.3570784028179774
   163   1      17.119090830714505      1.9173104577239966      2.9007616096225548
   164   1      15.203425755571967      1.7099855754195741      4.3144758074849392
   165   1      15.213335294079254      3.6875221784106782       54.20966461085753
   166   1      16.850936339635641      3.8023019344633338      1.5565870783810309
   167   1      17.216873926654642       5.863176192124909      2.9510497490152967
   168   1      15.326636840647605      5.7759785815575739      4.2777570333751544
   169   1      15.319769489639386      7.6794563573165533      54.186422857523389
   170   1      17.182553425927921      7.7291689705476125      1.4137021787807955
   171   1      17.142970593971302      9.8560647712760243      2.8596453560156077
   172   1      15.131837604162239      11.669016791595821      5.1812658750634677
   173   1      15.408325987259273       11.54569686575573     0.07353500896618935
   174   1      17.236419306104512      15.641534250391519      1.6005907615299269
   175   1      17.488700553018543      13.558294559212699      2.6754395641872519
   176   1      15.304738450647612      13.585033590862203      3.8249840415124936
   177   1      13.379630993148247      17.581137651091975      51.556709289201457
   178   1      15.535201131087117      15.531715717682186      0.1290126585467079
   179   1      17.390925867974136      17.601802236745232       2.846540548469648
   180   1      14.920172342960878      17.231429130106136      4.1369602600404507
   181   1      15.123447123749356      19.278160731774587    0.073477196344129123
   182   1      17.271150975575051      21.216802489777503      2.5196076610741089
   183   1      19.044550113773735      21.168802646468293      3.8794313759902499
   184   1      15.211932428653746      21.180722453900032      3.7377621707632303
   185   1      15.264643869576833      23.170204289659754      54.238893244439524
   186   1      17.367889431535531      23.188900269880016      1.2691324799070449
   187   1      17.197002379620301      24.986816353364695      2.7309990817144896
   188   1      15.127493705349096      24.772640331108221      4.0112997429544164
   189   1       15.51623775208769      26.874662699471884      54.195385924731063
   190   1      19.200120210138142      26.902279949533121       54.29585396157448
   191   1      17.135683475951279      26.909410610147884       1.416600891855772
   192   1      16.992323226640771      28.892534021687414      2.7916114459234995
   193   1      16.985300908789657      30.669805805857425       1.530396131037832
   194   1      15.292075131830691      32.856652481723096      4.2634908889406358
   195   1      13.290679523461932      32.759955029735401      2.8708028583626497
   196   1      15.545538585844254      34.378526723294051     0.22946736290568864
   197   1      17.159606670830367      32.748850920684269      2.6803065780045241
   198   1      17.421733413596545      34.445016945541212      1.3281912866471861
   199   1      17.413594869850016      36.469105749964932       2.660642272918722
   200   1      18.971714225831668       2.000718116093827      52.993215812749021
   201   1      21.075675503545398    0.074570458724031188      1.4775322714630659
   202   1      21.017787652611762      2.1197115276707605      2.6801616352003657
   203   1      19.099789812365369      2.1652897238824305      3.9582332068283455
   204   1      20.983248912536123       3.795244234219036      1.0889916903708583
   205   1      22.997542010323343      3.9800704622988659      54.188840328350416
   206   1      21.226056120922305      5.7480319620918223       2.816463153384245
   207   1      19.273064136879668      5.9310778920819285      4.1865538420207811
   208   1      19.174438624844445      7.8781108797291939    0.039128121771102517
   209   1      20.900753023240007      7.7438437490817478      1.5651222174504396
   210   1      21.040411064127191        9.75542023475262      2.6603251063924316
   211   1      19.235039891661131      9.8911230794742657      4.1695682953023585
   212   1      17.304824918178916      11.651447493429455        1.56656318201044
   213   1      21.347882976136216      13.370332243402572      2.7251697826226526
   214   1      22.996164494033025      13.531209344115284      4.2716762704881388
   215   1      19.144206160177063      15.561034512540578       5.741387607716649
   216   1      19.208407471900525      13.605237965400685      53.087096916394252
   217   1      21.172436269499983      15.298478389609842      1.5499266829705463
   218   1      21.162839025189371      19.205568848779311      1.3971666461772185
   219   1      17.347642264081472      19.253302827164951      1.2606578291941568
   220   1       19.31491932674361      19.216991209579259      54.131095173650728
   221   1      21.000788876983172      21.313153713417769      2.6498377208146291
   222   1      19.059963525034242      19.399044459241065       5.329348661889834
   223   1      19.209231255312801      22.972071619277695      54.115630901330704
   224   1      21.037300513768614      23.069030608624999      1.2562993448765178
   225   1      21.117215098383291      25.036579090177831      2.7169494631294575
   226   1      19.162185020107721      24.905524236794236      4.1491379250039007
   227   1      21.145435850899069      26.933528276553268      1.2727608230392433
   228   1      22.937953187255403        27.1009233727588    0.049410927200233316
   229   1      20.661664375915493      28.999345003678123      2.6096109149078321
   230   1      18.863503536194635      28.750913237429756      4.2721427453417986
   231   1      19.047120585094614      30.830742644036889     0.27438949272234348
   232   1      21.183342373041778      30.899659328759459      1.3302283724155242
   233   1      20.838869661813995      32.813437201029075      2.5551879363584811
   234   1      18.994610557839604       32.71815872897114      4.1060750531203434
   235   1      19.333432859839721      34.556712717358309      0.1755409664143146
   236   1      21.196422723676253      34.669230623589513       1.496244920294294
   237   1      20.996396632535827       36.57281795917428       2.859956784951962
   238   1      19.051973642919453      36.619670807363413      4.2205815018658877
   239   1      22.956836976603164     0.14718431168017021    0.070762655865121121
   240   1      24.888943379636313      38.329883200350963      1.4266512516598833
   241   1      24.822450261872437      3.8696846817383146       1.028275499437221
   242   1        24.8924908152283       2.010504237573191      2.5982154475127257
   243   1      21.019548816000686      5.7334653329689305      51.744160069419827
   244   1      24.737571730117413      5.5285159829862787      2.7045346833274388
   245   1      22.866983068344027      5.8773411018284207      4.3281978957735427
   246   1      23.021239533676212      7.7844106531021442      5.6022345103718409
   247   1      24.815808954127451      7.5158966054842988      1.5405314410403761
   248   1       26.85267719546431      5.6885972423136986      3.8570504628371416
   249   1      25.086109171999926      11.147200979666184      1.1435500692916865
   250   1      22.697335335469734      9.5650064354483035      4.2898958989481484
   251   1      23.360300649631185      9.6872877255151426       52.76777740486353
   252   1      21.313352161979672      11.544809204078332      1.1291167858972269
   253   1      23.164777254468227      11.677590295763768      54.078909173779103
   254   1      24.781756334659473       13.06334408040205      2.8764004996156118
   255   1      22.789912117278053      17.373067720194705      53.081535629946401
   256   1      23.117551309179522      15.506585679403919    0.021189558330809172
   257   1      24.974102461695797      17.260081820851653      2.9534730316278823
   258   1      22.980187357987081      17.471341894251601      4.3568186518153187
   259   1      23.038293768978527       19.33119489456994    0.012164409680985958
   260   1      24.939969465114981      19.242110516880551      1.2808657950327185
   261   1      24.730083773488641      21.079136989845953      2.8705177865502827
   262   1      22.722594502083712      21.262409278718454      4.2832416137910503
   263   1      23.048568876444925      23.193641825283628      54.118160587368898
   264   1      24.730226689502995      23.216873744080999       1.283737647744829
   265   1      24.792949522531551      25.047671545852264      2.6424972498819304
   266   1      22.932985664231445      25.195240288569533      4.0627726312331758
   267   1      24.919286186326289      27.195293573918004       1.372418710061367
   268   1      24.843835986133559      28.942942324447387      2.9103976635796829
   269   1      24.744017558611297      30.701155966837177      1.2219888320259309
   270   1      22.576431043732491      28.725696188431694      3.9423488342471482
   271   1      23.071506728524408      30.868410269907088      54.172555534737896
   272   1      26.872797928413476      30.791441321635162     0.31463201172609834
   273   1      24.824417368645932       32.54557933136401      2.7226758677355853
   274   1      22.739629321572217      32.611812701160716      4.1037803308862637
   275   1      23.052546710553578      34.745623656847677     0.13474451153474529
   276   1       24.85066383229665      36.449181159820291      2.9570111817286153
   277   1      27.071276811736332      36.367912168890577      4.0729682309017807
   278   1      22.843069642040284      36.287629344495635      4.2892992176828439
   279   1      26.689950184083145     0.21943541355535998      54.290450902443361
   280   1      28.898992048974133      1.9656195088931925      2.7214605176970275
   281   1      26.782074560703325      1.9013801927788556      4.0784883197036503
   282   1       26.84617694344681      38.327299812142272      5.4542411710524794
   283   1      26.921318139045191      3.8926294541205047      54.167386939965418
   284   1      28.994302782068413      3.8400166605194124      1.2499742860210061
   285   1      28.808969625706673      5.8228208522033142      2.5984108912150767
   286   1      27.006276181893028      7.7305797918281378      5.5454886185871057
   287   1      26.769196010153852      7.8126880974479151      54.297746933320987
   288   1      28.622014308768669      7.8197020812247349      1.3113912046485914
   289   1      28.762730009531214      9.6102558701884337      2.9030155657231962
   290   1       24.58548416405716      9.4734495434219905      2.8525610660450194
   291   1      26.635821123445993      13.562810405964802      52.820394146668299
   292   1      26.786407577336565      11.499253044500165      53.889323201965382
   293   1      28.566976321624079      13.557801120479269      2.5647597072959467
   294   1      26.641802329341981      13.491011700377287      4.1292768409227394
   295   1      24.971511090201719      15.442438282582362      1.4627939120477675
   296   1      28.864769504838474      15.472033213743396      1.2906681174119639
   297   1      29.030988089255892      17.508024303085321      2.5527948143298298
   298   1      27.006877250637888      17.518762516710929      4.1445216744722986
   299   1      26.937054453072964      19.166202710225253     0.10840837361384979
   300   1      28.896537248909954      19.346678724009735        1.25315769874493
   301   1      28.841418151358027      21.324599742223132      2.6678753295373094
   302   1      26.789357232127276      21.002255717933579      3.8913859296814644
   303   1      26.815162745402169      23.238538905927886      54.142877356358227
   304   1      28.755733043979991       23.24620960694919      1.3329689203317028
   305   1      28.800696195409596      25.251216692713253      2.7307661383385593
   306   1      26.688549226685698      24.982750812751071      4.0875388611255854
   307   1      26.807222774690217      27.204137463519977    0.036063130162312974
   308   1      28.728607966430026      26.831529391612712      1.1093104670032294
   309   1       28.79779066307195      28.519061950433517      2.7857172693950272
   310   1      26.786220197539453      28.335346555358679      4.1257507283305808
   311   1      26.958198176444242      32.591402568121744      53.103462824493391
   312   1      28.814443041414702      30.581416364942786      1.6793502606813966
   313   1      28.774496886547947       32.60088315426384      2.8668628532127647
   314   1      26.930627475381968      32.334793086653846      4.3308850341794507
   315   1      24.989513437889396      34.495588088633873      1.4361117148674891
   316   1      29.093796415011663      34.587542844654443      1.5182051207249951
   317   1      28.980951085401092      36.753596242911286      2.5772129280171505
   318   1       28.82849221037787     0.23030842915747926      1.0576410966227647
   319   1      30.853165614609374      38.329590173571866       54.19674810674438
   320   1      32.611984930149724      2.0364661514366937      2.8974948023330622
   321   1      30.675244130248974      2.0539878854934637      4.2381964493464563
   322   1      30.936883029931451      3.7833583327874609      54.221793477632033
   323   1      32.645654122363418      3.7901196405141153       1.315421650566442
   324   1      32.834811802772165      5.7461010977950515      2.6509433885071312
   325   1      30.889339668628832      5.9283720832075897      4.1195356746422034
   326   1      30.570313200550579      7.7774153253789118     0.04285494927064519
   327   1      32.640180142792509      7.6892180319635308      1.2908313773273561
   328   1      32.724415732838303      9.8452378066274324      2.7665030221117712
   329   1      30.836383514320126      9.9240655700856006      4.0988986036839723
   330   1      28.785525403915283        11.6002131535475      1.3530913341099795
   331   1      30.633048177484891      11.650341408824175     0.10174404279136987
   332   1      32.560598791314256      11.851717007374061      1.5462504969945836
   333   1      32.411015239194249      13.753828441759959      2.8527326202964676
   334   1      30.764644710841669      15.488703389771603       54.26442120592754
   335   1      32.698390843082002      15.574127996877662      1.3859420749647733
   336   1      32.784056147504764      17.485649722636527      2.8222665879607338
   337   1      30.837944150873799      17.552264668628425      4.0383019846910555
   338   1       30.82474221872646      19.083461581719178      54.056209809463937
   339   1       32.58191314522179      19.389990761173767      1.1881122665432233
   340   1      32.457695032929259      21.303094504703147      2.8326300706630261
   341   1      30.703732870571425      21.331380945200888      4.2665522289500819
   342   1      30.767462994434506      23.125863051428144    0.011385134188458311
   343   1      32.599242424309963      23.119666423384889      1.2997018192954788
   344   1      32.525524709037406      25.303576079427202      2.7682452136806539
   345   1      30.554786976157832      25.032948081877684       4.172054918312381
   346   1      30.827458111310815      26.914999799295394      54.196745078736541
   347   1      32.712729313248033      27.045020345443088      1.3157717076056095
   348   1      32.644468234543517      28.862481642394176      2.6924308293278414
   349   1      30.732377047732349      28.887161762142444      4.2789982759306779
   350   1      30.596015191324149      30.616512336185494       0.271252275191671
   351   1      32.557533313038064      30.879979578911556      1.3061507880515912
   352   1      32.723741065771108      32.890633338789257      2.5392302122658421
   353   1      31.055268212162694      32.687812286774893      4.1197462004668735
   354   1      30.725015657504578      34.699815844653898      54.209238434172079
   355   1      32.649863361004932      34.805825823230705      1.2513607847444299
   356   1      32.518745761934447      36.513069416791765      2.7776998719919805
   357   1      30.787009230331684        36.4523091815377      4.1852019410197405
   358   1      32.601440495582885    0.080353065634745022      1.3939415440691185
   359   1      34.585732674158692    0.065759535484655213       54.11789142621425