dump/Si_1000_0/steps_1 (written by ASE) 

4000 	 atoms 
1  atom types
0.0      38.395898218429522  xlo xhi
0.0      38.395898217999999  ylo yhi
0.0      54.299999999999997  zlo zhi


Atoms 

     1   1      38.216949941469665    0.087047212329686388      54.141872279929188
     2   1      1.6314404666853473     0.10875567738613967      1.1185749685527093
     3   1       1.722478870491255      2.0729562106055557       2.598867166740169
     4   1      38.268721017389232      2.0564742381925916      3.9625818503195664
     5   1      38.245025488989072      3.7783249608790332        54.2523306025126
     6   1        1.76864128498243       4.043699565792358      1.3430948647142242
     7   1      1.6448963154597072      5.7386037835790269      2.9337614745224858
     8   1      38.023836422636684      5.8222964962462402      4.3008038142007674
     9   1       38.33917820055143      7.4471942346298903      54.192583761788491
    10   1      1.7873629271984923      7.6118425833393877      1.3249019056492923
    11   1      1.8457724577540719       9.471497799590237       2.399589029340357
    12   1      37.997792347005202      9.5423315299121807      3.9264352913921785
    13   1      38.273490979749724      11.640465071819255      54.188319912107069
    14   1      2.0155838673856636      11.506846261715875      1.1675715803251607
    15   1      1.8687695468493797      13.417418346507052      2.5916341846629165
    16   1      38.307876050914643      13.150816200885091      4.0043585468851335
    17   1      38.386227918189675      15.450980319112704      54.198368558167346
    18   1      1.7897608909254596      15.375868335256092      1.3434053291258581
    19   1      1.8803251121229645      17.357018796709237      2.5156530534221351
    20   1      38.319716492557241       17.54133318152827      4.0340877244571383
    21   1     0.16115665689616743      19.198298705713757      54.163192234420229
    22   1      1.9380066927341622      19.317500033389916      1.4566848930507699
    23   1      2.0170737474552349      21.353145327110695      2.7341160572945999
    24   1      38.235668723291404      21.452080966554171      4.1639173682252704
    25   1    0.083069520026877952      23.219238653174113     0.10763733850982367
    26   1      2.0741043756764013      23.248072615760407      1.4128618278053156
    27   1      1.7137880336801468       25.23684921289351      2.5956341976663198
    28   1      38.126003391811658      25.138438305260436      3.9927295249862804
    29   1      38.385246199577956      26.857392615870005      54.007242513322396
    30   1      1.8393875864647289      26.994390933279931      1.1605066168634823
    31   1       1.893216403319061      28.798522230378033      2.5595484037472032
    32   1      38.195044164787667      29.136871769085282      3.9018493162279726
    33   1      38.342836356315374      30.778858417087012      54.218000209633544
    34   1      1.8670881837373299      30.650305647488789      1.4467402679084098
    35   1      1.8763860318731016      32.547450696074982      2.4955221706866264
    36   1    0.084225715930848974      32.757163727138625      4.0033138885359643
    37   1      38.275630638656516      34.762897418502874      54.229106591799791
    38   1       2.064069307996419      34.852357480757199       1.245550969571811
    39   1      1.6479823528850419      36.697237392348761      2.4993301118116382
    40   1    0.036623880694482878      36.522236273061807      4.0457560818267337
    41   1      3.7361305046298106     0.35980231209157953      54.174240779006197
    42   1      5.4955743052894155     0.25008752349134294      1.4211001232789706
    43   1      5.5527416530049551      1.9149338536328431       2.880525913766065
    44   1      3.5238634598534531      1.8564099299423829      4.1547962422106171
    45   1      3.4539653142692992      3.8918143438422312      54.294765152430763
    46   1      5.4067910342066039      3.9056372068934424      1.4479567975149512
    47   1        5.79748587430083      5.6576605348234592      3.0071220097664977
    48   1      3.7284739219836105      5.6818260024554696      3.8786436848707213
    49   1       3.605506452093469      7.6640054204035337      54.224280923748132
    50   1      5.6162456740341735       7.524591705094168       1.369284672868309
    51   1      5.7845366794549156      9.4851475029745949      2.5049464316040737
    52   1      3.8399488132134056      9.5446450219892895      3.7751733150050417
    53   1      3.8585553663123404       11.38358280841614      54.131164493096449
    54   1      5.5599382133098754      11.501084380889139      1.2688211262589766
    55   1      5.7559754911820615      13.425397656569663      2.7462281939258775
    56   1      3.7774239941276617      13.311190812393003      3.9488679756771843
    57   1      3.7051615575976946       15.21975161754059    0.049907585645325964
    58   1      5.7893924065303413      15.370308825247843      1.5122227698986874
    59   1      5.7942402214454978      17.144057720536352      3.0955290686307975
    60   1      3.4438133580305217      17.247071152177668      4.2309869145464756
    61   1      3.6403370127291059      19.016779903039264      54.267174757139436
    62   1      5.7953045700678931      19.078706266320157      1.5441529626991823
    63   1      6.1577960422399585      21.172863246054387      2.5857859916611692
    64   1      4.0973991849731455      21.304618405391892      3.9586039778329352
    65   1      3.7573146773989041      23.008213371417149      54.189703446270734
    66   1       5.702888262424235       22.99917904981654      1.0796653965316887
    67   1       5.599429100424735      24.856373213697196      2.5481090234200128
    68   1      3.5210450525490828      25.203097004876902      3.9530706660035446
    69   1      3.8007034601681098      26.674744401722343      54.151611867001435
    70   1        5.66891369374137      26.735922399377756      1.3038684070843367
    71   1      5.7767133032768498       28.67316269052278      2.6811827064000022
    72   1      3.8688974282535433      28.905460439878482      4.0124633316579423
    73   1      4.0328634874714409      30.408066631317119     0.14567093216253421
    74   1      5.8902903776604791      30.724190876853921      1.5963285554895243
    75   1      5.7020490277815563      32.837002117220834      2.6210744731284761
    76   1      3.9011475098854036      32.698892457550578      4.0078614153722238
    77   1      3.8654844681367129      34.651801162159188      54.283345566750576
    78   1      5.7552676594061269        34.7782046122746       1.363032975172952
    79   1      5.6508709838751123      36.597916143585799      2.8004732186759358
    80   1      3.6361935442779507      36.497024339128167      3.8886922875859105
    81   1      7.5557788353061932      38.329644056836955     0.12948292447071039
    82   1      9.4145742618543142     0.16649657729914025      1.6366734608447695
    83   1      9.4612807527747016      1.9817160448667579      3.1274534705111265
    84   1      7.5737122389682421      1.6117102931490155      4.2556009390680059
    85   1      7.5515524921407629      3.7825983104415712     0.33981195621536231
    86   1      9.5141874322742996      3.6942800332755943       1.397594872752427
    87   1       9.890304262242827      5.8251837785289498      2.6647277363098838
    88   1      8.0006409891792227      5.5291838614021849      3.9774579807182837
    89   1      7.6339322543974424      7.5576834159663466    0.016174104328797519
    90   1      9.4097447067107947       7.893549914410646      1.4046737058282688
    91   1      9.6448595699613513      9.6693211020568821      2.7952702306249626
    92   1      7.5925128247300844      9.9549093330588612       4.039176448533806
    93   1      7.6802602514914593      11.492869451899502    0.023392934152138875
    94   1      9.6031534821336422       11.67688459729481      1.3729905084913512
    95   1      9.3878414206788037      13.802990342047634      2.6959916217582212
    96   1      7.6330936332096009      13.773435178231853      4.1439578582122323
    97   1      7.6249733421544672      15.401741429180253      54.119681798584651
    98   1      9.4470461886676524      15.363273454880648      1.3006288184746626
    99   1      9.4996481852177741      17.416742655814495       2.604561066164274
   100   1       7.726167918217115      17.425780460300047      4.2583558207670746
   101   1      7.4824447761985802      19.274266596045582    0.094309830060956321
   102   1      9.6768227676738512      19.325901276858843      1.4094628796408435
   103   1      9.5928668439239111       21.21148242658192      2.7749241664693054
   104   1      7.7351957581733393      21.259171334412983      4.1569245088389506
   105   1       7.820988077594957      23.241819167487236      54.164292933156602
   106   1      9.7275855242957316      23.211275606448488      1.2251475532156844
   107   1      9.6058983815781858      25.005047805823377      2.6722957787101471
   108   1        7.59978503540344      25.175467294740724      3.8503910857199108
   109   1      7.5192754428919679      26.664561504365455      54.279887492956256
   110   1      9.4782905612012911      26.855612562139036      1.4005216997254801
   111   1      9.3596349339479072      29.014467813854356      2.5680304908516396
   112   1      7.6441008277608491      28.838993735079853      4.0815219580116153
   113   1      7.5252264937078461      30.414963477165262      54.107790849256702
   114   1      9.2737353624328751      30.756496643385635      1.2547983057986611
   115   1      9.4190279101528152      32.477155957272018      2.7808032523070647
   116   1       7.591507405929006      32.784740355118373      4.3235104889681244
   117   1        7.68687157726343      34.448938407581181      54.251870871559966
   118   1      9.4621280218618296      34.580806742031868      1.4159005628082602
   119   1      9.3715072588671653      36.394985052670663      2.6652801283683272
   120   1       7.533842783767736      36.315707754371132      4.3621878529025029
   121   1      11.280315724703511     0.20718810250170269     0.17530182497746427
   122   1      13.376371786256364     0.10664027751826857      1.5811557999150498
   123   1      13.326530545450192      2.1271637764262614      2.7408168674355577
   124   1      11.455485223547075       1.829024733540495        4.15636539889333
   125   1      11.362209566278851      4.0043268732421993     0.11396933451823109
   126   1      13.353589185140272      3.8796132494066939      1.4735511463445266
   127   1      13.646277610967436        5.81156156994874      2.6881963887703693
   128   1      11.665945401081292      5.7190010736532217      3.9557026127903008
   129   1      11.474183992181228      7.6167536329630181     0.25336388917413588
   130   1      13.419013815809924      7.7559666898683677      1.4469597086728054
   131   1      13.541564006180131      9.7292650665206466       2.663070945737025
   132   1      11.691612987014519      9.4682406137871737      4.1533657976458001
   133   1      11.379637727086067      11.466028806252629      54.052874945696558
   134   1      13.218452132884515      11.696789769299045      1.1867679793019776
   135   1      13.193431532182508      13.449058859846991      2.7143151619168839
   136   1      11.306425276018043      13.437241506512658      4.3034395835102943
   137   1      11.234396684631506      15.472398919836788    0.042397051757006927
   138   1      13.192769366671866      15.267756968821985      1.4029463789432479
   139   1      13.292087881699588      17.071862686420648      2.7221315455249488
   140   1      11.450543764645611      17.478110967702253      4.0505454692935903
   141   1      11.602135743073267      19.118427437134208      54.194227532666538
   142   1      13.545064131214199      18.959418585431678      1.2911595479631635
   143   1       13.55717130455775      20.834209498356746      2.7886450517564731
   144   1      11.632894008181863      21.128926661005174      3.9434593345576792
   145   1      11.705804047055905      23.044689671415608    0.070733558601728183
   146   1       13.58305244521441      22.919688231919611      1.4922608620437492
   147   1      13.357715980165647       24.89658044916694       2.704229189955389
   148   1       11.44628352602613      25.141082719323709      4.1910876842535325
   149   1        11.3266725066352      26.865667733844418      54.256304384738812
   150   1      13.235653395434728      26.650184926023201      1.3336170906817735
   151   1       13.30956446190697      28.720379975370712       2.491059608278023
   152   1      11.501487044736656      28.986590158336632       3.849126749327243
   153   1      11.186880999472761      30.605311675444653       54.08008175119204
   154   1       13.15924623312347      30.385369436935893      1.1485434810727164
   155   1       13.41850607465962      32.577945444556988      2.4453476964682528
   156   1      11.535525653481784       32.77908700840424      3.9404159011543216
   157   1      11.302335066754624      34.595672026762742    0.033534333715522294
   158   1       13.23094446651324      34.823233617778378      1.4541143508708727
   159   1      13.393782497796522      36.632329159533839       2.844906251859856
   160   1      11.459602891724728      36.434498911747816      4.1079261470644068
   161   1      15.082638400134719      38.372881540575527     0.17629287078614175
   162   1      17.215406971317321     0.17585173347434296      1.3639341222263863
   163   1      17.024178030548249      1.9250823041439429      2.7474751227226997
   164   1       15.01449085548186      2.0419234850644523      4.2419719087908003
   165   1      15.078813978139587      3.7729042086393689    0.084004866614043439
   166   1      17.167743952768149      3.8140181011094412      1.1942310091561801
   167   1      17.294709970209624      5.6712749094224382      2.6082336560811319
   168   1      15.409344272465757       5.538600061892061      4.1702311261578648
   169   1      15.189330733337929       7.696150724320697      54.122882848368256
   170   1      17.112965400249479      7.4749952672854452      1.3911373312121074
   171   1      17.312406288530191      9.3172957292574345      2.6738605819506023
   172   1      15.303668495261949      9.4686741635889859      4.1352964090112909
   173   1      15.058672672339227      11.549451818039511      54.183338022206136
   174   1      17.168641740484027      11.299924214382244      1.2660750525058122
   175   1      17.492878488731108      13.327357053933365      2.4841141240541891
   176   1      15.306339377429795      13.305116706360108      3.9990791548381455
   177   1      15.197899490520589      15.379545415230909      54.117728470751594
   178   1      17.102082903034084      15.375974929379275      1.4931955997676951
   179   1      17.050070737803303      17.343804348495908      2.6521645175515909
   180   1      15.175191201827998      17.501509484871896      3.9578225817428794
   181   1      15.380936011626682       19.19088002544823      54.217023611098881
   182   1      17.148632316415878      19.273104731620776      1.3362015817026291
   183   1       17.21857139940386      21.357324857685381      2.8817541047113515
   184   1      15.398771619870521      21.000055238103112      4.1243891275359355
   185   1      15.583284726192348      22.932499401758804     0.13897536324957402
   186   1      17.389854114565427      23.203782245924909       1.477415219241643
   187   1       16.99657358936868      24.946725104338636      2.8944248813290629
   188   1      14.886911282453822      25.066786330137081      4.2378090724588873
   189   1      15.032554554050133      26.746182091093207   0.0080383541725837001
   190   1      16.907679160904674      26.917356747474326      1.4563711730996594
   191   1       17.12476258566199      28.676445578838361      2.7691860658372409
   192   1        15.2129720921481      28.943464183531983      4.0411506115213678
   193   1      15.418190158821103      30.521699344897023      54.186431207878115
   194   1      17.141082667236432      30.742953675178597      1.2472008889338462
   195   1      17.203619102931565      32.460618657286616      2.8207194758818557
   196   1      15.200770969382861      32.843106579713684      4.0429804499934923
   197   1      14.987441308093992      34.915313197766572     0.02739176448244509
   198   1      17.200252206702075      34.398956148038039       1.198503392326336
   199   1      17.309272443954768      36.526893783793042      2.5351108310988941
   200   1      15.521403581743728       36.74755756394417      4.2029210636832888
   201   1      19.148594044343973    0.030727683146784038     0.19951415642831308
   202   1      21.111779137848909    0.014011857405808653      1.4602310816641755
   203   1      21.105738423423016      1.7713309570008289      2.8365185157919539
   204   1      19.143010111904221      1.7618772874868387      4.0549857266450786
   205   1      19.255883931358465      4.0953447665121674     0.16325582537393743
   206   1      21.163728086752627        3.65098669944364      1.4403710393405831
   207   1      21.162797192689549      5.6336834375319933      2.7712273643915837
   208   1      19.094191522831402      5.5633164331790042      4.0642315026585489
   209   1      19.227022599957827      7.8826917245451424      54.259797094044707
   210   1      21.139251159650264      7.6419809449897063      1.2730500440845751
   211   1      21.049023350370135      9.6088716611788758      2.6351777095567757
   212   1      19.158785303899577      9.3562469311455274      4.1206723307811686
   213   1      19.105136813032523      11.596915980930225      54.038659219936363
   214   1      20.894275014102995      11.549937633303475      1.3008974312828845
   215   1      20.987075083018986      13.576844246671257      2.6232950490522193
   216   1      19.253426084714999      13.486914934114555       4.188964545605927
   217   1      19.044812255146493      15.230977795874894       54.23500579021956
   218   1      21.007511248398277      15.521039238058359      1.1931289863280679
   219   1      20.915262589795365      17.193672034375663      2.9326645411049763
   220   1      18.987205772983828       17.34822440173399      4.1302171005883901
   221   1      19.125556849166593      19.106889358283631    0.058058447839164473
   222   1      20.951978305976922      19.008228433317914       1.657458858536754
   223   1      21.088081286759369      21.092247905016254      2.9387736135248015
   224   1      18.946709529226968      21.144806229024365      4.1634307059797493
   225   1        19.2678804590468      23.005670787982829     0.26200025341082689
   226   1      21.053753213067459      23.173971218333893      1.7323200484167185
   227   1      20.804911655595923      25.125736122422573      3.2789310642941607
   228   1      18.836673702780907      24.926496877054607      4.4762348296300845
   229   1      18.778857243022411      26.809375041255375        54.1596589310371
   230   1      20.587861702362087      26.607619350441905      1.4239637855375558
   231   1      20.813671538397227      28.685505843709013      2.6458648609625692
   232   1      19.031415880448204      28.941234105757641      4.2746394706192303
   233   1      19.219110877589952      30.709759070433115      54.253381162362395
   234   1      21.135530622447323      30.713732418000564      1.4155402378810213
   235   1      21.078940434936275      32.710134014191794      2.4335192224446707
   236   1      19.202920077649221      32.650990876328898      3.8180912317689137
   237   1      18.887822109461901       34.54468446483159      54.056961089932521
   238   1      20.942918991822356      34.471548041278226      1.1497326073838596
   239   1      20.957511928470669      36.396187241406714      2.7445637953775099
   240   1      19.052963791738119      36.435251617932217      3.9237251471788883
   241   1      22.865450393250836      38.241322878953966    0.029050533150791556
   242   1      24.954206118188232     0.30548017121508619      1.2405344567371679
   243   1      24.998735652501679      2.0067987379281504      2.7308508821362136
   244   1      23.189385031605124      2.0886831099545895      4.2252627252655559
   245   1      23.208926042184007      3.9031324709425448     0.28340801582982095
   246   1      25.087480172427682      3.9249926239515287      1.5091281100429812
   247   1      24.999638161942041      5.9698525030443088      2.7832826424249215
   248   1      23.006930557328719       6.024617391254532      3.8915931938860564
   249   1      23.045508642614941      7.6405724913176796     0.20632671540479369
   250   1      25.071316115475369      7.8446280308616245      1.3830104957054805
   251   1      24.935673474526009      9.9248231570197483      2.6411412445702718
   252   1      23.068865854747219      9.7888766061306871       3.978100108676903
   253   1      22.538241159509546      11.306364916549681      54.055950050851187
   254   1      24.637134106158083      11.788123502071683     0.95629677778241651
   255   1      24.820285200866387      13.606363979453345      2.5517122367952552
   256   1      22.949235744433135      13.601069822983138       3.846376706116907
   257   1      23.005005981812857      15.178654886275334     0.16233650581637007
   258   1        25.0010318082895      15.679957576342904      1.2347946595999246
   259   1      25.097483414867298      17.467025731035115      2.6816890680586405
   260   1      23.141589009237755      17.465940839309745      4.0781217716399762
   261   1      22.942755691635391      19.090519434096244     0.21943343577087285
   262   1      24.814074016156155      19.273559923494005      1.4166576067046863
   263   1      24.687905960787415      21.203203421810358      3.0149837469205392
   264   1      22.919337482549881      21.132701930144066      4.2830273428431278
   265   1      22.999493406352013      23.194306938722121     0.39916340499429448
   266   1      24.926485403388892      23.198113310138993      1.7617315798607132
   267   1      24.909320384153489      25.178571833629338       2.934484869442576
   268   1      22.832364907284521      24.897905247294087      4.2640929517876973
   269   1      23.093423306987599      26.647608059801311       0.324779922207938
   270   1      25.274871146113583      26.918339399424749      1.3680186083390018
   271   1       25.02161437680661      28.795628235318365      2.8912858111237125
   272   1      22.874825398097126      28.788739921161593       3.947265275851386
   273   1      23.097326578333842      30.729939478829287    0.017300566053063467
   274   1      25.023432919010933       30.57606302632183      1.4295242029229605
   275   1      24.936177351193589      32.698400925679742      2.7893422681554627
   276   1      22.889430050211494      32.438485071980516      3.7997935854174085
   277   1      23.118631976257095      34.380005630703707     0.22458243829072433
   278   1         25.259750249103      34.593240325712166      1.3447849816769377
   279   1      25.090867436535991      36.571171945044966      2.6753121966305793
   280   1      23.183687354427391      36.621687546901846      3.8047180642317691
   281   1      26.857866655175503     0.30674920190220528      54.299426842797267
   282   1      28.740805095636276     0.13271307699568033      1.4067951179010609
   283   1      28.782464980063388       2.166092737144941      2.4533552572858626
   284   1      27.120303068337304      1.9876831402403334      4.1583704500623204
   285   1      26.804993047386041      4.0223959951691501    0.071375026769237793
   286   1      28.592558703010155      4.0505334503711223      1.4744744100182965
   287   1       28.81042385935941      6.0883887494004867      2.5711822249596961
   288   1      26.947159974787382      5.9430639794570137      4.1752432782411812
   289   1      27.010046405691419      7.8137196523258812      54.228858507600634
   290   1      28.832914955918763      7.9193402001753803      1.4333497928552552
   291   1      28.847218053163797      9.7199831636321292      2.6338902797158665
   292   1      26.839204833716821      9.8259158962144788      3.9902361810703963
   293   1      26.767372109469232      11.655609360803137      54.159569948257491
   294   1      28.823528212349103      11.374970994416916      1.1717809168370306
   295   1      28.468994438466559      13.258644877234286      2.6515539089218807
   296   1      26.724216009685755      13.358370198725073      4.1917922074193115
   297   1      26.957048575267223       15.51144557454656    0.044024727559292383
   298   1      28.813053835587112       15.44932661100432      1.3768636201563131
   299   1      28.845303186809812      17.538521534000029      2.8727642855236111
   300   1      26.738256257074848      17.084700516145411      4.0723462781059192
   301   1      26.697364282661283      19.216516933801998      54.080402026088834
   302   1      28.439930977127172      19.200337618653265      1.3473509191037933
   303   1      28.505849141305497        21.0545704708613      2.6999025959695242
   304   1      26.659362748812857       21.11851955912579      4.2306544373291342
   305   1      26.852645774053219      22.777982130529971     0.25633186085183302
   306   1      28.700778656026735      23.050268394845055      1.3807747473517464
   307   1      28.609246718733989      24.970933372140788      2.8768459621409774
   308   1      26.872951368996294      25.026242439945193      4.1647598796153833
   309   1      27.205363618755122      26.781931535562865     0.10440085835707574
   310   1      28.927101490758108      27.101588421724639       1.446191962412652
   311   1      28.774081571287397      28.898942669974506      2.8989735242605104
   312   1      26.895570597668598      28.883916163344619       4.239165491658607
   313   1      26.927608054633154      30.583331749587899    0.037949552241218501
   314   1      28.669127270598633      30.675136248154271      1.3259420340892327
   315   1      28.902884518558832      32.592763783369264      2.7092804467739242
   316   1      26.946634116071955      32.596098772709013      4.0887206395873248
   317   1      27.021479203495847      34.565504837186765      54.186135614539594
   318   1       28.87742524191632       34.66766751119885      1.4481655566513831
   319   1      28.661993007128167      36.621826738007819      3.0156514478098098
   320   1       26.79031956528452      36.471015034607007      4.3281042457218506
   321   1      30.579709581930022    0.072263498450870822      54.041401288514244
   322   1      32.329606990353994     0.21284588570667062      1.3751166974073517
   323   1      32.713703831797034      2.0600525181326992      2.5599962380265429
   324   1      30.868010061099383      2.1178557361295001       3.947540046440428
   325   1       30.57240223473249      3.6552658682760391      54.267896814652204
   326   1      32.510706343667636      4.1998935831277171      1.3961245323142069
   327   1      32.614358312206072      5.8624905716173981       2.873182098344321
   328   1      30.631598636284256      5.8350980649687338      4.1613846443052145
   329   1      30.623188997389452      7.7333383089742807      54.175723325725059
   330   1      32.581591845514303      7.6259581419758575      1.2384216142879054
   331   1        32.5799944731612      9.6141271710671514      2.6321961029697953
   332   1      30.856141883958344      9.8046707304864835      4.2067642827982823
   333   1      30.789443775293982      11.464349627231243      54.238821828014906
   334   1      32.925802440006017      11.650565888444524      1.4047933507608465
   335   1      32.480166217362012      13.604331061536033      2.6968375285662405
   336   1      30.556020491848429      13.607968361956388      3.9700534862068007
   337   1      30.650229721182431      15.326667531831625    0.080689139653293551
   338   1      32.575314699801687      15.296409811901036      1.3545736686530423
   339   1      32.925121823649846       17.31761675444141      2.6492289582542727
   340   1        31.0684571407966      17.799748855449309      4.0863885013017676
   341   1      30.510790406833863      19.056791030149828      54.254515181608646
   342   1      32.641932965886966      19.193311426157528      1.1900635489466684
   343   1      32.432327975584727      21.076435562802629       2.711767731254167
   344   1      30.488828167788736      21.157046338561742      4.0825131229691376
   345   1      30.642105443831845      22.765351672998872    0.073608455396686118
   346   1      32.625108027913868      23.043399141981052      1.4426523209667022
   347   1      32.326920917792798      24.942093442530084      2.8466583167817254
   348   1      30.487241589785242       24.75193432182607       4.148543787206175
   349   1      30.947629800740771      27.050484875497443      54.229233168613369
   350   1      32.590870756086289       26.89147261725569      1.5445252567113013
   351   1      32.432557203107116      28.904660610556512      2.8218957774291775
   352   1      30.664619710521112      28.681413300823884      4.0680282055803092
   353   1      30.724372893621105      30.886476160453551     0.18993108474078305
   354   1      32.547261933286826      30.906799028020576      1.5211333017946116
   355   1      32.609743059708016      32.855092362557002      2.8306853956033504
   356   1      30.752762309759714      32.616898080727964      4.1307788587854031
   357   1      30.600704627942058      34.896804812359903    0.071528162236927678
   358   1      32.461321838223853      34.828636837455974      1.5680159713630559
   359   1      32.560646113775825      36.675720452846569      2.7901463199463001