dump/Si_1000_0/steps_31 (written by ASE) 

4000 	 atoms 
1  atom types
0.0      38.395898218429522  xlo xhi
0.0      38.395898217999999  ylo yhi
0.0      54.299999999999997  zlo zhi


Atoms 

     1   1     0.13885332585668286     0.04198997753992631      54.199134514071233
     2   1      1.9686052914370309      38.323432313558776      1.3253145324056719
     3   1      1.9457742311502915      1.9175789337680178      2.7836751340640604
     4   1      38.320151627604879      1.7448040026733427      3.7828600290225243
     5   1      38.338564413954558      4.0452100977172405      54.216447863700559
     6   1      1.8748953459390709      3.8326449624989012      1.3869802510020695
     7   1      2.0060712973226833      5.7365688863513977      2.7584957012894753
     8   1     0.07174742983158168      5.7971576387818606      3.6700044045491924
     9   1      38.142939313124714      7.8605996206488733     0.29941941955323748
    10   1      2.0548904848038148      7.7882671796695693      1.4339337406150758
    11   1      1.9394733673339055      9.8088978094126453      2.6570449727361285
    12   1    0.062118659967142678       9.705185269507119      4.4581947782234135
    13   1      38.104465774832917      11.688822214442387     0.23927193564919641
    14   1        1.84536320242491      11.677060127071396      1.3744733174197772
    15   1      1.9904845622410505      13.359664255097217       2.832726398319652
    16   1    0.031239036468164696      13.667811531766635      3.9834267869738502
    17   1       38.27172682862318        15.3477378074678     0.20236097850646514
    18   1      2.0562075324368605      15.399686684381617      1.5066740211240568
    19   1      1.8758385415843684      17.495028464971398      2.7023100778504725
    20   1      38.310936017674209      17.398580164440318      3.9131116619569992
    21   1    0.027762589501073253      19.369194946341448     0.12455953629328156
    22   1      1.9549577432024896      19.442035838840013      1.4116021914057448
    23   1      2.0236367993859403      21.336831616748061      2.6928875235560805
    24   1     0.09898212535930867        21.1298828134485      4.2129221193865778
    25   1      38.211269976733533      23.071001062096428     0.41338283455129377
    26   1      1.8092026031182855      23.359746921498605      1.5887305549244055
    27   1       1.645682001193677      25.358542828179115      2.8476457908166477
    28   1      38.283578893163124      25.003491183803039      4.0323321971196719
    29   1      38.276432860053482        27.0866860336915      54.199904323805242
    30   1      1.8738031742869392        27.0833910433097      1.3512137596397549
    31   1      1.7768337482266476      28.862936358601512      2.8313025719881226
    32   1      38.346190280911983      28.785182380073405      4.3967563486338594
    33   1      38.215689194856601       30.61210764736019      0.1000624449986619
    34   1       1.744335904652498      30.859504050474811      1.1985466781728984
    35   1      1.7682069592127683        32.8558588725232      2.7118284018681047
    36   1      38.287710736495093       32.75580580877007      4.1003529284151998
    37   1      38.380477651488533      34.546858773214709      54.115987759042682
    38   1      1.9484764231919878      34.682178729572115      1.3836438308672223
    39   1         1.9003644827238      36.576422105637128      2.6020619299824594
    40   1       38.32557942452911      36.453815643867777       4.080469176916532
    41   1      3.7587423131855577      38.382563618835469      54.145248875336264
    42   1      5.5778408043275398        38.3508457519535      1.4103253376682006
    43   1      5.6896716146807629      1.9493501109269551      2.6828876202710599
    44   1      3.8913426040617742      1.7849694582166189      4.0015810198685955
    45   1      3.8578526154962147       3.673578477922939    0.042379655871707216
    46   1      5.7168456720322371      3.7182911933051677      1.3787943750310083
    47   1      5.6864547692176188      5.6984450537421871      2.5195718569118273
    48   1      3.8968572647915622      5.8409339109964229      4.2073614487458366
    49   1      3.8519094802279321      7.7975447198157104    0.048589602531183114
    50   1       5.717466518148413      7.7957991219052047      1.3383852027125844
    51   1      6.0164914637203655      9.7641730990927229      2.6917731320274578
    52   1      4.0129970629701903       9.695029189122895      3.9187377667146035
    53   1       3.729251052773273       11.66235147534522    0.033726148282789824
    54   1      5.7139103554304285      11.696847817202633      1.1958874083855018
    55   1      5.8894821324534163      13.422778038019219      2.5305984538563298
    56   1      3.9879845003488028      13.755633308765425      3.8796928708018208
    57   1       4.135112120117352      15.447675442965485     0.14369748938314611
    58   1      6.1232894641378683      15.442271234983725      1.4244807822165408
    59   1      5.7354559516415398      17.437660803578193      2.6099307681074846
    60   1      3.8182603218444218      17.433111216433765      4.2083092324685829
    61   1      3.7959472454519614      19.519629375479095    0.033880171999203408
    62   1      5.5754024584428548       19.36364051770331      1.3593670019954633
    63   1      5.6247783118186723       21.21368629543003      2.8748866812518608
    64   1      3.6319364210318588      21.234649710182524      4.2595854592896201
    65   1      3.7811578882519075      23.387383667063066     0.19599740740050053
    66   1      5.7813256082137165      23.253695735400687       1.694727604404999
    67   1      5.6158770879471573      25.332697061185783      2.8138502662576892
    68   1      3.6762515494562868      25.031717991609749      4.1231921353578738
    69   1      3.8090463010074078      27.191360305229299      54.159516575378959
    70   1      5.7355250046901318      27.157663093595623       1.295441214538722
    71   1      5.5684005502402991      29.020111412225397       2.504022652554919
    72   1      3.7746416047152009      28.924239434431016      4.0743912710645391
    73   1      3.6247272353497579      30.798505225955424      54.206835220077217
    74   1      5.4256905535100417      30.968717480354673      1.3982892231282116
    75   1      5.6529937012489517      32.651344152462208       2.974813538794181
    76   1      3.6502785563017244      32.800870700889455      4.0698559753714765
    77   1      3.7598680761441008      34.643866151445671      54.182929528524376
    78   1      5.7035467443030123      34.369024714885612      1.3661225111716238
    79   1      5.6317503133332822      36.508190437125229      2.7033897508040687
    80   1      3.7369872559368154      36.881699577882323      4.1207366381170436
    81   1      7.7012261388684697      38.284936455875275    0.062821012216909333
    82   1      9.4445507023985318     0.11145833138721266      1.4727785803498006
    83   1       9.593124760701226      2.1081528651478441      2.8653814267035149
    84   1      7.5025511503642281      1.9047798558723359      4.0238032417276397
    85   1       7.647031019908896      3.8383584337993564      54.126413831139253
    86   1       9.517580510217865      3.8439058889151259       1.220998466713265
    87   1      9.7262708964037099      5.7773776471563423      2.8528870447828911
    88   1      7.5378517842604333      5.9398991806156838      4.1993675742725696
    89   1      7.5580610957496885        7.67447542125353      54.192636622618984
    90   1      9.6555501690255614      7.5557045083322345      1.2598738494798889
    91   1      9.8478293109484145      9.5764950699363762      2.3541905264946443
    92   1      7.9277016805476244      9.6479228274724633       3.928283628448956
    93   1       7.842270943898872      11.508361313391683    0.063778357490718973
    94   1      9.7442339392380468      11.556373328447314      1.1614442997818633
    95   1      9.7212115899509772      13.348615558925843      2.7452131198002707
    96   1      7.7662364024751449      13.593025948879427      3.9786360420275146
    97   1      7.8268792290946232      15.132465148193178      54.244989079454463
    98   1      9.8332838324684815      15.270513238159973      1.4388468038949762
    99   1      9.5625775406407048        17.2989528768816      2.8645233981721865
   100   1      7.5720424578633878      17.303288729167669      4.1682971413686234
   101   1      7.5123454624979109      19.101920967943279      54.268362491324048
   102   1       9.359624521331364       19.01576750385825      1.3099741120014403
   103   1      9.3563944677796407       21.25204763951572      2.6902312564602542
   104   1      7.5099190263265774      21.174856094752968      4.2928479233734125
   105   1      7.4167698235641462      23.110117322490602      54.213038609837191
   106   1      9.3441143941789022      23.225533235652048       1.271279459589187
   107   1      9.4296954912460595      24.970244906639014      2.6853916090350145
   108   1      7.6003380494791353      25.151802156916325       4.096244020135793
   109   1      7.3274005165363709      26.756777920335335      53.977181796259941
   110   1      9.3331095739104342      26.782101963876727      1.0211915650303358
   111   1      9.5153552976578695      28.505571481911552      2.7765498843747993
   112   1      7.5488171454344393      28.671692638765382      4.0048575120063763
   113   1      7.6111062163335905      30.397870166723639    0.062208490958448749
   114   1      9.2996326876319486      30.694769466018069      1.4808181646611822
   115   1      9.5373043878095967      32.614423869490118      2.7614856690929077
   116   1      7.5794362152684114      32.552937991063686      4.1678874120878708
   117   1      7.5682857507012615      34.716698630721915     0.18496274931239895
   118   1      9.4165589249229722      34.620221480024959      1.5060155970595719
   119   1      9.4456888329135271      36.667144575941094      2.9970687131264642
   120   1      7.4148584813017244      36.692977937309898       4.116902243510637
   121   1      11.370853757774537      38.118590754998323      0.1554564191270516
   122   1      13.243974979720296      38.268387460389832      1.3753874214421884
   123   1      13.273890394890062       1.711169488818058      2.9384037975752575
   124   1      11.475974529998647      1.7761695536584843       4.288196720345903
   125   1       11.52720539434706      3.6522966929438794      54.247200971658586
   126   1      13.189333517420241      3.7778457849403657      1.6296233511218807
   127   1      13.312423364516999      5.8172318313525473      2.7923064838265637
   128   1      11.582505859575736       5.888783532501253      4.2445373181501838
   129   1      11.602197436946568      7.5608328041160107      54.280120570926364
   130   1      13.582903178517563      7.7683635909337161      1.3904465078976285
   131   1      13.601959248796597      9.7176321110644253      2.6634135686255127
   132   1       11.61719495240899      9.6153040710724049      3.9679013232259299
   133   1      11.594160560831526      11.420827212854437      54.128758938940798
   134   1      13.495246539206967      11.650266630159122      1.1816838044936733
   135   1      13.469376368503857      13.628101944094697      2.5717141587279428
   136   1      11.583506519169136      13.614590481313995       4.124199529929772
   137   1      11.563269876108956      15.620980755372601    0.047283225752619264
   138   1      13.485258103589956      15.434400108554815      1.1102345708797412
   139   1      13.273049860584434      17.152843914621194      2.7759095489022023
   140   1      11.510405758636658      17.739215492287773      4.0261076540819198
   141   1      11.398411816448775      19.361783545134024    0.030227073804485353
   142   1      13.216917472588074      19.411228842169606      1.3886248060240771
   143   1      13.231732652799465      21.455253783405279      2.6260180332400869
   144   1      11.245437438139342      21.506655947368809      3.9353213999545775
   145   1      11.510515082292613      22.909503438429546       54.26955927417832
   146   1      13.164072165327518      23.551961172387902      1.1385057938014378
   147   1      13.088720441907066      25.188619929040236      2.8578449419677101
   148   1      11.181202024212817      25.181137744603738      4.3413467702975002
   149   1      11.351596520495283      26.757978157069218      54.226526432121162
   150   1      13.190925016620598       26.99483392414303      1.4989363859742857
   151   1      13.160481372721659      28.849001539319399      2.8982851381667358
   152   1      11.157663178394094      28.751970868159272       4.185156590165275
   153   1      11.214504967187123      30.549163938265991     0.23697366448218413
   154   1      13.316093117395802      30.794066246961176      1.4721004007640195
   155   1      13.328226323969924      32.731950392254006      2.8738153742865973
   156   1      11.567012593313001      32.924550606202466      4.3029988898400244
   157   1      11.281010640805077      34.248357484902101    0.059393343674958299
   158   1       13.18988221834554      34.569644662278478      1.4286045436914936
   159   1      13.169117500937032      36.370719926906567      2.9577083020973771
   160   1      11.444607363652464      36.575761664313696      4.2423460599469864
   161   1      15.281613394143598      38.334178137805161      0.1673538972695495
   162   1      17.198150622746645      38.289911380658253      1.3686877692877286
   163   1      17.273732466266839      1.5754291425653209      2.8793435648640435
   164   1      15.218489050256181       1.747690395713666      4.2332336850663177
   165   1      15.052796849877508      3.9306129809628181     0.30117517845960728
   166   1      17.170738944136286       3.522433751150976      1.4326599934516371
   167   1      17.245972879191982      5.6078784475116263      2.6342344525331876
   168   1        15.3072910103186      5.7243569684859406      3.9080787158357442
   169   1      15.456647106517241      7.7929978835537783      54.250883587140905
   170   1      17.497361768069755      7.6218154560533398       1.318442278396174
   171   1      17.516384074088062      9.4692627019414157      2.6966889967404204
   172   1      15.468415359551384      9.6501087340703755      4.0538871989134586
   173   1       15.38088600266796      11.596253266214759      54.193218619457731
   174   1      17.374238991216213      11.334075745500396      1.2353605916485997
   175   1      17.248054095945175      13.443828690660506      2.5331220643869545
   176   1      15.452379653801181      13.626180612316974      4.1018201811384314
   177   1      15.293043723985706      15.587108271499341      54.221114624779062
   178   1      17.380295562212059      15.281826397972221       1.307912898064739
   179   1       17.17779468383592      17.272491035682215      2.6208934463187488
   180   1      15.298270459495139      17.601157988310288      3.8298405674722305
   181   1      15.154203039142057      19.660077678945264      54.196770465137917
   182   1      17.206272547823318      19.369309550944628      1.1459519345155982
   183   1      17.087873643699638      21.645969122541082      2.5248164253962586
   184   1      15.154258693185334      21.307122435478625       3.812716958414089
   185   1      15.122175866468544      23.090674603546908      54.213629003193809
   186   1      17.058852358564366       23.46456814922033      1.1838655118377792
   187   1      16.913880315814072       25.18525591145567      2.7067113956923077
   188   1      15.113705677956785      24.882604040032614      4.1290496822011864
   189   1      15.279545056651022      26.957674816181061     0.18434316325170808
   190   1      17.228193195719783      27.159860666320736      1.4064209023399279
   191   1        17.1631113700134      29.091941215865532      3.0655940501214101
   192   1      15.176925052503215      28.971253769830437      4.1453260509855578
   193   1      15.346670020608277       30.81299961034113     0.22474986608830252
   194   1      17.221641239117236      30.785920985025026      1.5908264954242453
   195   1      17.232861141268511      32.707737296834239      2.7305353696682118
   196   1      15.357253792797316      32.513087271357833      4.0172722266009364
   197   1      15.154025575958599       34.46093010125248     0.19471681444127856
   198   1      17.087569851646926      34.568975920435385      1.3937625286407409
   199   1      17.085109055504205       36.49842333539155      2.8147676055838464
   200   1      15.144197245226815      36.263067830565909      4.2882138490367847
   201   1       19.07970840318356      38.185996375632598    0.070726572581815972
   202   1      21.153155906025631      38.164193919685928      1.0701395263445781
   203   1      21.229825882294232      1.6824274265144972      2.5709901938737723
   204   1      19.240615855080705      1.7624034854715742       4.266508457075509
   205   1      19.150621779127398      3.8028350335619918      54.120362987204956
   206   1      21.008838662268584       3.578961303535408      1.1542808475513562
   207   1      21.153689756857034      5.6735839318775376      2.4283953399898555
   208   1      19.148289712397201       5.521948905945659      4.1393934760465196
   209   1      19.215609116941078      7.7653060700796592      54.145670303982655
   210   1      20.973143949459516      7.7974190428011401      1.1695949289807888
   211   1      21.118077287056856      9.8496987170342649      2.6060699405146925
   212   1       19.33899227275494      9.6148115961461329      4.1235703266419685
   213   1       19.23767406307655      11.633973223691536      54.157068732928067
   214   1      21.220776098244801      11.628788008258079      1.2120463746319625
   215   1      20.959975039351736      13.511376953293849      2.6651239721339501
   216   1      19.124546117251779      13.514321797984058      3.8861112208364821
   217   1      19.285600119936515      15.524429775273195   0.0025287766308338152
   218   1      21.074850575510126      15.669735830181716      1.5756177798019633
   219   1      21.066520690111304      17.472750722257832      2.8954229931314006
   220   1      18.996999676181034      17.347265905183871      4.1147599339618548
   221   1      19.459326615049275      19.311541831749825      54.188112945768395
   222   1      21.282556771254388      19.284772229204368       1.562167904776004
   223   1      21.237662162352137      21.368019521359297      2.7276433444045987
   224   1      19.060802523284469       21.29405831297235      3.8864651986510026
   225   1      18.944324828135009      23.083861769480055    0.045094691805195451
   226   1      20.989858387004588       23.21472293591296      1.3990488874904827
   227   1      20.928839832540081      25.167010939820234      2.6904718184542826
   228   1      18.769257699836295      25.031854686314681      3.8777934751233465
   229   1       19.18977830329797      26.948973090664264     0.13664878401897324
   230   1      21.007941593477309      27.082307963069326      1.5103508319570196
   231   1      20.715709359783563      28.873693749221466      2.8604744727325082
   232   1      19.007017751812892      28.965491320566212       4.431216263940688
   233   1      18.942400888370944      30.844214027716252    0.029161779482046749
   234   1      20.872877341597739      30.747408520114778      1.4583375342239961
   235   1      21.015655462027599      32.847387127558015      2.8872497818470393
   236   1      19.017767847695378      32.909504630993396      4.1545448663402569
   237   1      19.026853267986603      34.828797631897366     0.19449055980886665
   238   1      20.970263085038262      34.446028025800381      1.4410292055013212
   239   1       21.27444142172002      36.519601080839706       2.616849684645806
   240   1       19.18019523584627      36.261585622820142      3.9253320385672494
   241   1      23.051199947192966    0.034973113961488979      54.247808461586949
   242   1      25.103153165234865      38.238006222992496       1.166589629688813
   243   1      24.971838045941439      1.7355037500439845      2.6953283162827697
   244   1      22.785547982984173      1.9140510826750976      4.2470666581715131
   245   1       22.96669106507921       3.741244377530327      54.157542437099615
   246   1       24.81794151305257      3.8403602254392477      1.2309783894146322
   247   1      25.007557330573441        5.65262891444962      2.6305116058741893
   248   1      23.090033956283346      5.5168531197028239      3.9546288083909742
   249   1      23.043203940997145      7.5360097396222328     0.16085024148509325
   250   1      25.179683481733278      7.4413187103094671      1.3282240680550081
   251   1      24.992400936227547      9.4416378097236304      2.7132455518457168
   252   1      22.949112971996538      9.5360123162720694       3.896552609460854
   253   1      23.250164210421332      11.259974175499332     0.20645338256924792
   254   1      25.168933906577621      11.488865310269963      1.5423869857594708
   255   1      24.848467727042316      13.579843315582963      2.6241983238270445
   256   1      22.878187763331148      13.700026297725577      4.0618115844929523
   257   1      23.013548674427792      15.230044264911012      54.258187748669243
   258   1      24.924312046381125       15.48229938520454       1.245987963930113
   259   1      25.094773210324568       17.33146911314892      2.6673832306698171
   260   1      22.984594517651374      17.431902859917585      4.1158193709281941
   261   1      23.176949051851267      19.074725522526375     0.24445676891310777
   262   1      25.279206700830258      19.331858637835879       1.447917044409029
   263   1      25.045043121037232      21.320463512151701      2.7242518694115683
   264   1      23.060881961687524      21.236274153623071      4.0650185901753844
   265   1      23.161876935929371      22.983802713725378     0.26980914135232287
   266   1      25.147412634177098      23.342298896437107      1.5226075975719044
   267   1        24.7573443073885       25.01755349732052      2.8682250125828088
   268   1      22.707777334949206      25.156375404745887      4.1313053071325729
   269   1      23.055849912288963      26.925424331968696    0.034907577958995281
   270   1       24.95339568025198      26.773647838422171      1.2544013334197959
   271   1      24.860568056419911      28.776584429788944      2.6352361144351919
   272   1       22.96542596826691      28.858842719026583      3.9577973190708557
   273   1      23.042078733289095      30.763777525176238     0.15615475974515214
   274   1       25.05921035393445      30.715124577648844      1.4393430193268864
   275   1      25.080193158698833      32.728700602624905      2.8091964609011848
   276   1      23.110207234886587      32.641006966381987      3.8827668880974575
   277   1      23.222990888193394      34.613445884679138    0.082298444341233665
   278   1      24.993743639426391      34.586859105931978      1.5325308074676878
   279   1      24.892305193504779      36.437765530532367      2.8109358790633099
   280   1      23.017296836148432      36.479687028463559      4.2475216540055731
   281   1      26.955382074877324       38.20126870723378      54.295111136117875
   282   1      28.839784875496317      38.294462325958101       1.599046518443562
   283   1      28.597131410146925      1.9736417403187976      2.7780979961470971
   284   1      26.705570388614824      1.7405541126692097      4.0718261325911387
   285   1      26.817403799441998      3.7789295971002712      54.264082763406527
   286   1      28.664312594799572      3.7309788618132296      1.2909922270359406
   287   1      28.908508511085493      5.5945048638250654      2.6381368198348674
   288   1      27.040526097693164      5.6027722053722009      3.9050404446373133
   289   1      26.878182988481299      7.4363471274162576     0.10937362281849802
   290   1      28.960610318297164      7.6232349610794481      1.4534565500027958
   291   1      28.980479665522097      9.5945854907150032      2.8721757761552102
   292   1       26.83830487074092       9.512479079622068      3.9625045767302245
   293   1      27.209007643659653      11.413284736303076      0.1477495655784879
   294   1      28.739895070902516      11.569291567049763      1.7837960715304693
   295   1      28.996504454834955      13.566672421354694      2.8390069981251846
   296   1      26.882459551309189      13.206139041417941      3.8127066040210349
   297   1      27.129321667542673      15.364224276348237     0.22931735837770484
   298   1      29.037279065067555      15.537394893902928      1.5047396808328455
   299   1      28.608924330084765      17.476775702359785      3.0061823564320886
   300   1      26.669991429432034       17.39505493628856      4.3733847343832988
   301   1      27.036535949876001      19.364241622831351      54.234686092019572
   302   1      28.763277011255209      19.260924897030293      1.6109201650829414
   303   1      28.838018811273795      21.109739343576102      2.6983366313349739
   304   1      27.035611325400428      21.169923107352449      4.0265302915634065
   305   1      27.118430433912316      23.376609920085652      0.1149117201582612
   306   1      28.901761704405502      22.919539988666045      1.4558471809928177
   307   1      28.755289824590378      25.094527227132016      2.5944405611507935
   308   1       26.69911720779886      25.320413289906327      3.9843944530770505
   309   1      26.918633528236494      26.838022146949612     0.16809137439013297
   310   1      29.002560210245296      27.013577205235006      1.2366156846320016
   311   1      28.594134016690312      28.858429251354853      2.7700338803910198
   312   1      26.882589952955438      28.797916753079004      4.0327119880515161
   313   1      26.902409142943338      30.599839596463745     0.10304796952749508
   314   1      28.861808917520641       30.67588744950686      1.3225256385426647
   315   1      28.889106591346046      32.789704088224298      2.5450172274700997
   316   1      27.048243510685111      32.590584536141229      4.0711088579064922
   317   1      26.971074660992329      34.462448204339744    0.040291091513029197
   318   1      28.794259824402886      34.735826926295729      1.4570388883477774
   319   1      28.646999476333011      36.447080230744604       2.927761373870728
   320   1      26.642371183548651      36.373645138605752      4.1523794761958248
   321   1      30.717461059994722    0.040189037176306765    0.093624672245834997
   322   1       32.60921446884516    0.057281808396130923      1.2269002313766015
   323   1      32.720631757198539      1.9355646139094964      2.6703843282628434
   324   1      30.885304123524381      2.0743829033716694      3.9308268394178616
   325   1      30.712858360530948      3.8401867631961997     0.17921885087705497
   326   1      32.755268497708364      3.9403720031517664      1.5118201838135719
   327   1       32.71242225470187      5.9187984754999565      2.9267109648506233
   328   1      30.745629514454137      5.7850905003561532      4.1340390892822709
   329   1      30.784156759128098      7.6814678209581642    0.031908130053636775
   330   1       32.74016807790948      7.6800653964566132      1.1193584181376519
   331   1      32.789527484050666      9.6047729168018599      2.6544602521032754
   332   1       30.99151835994407      9.3142057846324953      4.2018917478047779
   333   1      30.626488405383043      11.368417435994354     0.16824941252309591
   334   1      32.503937073708485      11.401991603166596       1.325381117249357
   335   1      32.744900438622935      13.322570805509026      3.0435361519612925
   336   1      30.813738899963575      13.233272362880491      4.2256309672848849
   337   1      30.949068714605207      15.322394136116781     0.18126762660307336
   338   1      32.665078819311894      15.241368454614149      1.6551095722999454
   339   1      32.389913371191625      17.286689061104859      2.9023105600728178
   340   1      30.514616727533188      17.354725450549548      4.3009796485939535
   341   1      30.755661940789636        19.2250635893982     0.13748593190243832
   342   1       32.52542618264696      19.394524578015847      1.6067037718125108
   343   1      32.335641453879397      21.346577894204636      2.9887777755694875
   344   1      30.559280827072776      21.234017512977729      4.3406094371296593
   345   1      30.591962306233132      22.968003378547813      54.265162720932075
   346   1       32.58265765034556      22.998166330965599      1.4425745487251687
   347   1      32.386070809674891      25.117926055324332      2.7519486567080782
   348   1      30.477842513540732      24.998431785019594      4.2270954476014122
   349   1      31.021353717596824      26.782859731906122      54.268864824512868
   350   1      32.627561404738849      27.038098696408188      1.5753854722713159
   351   1      32.510337743088442      29.017599510936183      2.8013208960798339
   352   1      30.606345507518572      28.719611374495834      4.1142603074753312
   353   1      30.727213678543798      30.573945273001488      53.947676950422476
   354   1      32.527429435498156      30.657763567436565      1.1888257905487436
   355   1       32.48360741866415      32.461995117028657      2.6055603819063635
   356   1      30.625950335918937      32.652453102110677      4.1119073483046114
   357   1       30.62423915385758      34.510283136303741    0.055322415374587361
   358   1       32.31366153508079      34.536534685824705      1.6311792151989946
   359   1      32.579338979880035      36.488348435243324      2.7525846936428118