dump/Si_1000_0/steps_51 (written by ASE) 

4000 	 atoms 
1  atom types
0.0      38.395898218429522  xlo xhi
0.0      38.395898217999999  ylo yhi
0.0      54.299999999999997  zlo zhi


Atoms 

     1   1     0.06668727146687764      38.358362228121706     0.12552670169478697
     2   1      1.9892321847168972      38.325151909962102      1.3980170727704269
     3   1      1.7411080396918348      1.7815537737397411      2.5847073037026118
     4   1       38.35719937335773      1.8629872254918722      4.0700178008276575
     5   1     0.10403017270934792      3.8851108968825883    0.017277121627807906
     6   1      1.9424323040689795      3.7731870536725194      1.4086416529465753
     7   1      1.7895078514058058      5.8329023569611111      2.6748971928668306
     8   1      38.248076347147091      5.8786141273796728      4.0662731605237248
     9   1    0.057016646700873724      7.5436796942798461      54.022019794693861
    10   1      2.0973929833753528      7.4296030223455283      1.1619019031612636
    11   1      2.1518368151680223      9.4718945325674948       2.691482828290098
    12   1      0.0941266948711557      9.6460912542239896      3.9857505120893406
    13   1    0.055616269456893859      11.580341427962976    0.051130343444151544
    14   1       2.078910259082325      11.367785362963778      1.3761343639910155
    15   1      1.9661935978033389      13.272346090528579      2.8469647862470633
    16   1       38.23127655500209      13.388364676276037      4.4705966062172475
    17   1      38.323781456760543       15.43152703804313     0.10144307028481325
    18   1      1.7398911237090811      15.374425154690373      1.5220395100718385
    19   1      1.9203166202374697      17.130070259655074      2.9585499017312378
    20   1    0.044068587913654214      17.165078063537791      4.1472625328137758
    21   1     0.34022084877960501      19.322801154634782      54.053412121276182
    22   1      2.1828470736282668      18.977968367687293      1.4243798434299628
    23   1      2.0382822838403065      20.900646431916748      2.8052869645219616
    24   1     0.12288370488148979      21.062550587382059      4.3238324416035869
    25   1     0.16912253689579426      23.148124810944282     0.15093738487119035
    26   1      1.9528553075140327       22.78070542125689      1.4975375863443892
    27   1      2.2077157693794263      24.983198165060109      2.6698519466230977
    28   1     0.35562848597531244      24.998530589847228      4.1405412170465636
    29   1   0.0073496285352594231      27.042713371930578      54.185587671484484
    30   1      1.9177693437093766       27.24310946447228       1.504336800206068
    31   1      1.9978324084764156      29.064849457553819      2.9347596699777911
    32   1      38.262659373779627      28.846445208478606      3.7127724504347639
    33   1       38.34464964969527      30.917401569489641    0.029739271727839883
    34   1      1.7207772705060116      30.793650582278108      1.4907320251477569
    35   1      2.1551140665923914      32.717051672404637      2.7387151263853613
    36   1     0.12218024916585932      32.686502164608711      3.7910101799901916
    37   1    0.093168835666131003      34.431757874694519    0.075847798395864086
    38   1      1.8295624533231341      34.646526040847895      1.3740953269250329
    39   1      1.9811517754645633      36.625035444896845       2.946408072802273
    40   1       38.24278603064073      36.704565676862138      4.0690594275254606
    41   1      3.6683681809677382      38.259349720429327      53.978541906400764
    42   1      5.5473835494361516   0.0087528206104580727      1.1380059601610024
    43   1      5.6573735558778289      2.0113845770172265      2.5669294187449823
    44   1      3.7653818600327611      1.9862251246447311       4.013424181911537
    45   1      3.8856636956578514      3.7517271632454561      54.293166272266461
    46   1      5.9002062495557013      3.9498693381007111      1.4603605820536496
    47   1      5.4935597044270219      5.7816677116874331      2.6959039699102521
    48   1      3.5499391446153261      5.7727970377114026      4.1363759156713495
    49   1      4.0385497583550851      7.5882170913793567      53.960151858168281
    50   1      5.6329832012121965      7.7721502152993134      1.2588715478373145
    51   1       5.630880448389906      9.8210611747116303      2.4494205669916709
    52   1      3.9130448714810533      9.6643889214636882      4.0104625530623581
    53   1      3.9734869992712798      11.398230138503573      54.157504333048607
    54   1      5.7178362201448252      11.644275167660012      1.2405740081154137
    55   1      5.8553936726006359      13.665098142266361      2.7181679524970965
    56   1      3.9378111942166933       13.60160365363903      3.8854533452974351
    57   1      3.4976657825033732      15.419811536163721     0.10280891457711035
    58   1      5.5773269261143952      15.690574564373451      1.1712282208907012
    59   1      5.9950992265038243      17.514925861198776      2.4975869091351028
    60   1      4.2209227226551924      17.432783997464899      3.9158896567844534
    61   1      3.9502405115363715      19.262186162770391      54.154738221597398
    62   1      5.9622874799287153      19.406367453365469      1.1480536687011991
    63   1      5.9140968487330641      21.101895322090478      2.7362422102517394
    64   1      4.0660584992200377      21.136580093151885      4.4554248486200452
    65   1       3.975618117204287      22.842742317525119    0.033890114967311979
    66   1      5.6788638188592913      23.024663832982316      1.4464766022186395
    67   1      5.8561199599145723      24.680762272230908      3.0815889410289383
    68   1      4.0254132281532442      24.947005573853676      4.4480836323357469
    69   1       4.022790537190799       26.88765402617658     0.42466692720033739
    70   1      6.0465511623881918      26.837352610600092      1.7503987951831603
    71   1      5.8822258804106466      28.767208170275293      2.8827622340046086
    72   1      3.8192095335735772      28.809379088536332      4.3508904552520793
    73   1      3.7592351792167977      30.899647432625972     0.36588944188974887
    74   1      5.6552533452459377       30.93693228068269      1.6900733098474576
    75   1      5.7814168999698152      32.762014636068614       2.949013332131186
    76   1      3.7746282503081825      32.587696935445678      4.5167480837063518
    77   1      3.9977400359730986      34.531968614486289     0.31563189817392201
    78   1      5.7343807991798057      34.762588238679982      1.6826133878575564
    79   1       5.638580588683447       36.60337497879771      2.8940407054654873
    80   1       3.882482808921925      36.630432111027929      4.5153369530015768
    81   1        7.64001884344394      38.264179851653587      54.272427855525969
    82   1      9.5111461931648282      38.085332552771064       1.465670076539241
    83   1      9.4431903851847494      1.7043490130050316      2.6845988257948523
    84   1       7.548643634450559      2.0627028902588429      3.7784094684290812
    85   1      7.7532808585923565      3.7433992502951132      54.141853210697448
    86   1      9.3943288752116523      3.8019394597941281      1.4262287139372323
    87   1      9.4139691538914541      5.7984598102525675      2.6809627074614606
    88   1      7.5274821058725783      5.8187301339377635       4.087157089709228
    89   1      7.7544617975842547      7.5743493579661267      54.246264338754436
    90   1      9.3912398506336103      7.7268207694170048       1.395123310301754
    91   1      9.5100434815790607      9.5010945783051834      2.9836361160036997
    92   1      7.5755009709621781      9.4418241964804324      4.0272643744389844
    93   1      7.4596161539688346      11.558509519338875      54.182151148679147
    94   1      9.4222984436668753      11.486833176029252      1.5225314702029451
    95   1      9.6541016417871877      13.400746777371996       2.843906399111503
    96   1      7.7483521038233629      13.397155329118162      4.2835813851263111
    97   1      7.6343337928306996      15.427811489604617     0.17907132140529736
    98   1       9.706969080892943      15.763396306461178      1.6626081463384819
    99   1      9.4396313319880729      17.415051393732615      3.0607740855219188
   100   1      7.4723157991031286      17.296995789231943      4.4421570333707567
   101   1      7.8325078007464448      19.366367043577849      54.206576437215155
   102   1      9.6847840565966443      19.440960820579178      1.3368254083348825
   103   1      9.6990695804659168      21.336416650342628      2.7230469864947828
   104   1      7.6131642987071348       21.11073730081392      4.1433248181971303
   105   1      7.6455974693263578      23.248959262008903    0.030707136614103073
   106   1      9.6012243683151084      23.304796141827371      1.6497383044146292
   107   1      9.6188566103910311      25.148176613784106      3.0017997882202421
   108   1      7.8268952213496457      24.860444725927309      4.4047726232623194
   109   1      7.8780552955764849      26.719084669494393     0.43582002954070709
   110   1      9.9822136935863206       27.02321777798538      1.5238624942415187
   111   1      9.7958980694162019      28.850452441495303      2.9385418763109801
   112   1      7.8948526524690541      28.852900697930426      4.1261446466445353
   113   1      7.6167354690645253       30.64569748122457     0.46679140600730296
   114   1      9.5666990944107244      30.701265918130211      1.7827694075208456
   115   1      9.4631624765554641      32.549689200699511      2.9840478090025639
   116   1      7.8064186984449737       32.96923466484111      4.3767199202309586
   117   1      7.6159409066123063      34.553824139013877     0.35810555871652228
   118   1      9.6207692320710887      34.562391804020123      1.7445701421038642
   119   1      9.6909743907737038      36.399230751297843      3.0040187955967892
   120   1       7.629310978324999      36.662984173004517        4.13115158122962
   121   1      11.466435232142105    0.069326442484427209      54.136924424412612
   122   1      13.410629351044406      38.372644388886606      1.2010985239419276
   123   1      13.327283657877727      1.8854470763485762      2.5436809856555018
   124   1      11.209917930582924      1.9648487159089709      3.9760070320149543
   125   1      11.459943416447098      3.8394460879922203       54.13239953702621
   126   1      13.322982098480068      3.8008436770276379      1.1730035003542045
   127   1      13.357513102165214      5.7059674624373278      2.4297211630928817
   128   1      11.536666246406709       5.846335010121896      3.9351802601720682
   129   1      11.175216390831201      7.6457491710787933   0.0077882299422640036
   130   1      13.333695397154802      7.5738639879475942      1.1568659610278378
   131   1        13.0175543816281      9.5024100108045069      2.2706189682548588
   132   1      11.468966469202188      9.6391879470815383      4.0082274251579637
   133   1      11.188709312727459      11.590823471513671      54.222548625039543
   134   1      13.387032671312838      11.531549346080395      1.1891581919283802
   135   1      13.660486600612394         13.437209769609      2.8605106822391368
   136   1      11.607004059269283      13.516179374732349      4.1551958590381801
   137   1      11.443594509648992       15.56417396618841     0.23906037232028418
   138   1      13.518148599987356      15.428090036704152      1.3932941087922712
   139   1       13.45007799798892      17.519912504422621       2.743828952476647
   140   1      11.466940597839823      17.353046530086647      3.9488173644825086
   141   1      11.436392085633042      19.547391981226763      54.181511109174217
   142   1      13.479090954550035      19.274995926739155      1.2272242639282338
   143   1      13.512432161578721      21.199842968677128      2.7437383362417771
   144   1      11.546726415781363      21.022954389804845      4.0420963863011714
   145   1      11.393385804274304      22.872586977013679     0.07850460246090761
   146   1      13.500088112349069      23.066989428522465      1.4282516428155847
   147   1      13.479092386069837      24.999933525363282      2.9890676830062244
   148   1      11.360627851119443      24.918522797570255      4.1287049431722158
   149   1      11.824602622948481       26.78842668625726      0.1854002415882858
   150   1      13.662094140297862      26.892052915711137      1.5324728091991227
   151   1      13.618655918967361      28.765846652831318      2.8191662685689693
   152   1      11.845619219408263      28.880968919464323      4.2313510132158951
   153   1      11.491120050654695       30.73942817179368    0.016644703438669261
   154   1       13.45531701678637      30.827567413420567      1.6100151826356159
   155   1      13.557688381605166      32.927673138307362      2.8162781798285343
   156   1      11.432867756776492      32.760339370043759      4.0730650042260681
   157   1      11.343421098947973      34.429195417158056     0.13004819803699083
   158   1       13.20819518959388       34.64645367488729       1.593944497686981
   159   1      13.413150122962589      36.715566373412706      2.8899583925028107
   160   1      11.561188195379655      36.809091320078295      4.2629290314601223
   161   1      15.198411916632422      38.246437566047895      54.172656481136023
   162   1      17.087289252047302      38.231442921545728      1.2523547046261572
   163   1      17.122064046539286      2.0447032991808691      2.3900881169681938
   164   1      15.340566956346791        1.90331529792233       3.821314288882613
   165   1      14.932206164318229      3.8090283643115819      53.839712499115599
   166   1      17.086483581952884      3.6943960626763213     0.98942852884512256
   167   1      17.097272867668142      5.5664744925638265      2.6138634461005181
   168   1       15.14880347823261      5.8151678965605686      3.8714230384673782
   169   1       15.43019576419732      7.6117942631974502     0.19922284326858083
   170   1      17.312007127736472      7.6055819510758216       1.423083545429799
   171   1      16.968296587225538      9.5214251145729634      2.6465733624378798
   172   1      15.083931968326258      9.7076425477523447       3.881901943766306
   173   1      15.524733770010062      11.694714470179072     0.14563667757104223
   174   1      17.217930603704044      11.637567007103684      1.5611956504824462
   175   1       17.39286033352013      13.596779848259782      2.7335592504385091
   176   1      15.557720815691987      13.623004260260682      4.0330335058038935
   177   1      15.351838146263207      15.457054333810044    0.097474118386378317
   178   1      17.376618205716319      15.572301875195423      1.3341140570643681
   179   1      17.375949537634853      17.331799947654023       2.673660587152618
   180   1      15.403652116879316      17.414352924123005      4.0805047224034094
   181   1      15.350847891952922      19.318190633364139      54.185774716397226
   182   1      17.195609981183075      19.314677704110011      1.5018511562648196
   183   1      17.283857218889107      21.189174838684764      2.6679574559618904
   184   1      15.539156480073613      21.112623406831595       4.297975698027857
   185   1      15.443625114080039      23.096344965361286      54.175654369050235
   186   1      17.330631645233236      23.035894917427651      1.5680034635681159
   187   1      17.431609401331787       24.95835734708179      3.0777697140744755
   188   1      15.593452529533193      25.081586139785109      4.3352345249911055
   189   1      15.524269994190751      26.649434650331099    0.028379099706899072
   190   1      17.228792913328302      26.825434600802879      1.5894894510263518
   191   1      17.334055716925199      28.765765977035983       2.801536029552778
   192   1      15.586462123652794      28.830005668204759      4.2925069433697338
   193   1      15.238216082568368      30.724870694657177      0.1255061962969419
   194   1      17.358614349373017      30.646041343884129      1.2875739572270297
   195   1      17.251774809965536      32.346936177971841      2.8110379788303841
   196   1      15.490118311349788      32.655832212978083      4.2382299587962384
   197   1      15.327521570238149      34.434253083687551      54.134180716521115
   198   1      16.974053539159833       34.42790250409066      1.5687993749453537
   199   1      17.113140411905171      36.644825995775953      2.7778453319555729
   200   1      15.212934150064095       36.43543555461919      4.3727446823714757
   201   1      19.058237806036221      37.938809154985329      54.095717682599783
   202   1      21.052142540465226      38.099242985574975      1.0406871201065562
   203   1      20.848257185393557      1.5454120591488936      2.5820254787510839
   204   1      18.884245679179603      1.7536301376514742      3.9714296187340232
   205   1      18.890851583242679      3.6279354392548142      54.041002465510218
   206   1      20.561046181396232      3.5958326705937265      1.5278918239592352
   207   1      20.980367513074857      5.5456791949269819      2.7281440412552787
   208   1      18.952437744741314      5.8210007401663972      4.0259540438708195
   209   1      19.057644265003486      7.5580002253393133      54.284528777551039
   210   1      20.918606176015043      7.4190052613902182      1.4717884185982508
   211   1      21.162488675743266        9.42713817448813      2.7928430380216023
   212   1      19.013743536205727      9.7303566522486502      3.8505729041184749
   213   1       19.21152517594691      11.583436322642514     0.18348227198748632
   214   1      21.186021411781059      11.333302987248429      1.2234193208340338
   215   1      21.285056147825824      13.479566545732832      2.8121171229139912
   216   1      19.117867282470389      13.457138946823289       4.126255613860943
   217   1      19.253092992676326      15.412021443141713     0.11255347295438033
   218   1      21.284869418569542      15.488670047560086      1.4056263443678503
   219   1      21.381929128355829      17.254683432144127      2.8652380099070593
   220   1      19.219276360022302      17.384128915901588      4.0317322588827071
   221   1      19.050266216042829       19.36022925656961     0.17922593145179924
   222   1      20.958809284681347      19.298579400416017      1.4662044173104163
   223   1      21.148029805236465       21.14507549967086      2.7305009544625229
   224   1      19.281371722001161      21.326933932220552      3.9290422902657927
   225   1      19.171174150781592      23.083177933075241    0.052831863866549617
   226   1      21.149520141551506      22.912597797143626      1.1816907628638438
   227   1      21.212174324361118      24.829811258294828      2.5609079323915598
   228   1      19.491452079549774      24.913374523951866      4.0271739920632728
   229   1      19.058630884898417      26.990232807083395   0.0030357939445480047
   230   1      21.217812863619756       26.75433476084941      1.2890331864261055
   231   1      21.225654849389226      28.740641094264856      2.4690208137127345
   232   1      19.489581135866555      28.699235065126715      4.2297621951716362
   233   1      19.167191249100888      30.460856011714522      54.189717155607156
   234   1      20.904210589673415      30.486178909895184      1.1766285607663443
   235   1      21.161693683083399      32.589669750977585      2.5711190547634257
   236   1      19.324515426819669      32.507910422544839      4.1560559603988496
   237   1       18.88483706452547      34.378366016416734      54.296915985356584
   238   1      20.918827209517755      34.615583485474481      1.4469387440818302
   239   1      21.059901014559479      36.374016734317074      2.7481080984439679
   240   1       18.99625956875105      36.445625758246244      3.9186823571878362
   241   1       23.01579754668645      38.253113169911401      54.266787040667481
   242   1      24.819127732633774      38.229776487385465      1.4888398166859835
   243   1      24.558996560477453      1.7417280707573723      2.8588362403773644
   244   1      22.644572740074416      1.6231329735054465      4.2363800059796741
   245   1      22.246106381597979      3.5760690553527708      53.931558049383263
   246   1        24.2688810232241      3.5815444147212343      1.1958093980746864
   247   1      24.635192289726128       5.581138664709953      2.7288330529715248
   248   1      22.833436696194649      5.6707638013332113      4.0618214691490602
   249   1      22.889731861133615      7.5374659665186874      54.216007078830593
   250   1      24.906088397199262      7.4363028880656028      1.1709902560587013
   251   1      25.023727967066492      9.3897926092597892      2.7559980269882081
   252   1      23.130328759963163      9.1810911917144047      4.1869341191473159
   253   1      23.264198553892367      11.569379001119589     0.18461119021135372
   254   1      24.872528621312753      11.599770416305899      1.7601569279230169
   255   1      25.240853863615527      13.758898953065721      2.6208777639149141
   256   1      23.277495402044728      13.278745641196709      4.1851860545362465
   257   1      23.066941366079536      15.554139797655347      0.2356307770932175
   258   1      25.119779487107152      15.681719558739582      1.4259406715586032
   259   1      25.099584845472116      17.397581454609838      3.0049847370018261
   260   1       23.09120638729518      17.207048198164262      4.2714632867748978
   261   1       23.00763825011089      19.025178639705072      0.2592982441663822
   262   1      24.991683473966464      19.072977677423239      1.3775969033253079
   263   1         25.115708012334       21.05164332992835      2.8680592915317438
   264   1      23.159225439731085      20.958358234066168      4.0842671060077231
   265   1      23.097313465544303      22.874376309493758      54.267924063466474
   266   1      24.962490005730675      22.817587597628386      1.3073510953219487
   267   1      25.401766910254452      24.998084186512745       2.732376219318156
   268   1      23.305305379763364      25.080963179489846      4.0449587024760056
   269   1      23.111499739960401      26.805009796120022    0.041932386674318436
   270   1       25.03924915849813      26.950587983068996      1.5074805632436108
   271   1      25.094639583950244      28.911991327103028      2.7245781332769856
   272   1      23.021797209809705      28.897103342469158      3.9436946177968584
   273   1      22.724260424349929      30.732901029718523      53.974468903990115
   274   1      24.669936119510879      30.751456663855738      1.2091849124199252
   275   1       24.92469411503038       32.60380554299514      2.7603844491814331
   276   1      23.104584437325734      32.516811071845829      3.9606431261707598
   277   1      23.001563992255132      34.384813415502705      0.1975090046732815
   278   1      25.042904777304805      34.448483688213479      1.4411151879382584
   279   1      24.724550096487771       36.34976564974432      2.8109943068813203
   280   1      22.757783881130241      36.376295529693905      4.2431025594354992
   281   1      26.532494196551706      38.322993380984826      54.191367376026655
   282   1      28.659459919812214    0.033745982839723049      1.3245922022815189
   283   1      28.587499560502188      1.8628405819631706       2.836600896181789
   284   1      26.571190338255192      1.6094613396862838      4.0748823036607051
   285   1      26.324717774627235      3.7620673154865929     0.04816304118775179
   286   1      28.427789007572034      3.5730627511999211      1.3898036704536736
   287   1       28.82682399739889      5.5710720266509304       2.594837908532746
   288   1      26.719583987842999      5.6777301617702935      3.8758754250487768
   289   1      26.683940288399675      7.4481100803489451      54.088786721333328
   290   1       28.60171003969667      7.5839664435051217      1.3323028018916614
   291   1      28.572296027522547      9.5491550258606654      2.5821070778366324
   292   1      26.869671070407705       9.466069496918081      4.2405737979104758
   293   1      26.501246487071747      11.741401178882366      54.144962520878991
   294   1       28.64579403630712      11.287828873105651      1.1163223774937026
   295   1      28.787392358784398      13.221684516531516      2.5819431797918693
   296   1      27.098804555078605      13.635693821492797       4.056020156299792
   297   1      27.191725792664275      15.524624563335548      54.153409031763296
   298   1      29.031554837747446      15.244836389345092       1.374684617140906
   299   1      29.103114399885051       17.02470528173048      2.7893530576291461
   300   1      27.130144907782686        17.2540319137916      4.1857299470060623
   301   1      27.024710630166592      19.154124855742527     0.15735459777858959
   302   1      28.693985466527135      19.059034120682878      1.5224900832929822
   303   1      28.868307002999625      21.025623571173714      2.8199918666324626
   304   1      27.049245229651028      21.191774370133192      4.1413800980978195
   305   1      27.023112503775963      22.640641129358393       54.27704330637259
   306   1      28.708966290557658      22.815442514775629      1.2785920791944942
   307   1      29.102686139795601      24.629394193219508      2.7835707322630823
   308   1       27.25151543799798      24.891659583624023      4.0927620804104521
   309   1      26.863260813674174      26.876842333775912    0.024765816417959774
   310   1      28.860812311296893      26.828140620503223      1.2984000287009843
   311   1      28.687203026490703      28.721028602624717      2.7043089241618508
   312   1      26.965925192093788      28.726251727430011      4.1802430136274005
   313   1      26.697441148655642      30.734485962953599    0.045589594815783126
   314   1      28.562623685605903      30.847290314480638      1.5066150711833644
   315   1      28.699837205499342      32.782923435333132      2.7490692065827922
   316   1      26.877846126320474      32.496701995041086      4.0326725917933244
   317   1      26.792937195611103      34.678305297385698    0.016959918136421944
   318   1      28.778080321501953      34.557806243267834      1.4062152422771645
   319   1      28.386470719213264      36.610291357815569      2.8588367189358133
   320   1      26.472995913179709      36.470073932568056      4.3091597209650994
   321   1      30.377249112404215     0.20380300451730265       54.11624661628867
   322   1      32.371927488089874      38.209379952688884      1.2575540480596699
   323   1      32.491276639307038      1.7487921070435937      2.7711697012225835
   324   1      30.575174377839051      1.9991591192800069      4.0756744336348252
   325   1      30.619609562053142      3.8342956585167336     0.47910553828027114
   326   1      32.671651053204165      3.7040213256083194      1.5002428657587885
   327   1       32.49234477880335      5.6474069552155077      2.8566610924915476
   328   1      30.612126979117079      5.6665601166459458       4.409591349024983
   329   1      30.554158283715882      7.5126558853759242     0.18128625238024371
   330   1      32.563623640166838      7.5121671524343361      1.3274093973064862
   331   1      32.583423266926872      9.5877241939374152      2.5775585120392623
   332   1      30.543278693322129      9.5145627399410362      3.7582181061585538
   333   1      30.716315259652827       11.37977954346346      54.288946626817854
   334   1      32.758677313866407      11.476526091355751      1.2450832756170251
   335   1      32.752365617623596      13.198762261049522      2.6862524099977372
   336   1      30.830303042518889      13.408020398551457      3.8680130114483418
   337   1      30.907899622617041      15.356400081825925     0.13341991552713359
   338   1      32.664914345472752      15.256335885492772      1.4125296412590513
   339   1      32.508486605520822      17.311391977735706      2.9663253657402273
   340   1      30.801584539363343      17.247158669586135      4.2761471523762236
   341   1      30.890508328732732      18.914215847362414      0.3746364086057723
   342   1      32.934074279382642      19.222823303442816      1.5073077956259366
   343   1      33.013655037520458       21.13241936010834      2.9210229837984816
   344   1      30.799614267052611      20.926895832433793      4.0091775034203554
   345   1      30.902239693249776      23.288354340667539     0.23337098997133135
   346   1      32.903824046939341      23.011076320792398      1.5085214529990358
   347   1       32.89515859424543      25.035046281267835      2.7079175956417907
   348   1      31.026680541406648      24.960104978927568      3.9366145044188325
   349   1      30.818713522259902      26.913447305056746      54.248773746457239
   350   1      32.536621260785509       27.17253268032837      1.5776336861336049
   351   1      32.726034248295981      29.257073649418416      3.1331931995395053
   352   1      30.604512076283584      28.727049379903093      4.2954332947166103
   353   1      30.454698569108565      30.934323917568257     0.14766582200514924
   354   1      32.540500135441384      30.721580983882514      1.3663752116430139
   355   1      32.525085177579356      32.782051335153128      2.6667624955428981
   356   1      30.643027873814741      32.732200131079587      4.1353780048620807
   357   1      30.517174719197268      34.492358663243081      54.164287064713449
   358   1      32.398529253449986      34.531704751689453      1.2314900481254762
   359   1      32.458040037518586      36.405326746807702      2.6763043206001611