dump/Si_1000_0/steps_61 (written by ASE) 

4000 	 atoms 
1  atom types
0.0      38.395898218429522  xlo xhi
0.0      38.395898217999999  ylo yhi
0.0      54.299999999999997  zlo zhi


Atoms 

     1   1     0.35743584850882693      38.280193419283485     0.20022258654148559
     2   1      2.1740821439978988    0.062413161789828329      1.4600845716462334
     3   1      1.9366754988547326      1.9810793212847801      2.7236541772052854
     4   1     0.11604805856680894       1.960157651677563      4.2890376689731058
     5   1   0.0061380002656704971      3.8014732202335337      54.264939083845576
     6   1      1.9113803053043588      3.7499121603364047      1.4544290241917459
     7   1      2.1095838869681831      5.5471847185448828      2.6732635138111513
     8   1     0.26564285596083337      5.8778592398852378      4.0424135092323592
     9   1      38.135642875685882      7.5047219219740668   0.0017304730169598762
    10   1      1.6840249941988117      7.5473805913067311      1.6065394217478708
    11   1       1.929343969917819      9.4918149749862835      2.9482434772001178
    12   1      38.192765796427487      9.7276892004622635       4.054267956722013
    13   1      38.346159586992009      11.814785134677269      54.174267912434182
    14   1      1.7592723415079523       11.48071374886278      1.5226145651771743
    15   1      1.7053123626841062      13.408913324134721      2.9636851101783135
    16   1      38.136028675948332      13.442095756775887       3.980847760934624
    17   1      0.0215697755278541      15.243502751555077      54.263545791823226
    18   1       1.908357580906312      15.024981184053953      1.3406720751177073
    19   1      2.1418689160539355      17.121968397454104      2.7131711907267029
    20   1      38.384382649147781      17.276115944677695       3.980790155145471
    21   1      38.366060796418878      19.118961342647317       54.20626595371909
    22   1       1.893610898938255      19.044440916252778      1.4021510848917138
    23   1      2.0495535856650022      21.022466045427755       2.716499480417653
    24   1    0.070936943220006432      20.858485672227246      3.9847021354024124
    25   1       38.38926354086712      23.064730560838161      54.113964414899655
    26   1      1.9383542018436231      22.910020152849928      1.4697344691296055
    27   1      2.1171781147632753      24.796498639997363      3.1484315486104015
    28   1      38.250126919869146      24.799540780257193       4.108096633278989
    29   1     0.18781793858663465      26.804399057263581       54.22045216304668
    30   1      1.9751124832782569      26.569141786846306      1.3433943995515067
    31   1      2.0611986419041783      28.506582875498225      2.7868055880012208
    32   1       0.234165935899497      28.739620301556887      4.1705170299873204
    33   1    0.093276304753467279      30.554330457547934      0.0220074067069163
    34   1      2.0246774776151879      30.719534380538942      1.2714576434696347
    35   1      1.9524048586801448      32.705635301593958      2.6461670713491099
    36   1      38.325664823105321      32.934359309390793      4.1622554173550048
    37   1      38.302105163996494      34.701056247127767      0.3570234489619904
    38   1      2.0761785865530871      34.756738309839641      1.4662655215851472
    39   1      2.0581687151604595      36.608035215041347      2.7574607091887655
    40   1     0.26870484365639297      36.574866220717702      4.3299274585219907
    41   1      3.9074236297670049      38.185980008866558    0.050494961991637423
    42   1      5.9342304580749774      38.268030538406776      1.3354076506679211
    43   1      5.6141095829726195      1.7102827530324889       2.503479794187911
    44   1      3.8492009732888852      1.9610550038734609      4.1164837166858206
    45   1      3.9337413687472993      3.7207540858653254      54.115367132227561
    46   1      5.7256166919707399      3.7170775404852914      1.2590153170059371
    47   1      5.6256524044523459      5.5713513408178859      2.7655467674625491
    48   1      3.8277755967249045      5.6139135508483555      4.1971809623001155
    49   1      3.6959406110231794      7.6488959969884993     0.25502805348678503
    50   1      5.6628944030703883      7.6108011792974288       1.545690817114882
    51   1      5.7419357514376124      9.5778560153721948      2.8483484365161984
    52   1      3.9033700441590633      9.6776427842822681      4.0577881950188273
    53   1      3.6858222306557864      11.327396148636685    0.063943386273490679
    54   1      5.6161700310733043      11.461622323738865      1.2422575732375529
    55   1      5.7039632727929632      13.396997214416739      2.5895084967943123
    56   1      3.5417814223422681      13.656338966756687       4.142834954717725
    57   1      3.7568859779525816      15.257569461875823    0.020687731093994428
    58   1      5.8284633669883235      15.291347906126797      1.1134712599581142
    59   1      5.7651810871287825       17.10402967253329       2.568659584960312
    60   1      4.0401698434140068      17.023398625429721       4.007491411695808
    61   1      4.0218268463408524      18.986003419095354      54.192532776538314
    62   1      5.7747900621658124      19.166339963301763      1.5109359851999014
    63   1       5.889567864296926      20.994742363049141      2.8784831666344086
    64   1      3.8760408696477917      21.047728939045051      4.0078203168492568
    65   1      3.8874962937071551      22.943548194573694      54.280264169903077
    66   1        5.76837598504593      22.925575143860236      1.4736000994498133
    67   1      5.7075132115999683      24.965389502904678      2.7153782104617474
    68   1      4.0271045218734471      25.161052042124322      4.3583807655736084
    69   1      3.7411478843225505      26.654888132305203     0.10050551846658203
    70   1      5.6439184274423528      26.649989533917164      1.2204122024927744
    71   1      5.8468052577597369      28.574764225298996      2.5886349869633372
    72   1      3.9763420286422044      28.954281082345695      4.0538186642043135
    73   1      3.8224350809323964       30.78711636611725   0.0050206065890961316
    74   1      5.6003184352263338       30.58589096730611      1.4665737015317879
    75   1      5.9518195394446591      32.710156418437265      2.7290822518583933
    76   1      3.8582450236420542      32.887167788476845      3.7798655219698283
    77   1      3.7304766509039569      34.484081838367295    0.045370689711887728
    78   1        5.77384506162685      34.523706313735552      1.3154662328025306
    79   1      6.1149089053323253      36.367282525439933        2.61628245276296
    80   1       4.077149953425252      36.416965347728251      3.9634896194645313
    81   1      7.9086664770312636      38.286974808027153      54.226972035037342
    82   1      9.8299274375720156      0.1195796787329728      1.1514674786975225
    83   1      9.5165079540832345      1.7434915346979984      2.7116983683429696
    84   1      7.4415685930661128      1.8097907793690942      3.9105804716561918
    85   1      7.7766201160173534      3.5824997141220103     0.01322070410201379
    86   1      9.5947963850079319      3.7565244780442288      1.5080205663596424
    87   1      9.4444151531285616      5.8947219554124688      2.5201374060618962
    88   1      7.5694550427375269      5.6483406386089561      4.0714499729735145
    89   1      7.4600344211862035      7.6922280221971118    0.049146886334517616
    90   1      9.2343436984059171      7.9450185111050633      1.3949151754667357
    91   1      9.8266703779205198      9.8983816827388527      2.7558867504823739
    92   1      8.0585842935096217      9.4204386732196568      4.1669782347691591
    93   1       7.584332858991595      11.429796815841069    0.045188442955304713
    94   1      9.6046929080850454      11.464879774377405      1.1465942497010562
    95   1       9.885788824658448      13.337314657747479      2.5542606724603405
    96   1      7.7793854283406194       13.20843260211832      3.6899244456331877
    97   1       7.640431722384756      15.249655560856354      53.988117511213517
    98   1      9.6288740259879599      15.253436255252957      1.2010047520684006
    99   1      9.5422388834598397      17.002890496378431      2.6441102552214275
   100   1      7.6906827740194155      17.097670225441608      4.0174423481340087
   101   1      7.6736461325783516      19.130468765373234      0.2062702331865692
   102   1      9.4431106710969299      19.090427527575738      1.6122196763238432
   103   1      9.7052855415168864      20.968970823569204      3.0762475674282639
   104   1      7.5856470340865867      21.076471357585127      4.2547106329850495
   105   1      7.6590325028157391      22.944591199357617     0.12180145798405412
   106   1      9.6097353543420532      23.150400233301593      1.7349308526022358
   107   1      9.6626648825730168      25.220495705542142      2.7898137640268925
   108   1      7.7151310308332786      25.131499387442595      4.1688270308770825
   109   1      7.7707245281184587       26.80802373693809    0.039639112486656844
   110   1      9.6291701582272697      26.954815939242252      1.4305420768148693
   111   1      9.5944058002769275      28.904712264257441      2.7544075228961562
   112   1      7.7748025096485867      28.826232470370879      3.9005815033880227
   113   1      7.6232245259020193      30.767839036598527      54.184339652911895
   114   1      9.4422142888106091      30.603805367067576      1.3248365263195323
   115   1      9.5643281539820286       32.33860116360146      3.0201539767749095
   116   1      7.5383117767487491      32.555005763440604      4.1895724164297024
   117   1      7.7061854703390207      34.372510768901556      54.243943532742364
   118   1      9.5838913319599861      34.485176567091109      1.2860862951917409
   119   1      9.6673406655207845      36.509156847079687      2.5681984842311971
   120   1      7.8910328154483427      36.498875108904834      4.0936703261816545
   121   1      11.698616857368162      38.340653677473775      54.047014802734495
   122   1      13.139204374258169    0.041339086401098304      1.5547591942375929
   123   1      13.664041533269096      1.8201637446789487       2.930269210195934
   124   1      11.623283229617421      1.6952127114625553      4.0869070964494201
   125   1      11.713658353452551      3.5664515270608406     0.25226863225448154
   126   1      13.824890185398935      3.7525938165386084      1.4605935140215145
   127   1      13.593747187106841      5.9028842608483219      2.8095346305330176
   128   1      11.445772408045539      5.8015398553445436      3.8840074042654349
   129   1       11.20568240454363      7.5728013856304059   0.0058757444600018756
   130   1      13.205602205493461      7.5760680625363603      1.2365740228419995
   131   1      13.289633621215158      9.6046154075889731      2.2862252002379733
   132   1      11.708753952499844      9.3307797124071286      4.0519083903865489
   133   1      11.558446967689557      11.348852185581082        54.1022361997315
   134   1      13.360782963862908      11.636842338297701       1.383378218577604
   135   1      13.503706537404067      13.490847632807482      2.8650617518104342
   136   1      11.520315531838337      13.246317785398366      4.1648961049541624
   137   1      11.536381369887108      15.101469210483595      54.294226615007219
   138   1      13.507270054617956      15.051741363190629      1.1557805223283606
   139   1      13.333546335565622      17.273624374286118      2.2578421131778073
   140   1       11.32178303640873      17.005893439947929      3.9349525308682449
   141   1      11.304327265453717      19.186267288256573     0.13125012970343738
   142   1      13.275784301701037      19.426789438467779      1.3373687531188141
   143   1      13.607127105779142      21.197555248827708      2.7219402972125386
   144   1      11.758384290420755       20.92363383052383      4.1088875740364221
   145   1      11.552101791887118      23.225925876663318     0.21630668994248489
   146   1      13.633483097756988      23.080174572096599       1.336481482476231
   147   1      13.489255308172053      24.987854945172579      2.7305180354593057
   148   1      11.659398964738696      24.886793949158463      4.2259405162672126
   149   1      11.563504029031796      27.161311268862537    0.062134950516360483
   150   1      13.564464784404404      26.838980072569733       1.258615124256288
   151   1      13.523213589701886      28.756542601933578      2.8154138345504314
   152   1      11.627865043618419       28.69638754108367      4.1954763051475554
   153   1      11.386568481955106      30.708601742128401    0.039851749130514237
   154   1      13.585496191052259      30.752213009527676      1.2319666384510113
   155   1       13.68969740464423       32.75108507563121      2.7040836318132975
   156   1      11.666872174307585      32.604226951510292      4.0244213328873588
   157   1      11.640557622498006       34.73391030225234    0.013195962953875571
   158   1       13.69059806086913      34.760026502429618      1.5157881349691489
   159   1       13.56001607558378      36.643828273442089      2.9425373254155485
   160   1      11.460419850569615      36.389411985360795      4.0411562654521616
   161   1      15.231714721953013    0.048677139166817304      54.294236181922798
   162   1      17.351162936029311     0.47615273923926998      1.3659861931793535
   163   1      17.398311765460502      2.3037339466895648      2.8689480606063604
   164   1      15.687120905869593      1.9260493498676829      4.1289360710731469
   165   1      15.337758194111396      3.7969964099155251      54.070436138770447
   166   1      17.216828256862378      4.0482538951598492      1.3583494419673228
   167   1      17.315264607403005      5.9369688256316655      2.6845739523860082
   168   1      15.555628416063985      5.9910347366443792       4.265281282818445
   169   1      15.242211407788055      7.8053308447971874      54.250753377201285
   170   1      17.273595450124045      7.7099059519751378      1.3971178414014715
   171   1      16.963973972069088      9.4637657311228089      2.7574694916825813
   172   1       15.21198940969866      9.4608546204213049      4.1186466568557218
   173   1      15.323794488668518      11.668564624009305     0.13361996816178123
   174   1         17.260320127678      11.423944903037215      1.4073055583071206
   175   1      17.260125691373528      13.374074260277336      2.5805038611600626
   176   1      15.409268138967111      13.328060078149313      4.0484753517202883
   177   1      15.311956629997972      15.368558187152013      54.164301248805614
   178   1      17.114336575451798      15.267746219507201       1.246066067209245
   179   1      17.157945634888129      16.886990632670514      2.6154217032352989
   180   1      15.172436590039409      17.200319179920289      3.7017809026522399
   181   1      15.408185676852277      19.285714085311426      54.226824467973906
   182   1      17.245906769893786      19.240163854034794      1.5174385567551996
   183   1      17.196726133971673      20.937120711075231      3.0734983616921232
   184   1      15.440457681201419      21.263316781641866       4.128015775879101
   185   1      15.326298477037954       22.97196211078996      54.200859799776886
   186   1      17.298163221646256       22.77371794069747      1.2133350579093052
   187   1      17.484614594493177      24.871853430634527      2.6649586089862281
   188   1      15.557180329031725      25.010996736244216      3.9372269638280475
   189   1      15.423594523331367      26.891560621609468    0.066644322980812368
   190   1        17.5481404090194      26.854659068653405      1.4173382240482488
   191   1      17.430379191634504      28.727724519938491      2.8144289880743472
   192   1      15.504126761670891      29.018579222619522       4.070871746987903
   193   1      15.529695047375988      30.686331183950877      54.084164433055612
   194   1      17.362610232820181      30.826378812991486      1.5296820189428679
   195   1      17.347274640448425      32.949677265742899      2.8868069673261392
   196   1       15.46919583153459      32.497869134301986       4.228020201447487
   197   1       15.48487872958431      34.682922375297728     0.13370390843164132
   198   1       17.49872107284909      34.796387233419686      1.4732254653769035
   199   1      17.298328439347845        36.8305515487707      2.6374326046868428
   200   1      15.603742804214262      36.520723912466536      4.0555426660520206
   201   1      19.399310832445344     0.11524686369360353     0.12004592947367897
   202   1      21.129159540740108      38.245226598315234      1.6001496653302889
   203   1      21.367778655396506      1.8846051034429436      2.6402475156604148
   204   1       19.57710809787698       2.054864161676484      3.9129597358306096
   205   1      19.092135663790817      3.8288506821612232      54.259312781953163
   206   1      21.069468635058573      3.9148985363152367      1.4508929094367105
   207   1      20.993604748480362      5.8358940846643108      2.5867160847223651
   208   1      19.156728497447183      5.8398354317235661      4.1979152500393528
   209   1      19.216355406023478      7.6153663784741354      54.225986001770629
   210   1      20.970071729910931      7.8344811893861639      1.3385805513106894
   211   1      20.855992714898711      9.7488910603616521      2.7905216446022232
   212   1      19.016398535049824      9.6661338863811004      4.2324603001848891
   213   1      19.361439488221134      11.231412204558513      54.216430367442186
   214   1      21.074663878092952       11.53230974483394      1.4102992372750589
   215   1      20.952171779975824      13.545948151323154      2.4585941764817423
   216   1      19.230213214926749        13.3808616182978      3.9350739184259509
   217   1       18.85994843755908      15.390876223267504        54.0375074855611
   218   1      20.929121389656764      15.505966260638836       1.286691947949405
   219   1      20.831245462683679      17.663208372365816      2.6069860940749754
   220   1      19.303423460405945      17.461790099291068      4.0896341390378534
   221   1      18.933646929759202      19.549191028752883    0.097092318733825803
   222   1      20.972763681801506      19.304227610454081      1.2226325001473928
   223   1      20.810412632064903      21.028541509952184      2.5766548960966249
   224   1      19.172813151731589      21.080829906884432      4.1172494516942608
   225   1      19.337470575433155      23.194664942621259      54.158706882874142
   226   1      21.185239752510252      23.037917065095126      1.4414650187113025
   227   1      21.043659665028269      25.002389643175043      2.8059898065352957
   228   1      19.184194029899604      24.802340916449374      4.1155168171947016
   229   1       19.33631791236407      26.918669835500218    0.073851675901960401
   230   1      21.167326113569487      27.031330152995181      1.4357383164892537
   231   1      21.228466715976115        28.6975721604162      2.9856708723044432
   232   1      19.297446868198019       28.89491937538925      4.2474477067807843
   233   1      19.341087711785971      30.481055311194833     0.16136051980156496
   234   1      21.181315934743544      30.592446198036562      1.5289819225877765
   235   1      21.377184616647703      32.565571106404441      2.7129463081301521
   236   1      19.576378112871144      32.546258305378743      4.1102775029204981
   237   1      19.254830052845435      34.629778842903661     0.18269472526517344
   238   1      21.250077790635597      34.502338757893327      1.3665231300816336
   239   1      21.327082678411646      36.475984721227363      2.9172563874760633
   240   1      19.292231284544926      36.552576581896844      3.8380141374501036
   241   1      23.145893048008197     0.10881597088035184      0.2945117742152204
   242   1      25.181629601363138       0.114203021673194      1.2500927758438016
   243   1      25.222469252834852      1.8380810132812286      2.8917356023615204
   244   1      23.172523786075882      1.9875670847580833      4.0624129860858611
   245   1      23.023245153970038      3.9831692114999671     0.19717955118576377
   246   1      25.149010351696759      3.6962862837077095      1.3865389125045098
   247   1      24.997694406140489      5.8328512934839294       2.820806148747474
   248   1      22.836302703795361      5.8816284355346848      3.9048038402108793
   249   1      23.031285149094632      7.6394310807250863      54.241297937570245
   250   1      24.948715640206181      7.7752143973391146      1.3479293540150246
   251   1      24.698123612878788      9.8287281130838124      2.7439031427277873
   252   1      22.621801106720579      9.9381542639645559      4.1893147093858136
   253   1      22.956317879999158      11.525896953976186      54.043271795962973
   254   1      24.804431915024111      11.711445942890675      1.2964189992559541
   255   1      24.716148669334999      13.689863980265184      2.7231720448010859
   256   1       22.59232915939802      13.506378750748288      4.0727064043118286
   257   1      23.047851024296722      15.704501129772799      54.289390397285821
   258   1      24.810955835662551      15.574153667153874      1.2782038492577594
   259   1      24.993749386431894      17.315703103713336       2.501849886022399
   260   1      22.933562461861364       17.56085519142367      3.5784368380279803
   261   1      22.952701747507721      19.449820476437083      54.289501193220744
   262   1      24.723832229851762       19.35393948079609      1.3821482727719177
   263   1      25.036650080104259       21.14073161572097      2.9122275240407234
   264   1      22.929868363617103      21.463152839119363      3.9240343892916854
   265   1      23.051721282281225      22.956199772942938      54.265124189689786
   266   1      25.127296542132477      23.293947275968378       1.367020692282517
   267   1      24.948981498974966      25.138394951537823       2.693187524531333
   268   1      22.972958607776285      24.860107769052362      3.8931529165620962
   269   1      23.016450553636883      26.959671310600598     0.14291854085390682
   270   1      25.106746647183918      27.021827988067017      1.1511611749701265
   271   1      25.011057565726134      28.924426212345146      2.7417833535756921
   272   1      23.131886445804039      28.884999594522235      4.2737219905071813
   273   1      23.173723726226893       30.56393761250931   0.0094620531140549389
   274   1      24.953696827332823      30.861020152216696      1.4950206739096779
   275   1      24.957219509504679      32.750963124528987       2.751521803452762
   276   1      23.142213718042616      32.686711342193682      4.2081822232720691
   277   1      22.981894204845553      34.340473402207763      54.081748288338972
   278   1      24.904485083034626       34.69049369851421      1.2230212635099302
   279   1      24.924452745618897      36.413208721198473      2.7799618816061522
   280   1      23.093539501214828      36.594342613970376      4.1635334181216175
   281   1       27.11937411946246      38.248479082346705       54.17051421333656
   282   1      28.713451442139245    0.076776498096047141      1.4144062580506231
   283   1      28.549588502981432      1.8437716221351572      3.0246941830349336
   284   1      26.823835763906846      1.7861133382688421      4.5667779140637226
   285   1      26.807091374547316      3.8275413650825207     0.17687777375533648
   286   1      28.736918572324278      3.7076035765397832      1.4543616469814087
   287   1      28.771169407717387      5.6768141692963168      2.8560011226898241
   288   1      26.724318075022271       5.883603790306795      4.3094187392203605
   289   1      26.776209884187594      8.0667149648590506    0.011216092581821586
   290   1       28.47155002897625       7.468504865261326      1.4229734660299969
   291   1      28.594936266822796      9.3567017493348992      2.9099855345803802
   292   1      26.532758730488286      9.7051472470265594      4.1681293419570329
   293   1      26.892956509430935      11.487270221872475     0.29953779318415169
   294   1      28.760044258634835      11.303405799199572      1.5714707893154038
   295   1       28.87909506989369      13.499738128312304      2.9629438701803656
   296   1      26.747611617864578      13.576011650699087      4.1172664084369668
   297   1      26.849502999387358      15.464456361650308       54.22385199497505
   298   1      28.774707373001885      15.261576258303124      1.2903554326316227
   299   1      28.589964630718843        17.3320251454569       2.586156954349645
   300   1      26.880943590049593      17.406516593993022      4.0079230201634539
   301   1      26.756885451418434      19.468849705669648     0.19220835743215064
   302   1      28.912203054601314      19.306582282582646      1.3833947093551826
   303   1      28.895693198675495       21.33640642405075      2.8201155041531702
   304   1       27.03715672279807       21.27336008553894       4.105578227338448
   305   1      27.056256485025763      23.105898339443364       0.149207124360305
   306   1      28.855479798424007      23.272942836815446      1.4228426821468019
   307   1      28.587360850365656      25.065841805538941      2.9620791976550107
   308   1      26.578391166867707      25.092563127935549      4.1953678417482951
   309   1       27.15384720847586      26.996637826490144        54.2917242404042
   310   1      28.938744925555973      26.941316061646557      1.5758230836898763
   311   1      28.803675544228938      28.995669597669895      2.7053153921988722
   312   1      26.873968999475803      28.795375171441396      3.7445755722018452
   313   1      26.782663486140486      31.019851976845025      54.274103691381654
   314   1      28.765845363272376      30.998738267543626      1.2808058844317221
   315   1      28.772452560677731      32.664474712627559      3.0777730509396273
   316   1       26.75094547885443      32.571150119816714      4.0975038407003019
   317   1      26.830088491998371      34.390897740188542    0.059521349867202505
   318   1      28.715872470670398      34.384666257122603      1.4437505477241896
   319   1      28.907972743823123      36.503134649962533      2.6585483498499678
   320   1      26.919489331856678      36.571822967735045      4.0954206504908619
   321   1      30.686567749009154       38.21397472799265     0.17962469967490055
   322   1      32.525140920395835      38.063525569011105      1.3765257672340911
   323   1      32.535225505715403      1.6286396418223634      2.7156542793910479
   324   1      30.784173077674957      2.0723376916289604      4.0926512005447622
   325   1      30.660399843120373      3.9475273914019819      0.2718503033000273
   326   1      32.796987024073523      3.6993669345588733      1.3317291051300442
   327   1      32.580291412264629      5.2946046651849805      2.9651683102157014
   328   1      30.737000759591933      5.5645322006712243      4.3142675769962562
   329   1      30.737252423958417      7.6918407508538946      0.1531419988873379
   330   1      32.615499113726429      7.3170895282347921      1.6808353560131999
   331   1       32.49349997720585      9.2357766040145872       2.924344811413301
   332   1      30.624371592219692      9.5163149282744826      4.1053438710600973
   333   1       30.56671651559418      11.242278528270731    0.098547985567097457
   334   1      32.573442941859916      11.235112936754572      1.3493993979176377
   335   1      32.661296759976473      13.350054622626987      2.7914044903663249
   336   1      30.867587790876939      13.174916303701245      4.3076564016323688
   337   1      30.799526674228147      15.252671587785855     0.15195110946840493
   338   1      32.962018795695883      15.218599023545005      1.2311682512891162
   339   1      32.681438651198974      17.098472454769954      2.7710372758003352
   340   1       30.74239933206621      17.175831166106718      3.8213578402691737
   341   1      30.745105264171947      19.354687918018094      54.192465222799285
   342   1      32.655823298858195      19.229789830666345       1.400343250360593
   343   1      32.572853629835699      21.118783962554371      2.6381125191503862
   344   1      30.789185466460065      21.155062358252763      4.1280001761652221
   345   1      30.732915680552953      22.941289493854786    0.070987124764985685
   346   1      32.794539499771773      23.038433603736976      1.3688905842173764
   347   1      32.563031315811998      25.047697392618524      2.8043381846800779
   348   1      30.517413978659452      25.104843057801869      3.9607139135838123
   349   1      30.589925161118767      26.844781223800393     0.18272152980383685
   350   1      32.586748658122566      26.802334881360448       1.317307403785811
   351   1      32.607973776624121      28.657680837198029      2.7270439001652456
   352   1      30.711976130912092      28.962894518877462      4.1983718188159198
   353   1       30.69988122876088      30.425492469310374     0.12920525814687381
   354   1      32.637994098278959      30.472396388035083      1.6666267226710123
   355   1      32.950321755207945       32.30879903867492      2.9401888528367421
   356   1       30.69350910502374      32.504615092077479      4.3361198902028857
   357   1      30.456625405021562       34.66743009687228      54.074722328992522
   358   1      32.307109804948801      34.284477184086889       1.496158956451018
   359   1      32.477118070975116      36.126383864584533       2.818715364112689