dump/Si_1000_0/steps_11 (written by ASE) 

4000 	 atoms 
1  atom types
0.0      38.395898218429522  xlo xhi
0.0      38.395898217999999  ylo yhi
0.0      54.299999999999997  zlo zhi


Atoms 

     1   1   0.0037307715615230649     0.34118355991212551       54.17579221953207
     2   1      1.9780137884494338      38.259530629335366      1.3226804038018132
     3   1      1.5464502710045052      1.6883579712390642       2.476292140845624
     4   1      38.247564245327851      1.6984554732368367      4.0317725169066172
     5   1      38.246000933399351      4.2041756543773356      53.928394554486289
     6   1      1.6861530837637724      3.7216277867043202      1.0827133496214527
     7   1      2.0134753126622722      5.6661250455165968      2.3084001231611437
     8   1    0.081768644312354949      5.7597524516573868      3.8738775071736211
     9   1      38.333414972848651      7.9086113034804679      54.094190951985681
    10   1       1.772659722407018       7.653210205915431      1.2157229843730855
    11   1      1.7248408908299813      9.6579932558204753      2.6702435420871304
    12   1      37.909126395579271      9.6636181456212444      3.8345861609397818
    13   1      38.236033143559197      11.516355274743709      54.238593846928055
    14   1      1.7212769880591736      11.591305924884736      1.4284009653474758
    15   1      1.7312355188477777      13.373448072054339      2.8391765898869816
    16   1      38.201493748841742      13.401936795156143      4.2516469839227717
    17   1      38.328956567832741      15.204678742330069      54.026230264286468
    18   1      1.7455444187185418      15.205664428947406       1.306049143193458
    19   1      1.6523896785675125      16.969421326302168      2.7668457575376113
    20   1          38.11999171019      17.323296272707676      4.0827120470325662
    21   1      38.006774498883694      19.136368753144048     0.14498992290749607
    22   1      1.5630114236047048      19.100034882157892      1.4078047073031605
    23   1      1.9016522942629817      20.967563213519838      2.6522753026587313
    24   1     0.16122908819807671      21.052092692544335      4.2507919298715136
    25   1     0.15241820986683269      23.294407412994129     0.13793449108775355
    26   1      2.0356440536206675      22.879132830343625       1.408452199922817
    27   1      1.8018779791234893      25.036725718716731      2.7382703739317891
    28   1      38.059060584465556      25.038249842964472      4.0369761375989901
    29   1      38.289528799772832      27.097444988460669      0.1723829562902327
    30   1      1.8893249185551815      26.920745525877926      1.4913687540544758
    31   1      1.9514388656764554       28.83242138157058      2.6059804751609699
    32   1     0.13931590266804797      28.912522641819653      4.2666673258983243
    33   1      38.316473991875327      30.736858656811322     0.29991923048866054
    34   1      2.0793735869804078      30.633101678833526      1.2889158862212522
    35   1      1.9579434306304568      32.760232485357115      2.2632536241417234
    36   1     0.15557958645459244      32.526616568853413      3.6765844173454743
    37   1      38.218064029184482      34.631693004580782      53.906643500448894
    38   1      1.6251124019064327      34.791591002211021     0.93866051479558088
    39   1      1.7174454995038109      36.324057784857935      2.5959909856057628
    40   1      38.157885785080303      36.491024781147296      3.8851214133892995
    41   1       3.834801434529473    0.028154086884239489      54.142228377066466
    42   1      5.7563135469206212    0.041933727541514615      1.0759272736157177
    43   1      5.6906708929924008      1.9387362775470356      2.6697304411203286
    44   1      3.7147054047831176      1.9466367904259345      3.9638807849655091
    45   1      3.8024546349103687      3.8355079089844741     0.33015214033937351
    46   1      5.8654071636727521      3.9005820670326345      1.3069527553087168
    47   1       5.778829235369292      5.6409309411512893      2.9754422364232136
    48   1      3.8627851900099168      5.9937405051240074      3.9084483820544391
    49   1      3.8108220252232279      7.7709325205725577      54.197734338556479
    50   1      5.6839497923999707      7.6167757680864545      1.5543623022707724
    51   1      5.6397744842769724      9.6950278793896203      2.9932145454051602
    52   1      3.5962534820372025      9.4896509142404497      4.1119968587535274
    53   1      3.8383340179323175      11.430136786661748      0.1689715771315379
    54   1      5.6544172362259619      11.524778682874766      1.5800328067301981
    55   1       5.884034543336111      13.557011388124087      2.5042392721628959
    56   1       3.884777062072541      13.308172229679544       3.857278629098245
    57   1       3.856781399541465      15.362891269499697      54.245990293432499
    58   1      5.6532259605485571      15.325465756270493      1.2020494228565535
    59   1      5.7760535521948553      17.431741431662466      2.6392928936917066
    60   1      3.5598367689612154      17.220207075493953      3.9407499034348703
    61   1      3.7260200091887992      19.035354795855067    0.068727099771365346
    62   1      5.6348720570865316      19.186747577271632      1.4014161303054056
    63   1      5.7425802483607207      20.970344951924364      2.7201689030285161
    64   1      3.8026956257360087      20.787874226299646       4.099685100351941
    65   1      3.8239422630120923      23.081684837164961      54.174043166036839
    66   1      5.5254985714233174      22.755555185723157      1.3531241530940425
    67   1      5.4691330206590809      24.723112052915205      2.6066141240321494
    68   1      3.7630343065750864       24.86833630488319      4.0698563671286276
    69   1      3.9925312353490163      26.848689420084334    0.097759670109121594
    70   1      5.8667525398630911       26.84957341602243      1.7734610867175229
    71   1       5.461909312990775      28.970760691091844      2.6505486165884213
    72   1      3.6136963908689972      28.660015548651256         3.9539102276681
    73   1      4.0093674859846722      30.803406216047392      54.287410227732948
    74   1       5.776513410608878      30.949490139963945        1.39275519378833
    75   1       5.680092154877519      32.922375719717543      2.6185954659524424
    76   1      3.6284956532635642      32.432956705365257      3.7567141223369025
    77   1      3.6743542838604113      34.773167835638496      54.098560658595161
    78   1      5.5976124183676816      34.835434648570626      1.2072228799833411
    79   1      5.6650862148260446      36.644591551700401      2.7486028565573175
    80   1      3.6217115040253671      36.465188184128934      3.9701957954270806
    81   1      7.8692604964488728      38.376053642801686     0.20999357551611411
    82   1      9.7162841468097128     0.26398784220193483      1.4692489712227921
    83   1      9.2881594144791002      2.1813728232932736      2.8095300164337562
    84   1       7.530363460613331      1.9127958227172042      4.1267154821918641
    85   1      7.8145440021459809      3.9561943159972301      54.139210679171029
    86   1      9.8875363784648229       3.855239708147431       1.491693615178556
    87   1      9.7257496126054619      5.8545452662282029      2.8071476120968768
    88   1      7.7400329477122147      5.5672314974064419      4.2762350327867482
    89   1      7.5491893618292503      7.6948491707354396    0.056824077000669847
    90   1      9.8076501181165376      7.7075626124053018      1.2746023893724669
    91   1      9.3459658316425571      9.5408179437341651      2.4947247239246031
    92   1      7.7282941077465086      9.4802840429484618      4.2862505864058456
    93   1      7.0764247719063187       11.48933189441223      54.129615933492786
    94   1      9.4104522509308648      11.575476374083028     0.92623078760740229
    95   1      9.4537938863579125      13.416449476224798      2.7846276126746727
    96   1      7.5323008471020971      13.258352321873806       3.856782753982245
    97   1      7.6507032356733919      15.448964452242343      0.1433366495373436
    98   1      9.4045109707943091      15.382507181656136      1.4520407059955098
    99   1      9.5991692347599056      17.337418771237687      2.6742491048177928
   100   1      7.6118312545499753      17.309795608078577       3.903711782494121
   101   1      7.7190378160523707      19.362551778388188     0.49467295310646459
   102   1      9.7135997656013799      19.354196424145535      1.5351057747729902
   103   1      9.6222268862619291      21.345803384138705       2.925079928212666
   104   1      7.6290874989037407      21.260361515150933       4.074626501387093
   105   1      7.5720394960064867       23.03454915609948    0.048693023899113543
   106   1       9.532486021123848      23.195480383163613      1.4893080376032319
   107   1      9.6948962079763863       25.11075120377664      2.9195161237616833
   108   1      7.5848549280422493      24.786056522769229      3.8935514218688132
   109   1      7.4882424094663378      26.900723268046903     0.29955311111018562
   110   1       9.751965836366363      26.671805619281407      1.3202694184535171
   111   1      9.3579101754570253      28.721384942540215      2.4362807727564677
   112   1      7.5443696016350632      28.739842633382452      3.5884907950394127
   113   1      7.6083043518553835      30.646556318315632      54.115239981754399
   114   1      9.5515703630173618      30.755337672682796      1.3256767480715084
   115   1      9.5551063388077306      32.591718521173988      2.6869610359246616
   116   1      7.6903689356918727      32.710194657444696      4.1810283365672243
   117   1       7.787012668681137      34.621432522623607      54.154011655426629
   118   1      9.6904200879652951      34.415217889172268       1.237006865572142
   119   1      9.5916838337579726      36.481673082679094      2.5108359934468347
   120   1      7.8319659041518577       36.63194149289955      3.8586519620937465
   121   1      11.428824115369652      38.313689222439152      54.283601834155931
   122   1      13.349826847206774      38.252605768150445       1.727784913090918
   123   1      13.134463810397559        2.14508113216483      2.7368325023957256
   124   1      11.363455412125639      1.8551627108630935      3.9864071921459083
   125   1      11.501039353071034      3.7029337287293309      54.170915288380883
   126   1      13.302611922515615      4.0102445261084423      1.2764851644819242
   127   1      13.475348402464936      5.8951135726792829      2.6824106685234592
   128   1      11.684550032829817       5.914429412496923      4.1310756638604156
   129   1      11.678774862483303      7.7860721603320089      54.002543115998762
   130   1      13.342186444563284      7.8499738357946329      1.2324585533140759
   131   1      13.274915036859635      9.8065858724839536      2.7773131951385848
   132   1      11.327972344353197      9.7834854520662287      3.7902476001142067
   133   1      11.532357761948152      11.470685549183115    0.010849093911929257
   134   1      13.367127154115588      11.341525513730748      1.1896692469809764
   135   1      13.261404162028301       13.31598082433076      2.6537942959997523
   136   1      11.429960525071676      13.473401910048128      3.9767535752876815
   137   1      11.458040174153721      15.423051279160109    0.091714296125883527
   138   1       13.47326719136017      15.484212032337481      1.4953522370249519
   139   1      13.394778765073944       17.28871955898434      2.8219726147896735
   140   1      11.395374450940748      17.262092990752048      4.1301504268939064
   141   1      11.455518613936263      19.251365961743563    0.043627794003657537
   142   1      13.555909507470478      18.951331321121764      1.3049935615357291
   143   1      13.455177750866826      20.897501777207509      2.7416744171059588
   144   1      11.691201808292071      21.008018815866016      4.1543023531658729
   145   1      11.435963906935395      23.070407818296985     0.16556611809799057
   146   1      13.477439589046803      22.916088201941552      1.5011472205217835
   147   1      13.385680899684525      24.947134916686178       2.576508532939001
   148   1      11.529679675758429      24.931014291391314      4.1805083181338452
   149   1      11.678174560268939      26.980583140489916      54.066651914938269
   150   1       13.41887982716654      26.865357847288642      1.1963969755375277
   151   1      13.333160882770168      28.854087990385398      2.6578088547118481
   152   1      11.497039991505586      28.757122052479822      3.9108821034785239
   153   1      11.547209273514234      31.003849092780463      54.118223018661467
   154   1       13.41353011770528      30.954902808581867      1.3420467228865161
   155   1      13.680669681131629      32.501772453118726      2.8787477525562268
   156   1      11.365829571887144      32.703597253941105      4.1096512942188612
   157   1      11.585593390348269      34.372171785948517      54.291637250822795
   158   1      13.473018799554612      34.274411716164977      1.3274606832684421
   159   1      13.525589113249794      36.256681070114539      3.0892524957240206
   160   1      11.420144384066157      36.419823986864678      4.0814509375234049
   161   1      15.186688076269933      38.351393293733047    0.055696360549768363
   162   1       17.21214171916958      38.356213259165827      1.3163700605413295
   163   1      17.448791759178761      2.1090867216265665       2.557005400382852
   164   1       15.29526530537369      2.0459125458735747        3.86360704427682
   165   1       15.31052994128267      3.5901232405716055     0.12699319618295718
   166   1      17.605456418584925       3.901042989232272      1.1994879107279512
   167   1      17.673266267310719      5.5989708747386793      2.6490789966114798
   168   1      15.661405906527774      5.6276127699341831      3.7752255746342254
   169   1      15.354032120554592       7.460391778490095    0.045116981386115654
   170   1      17.375367145219538      7.5332247039982434      1.2883503661037257
   171   1      17.194666753467324      9.3977365402553641      2.9411936772543412
   172   1      15.240178759494706       9.523239588452709      4.1497644708299068
   173   1      15.424214583007855      11.497290046851871     0.12791889611442026
   174   1      17.235545448060481       11.40785057373064      1.6628311006448844
   175   1      17.467076504737918      13.339745933483732      2.7984145046919577
   176   1       15.19746553721685       13.32724323288457      3.8476447365125974
   177   1      15.383320118461521      15.320958093786404    0.069028072284095326
   178   1       17.21692267887687      15.241390081246111      1.6197840675445396
   179   1      17.317272807825052      17.354418168208671      2.9665305540288816
   180   1      15.143689173258021      17.450241433149753      4.2581913302005123
   181   1       15.73712037206761      19.291478249958445     0.47751830024064934
   182   1      17.742370733953635      19.275619254982512      1.6041820936216469
   183   1      17.313153231584355      21.187525158759364       2.941753416125096
   184   1      15.281357019091949        21.0494950592763      4.2588191114557388
   185   1      15.465667386494419      23.003540539732178     0.28465017775314444
   186   1      17.443015572495394      23.230753948673986      1.6923499744297033
   187   1      17.218016778208792      25.258733203064647      2.7227413986419808
   188   1      15.294530605902489      25.130153435477055      3.9534007640343813
   189   1      15.264899965602034      26.997700687758641      54.088712938991506
   190   1      17.176705066579682      27.031989805299109      1.1251674707601509
   191   1      17.246177898435128       28.62259922968887      2.8097796320545161
   192   1      15.260300419662684      29.161893939025948      4.0964219793057621
   193   1      15.524602705810235      30.791158436333909     0.19124827598212732
   194   1      17.463670938398604      30.581386860508236      1.4851467097471538
   195   1      17.715208993405493      32.608786086290131      2.5785679268263597
   196   1      15.635897863603068      32.567925580780489      3.8823599734480565
   197   1      15.426922060287716      34.389089618981771      54.202974226805125
   198   1      17.413610926525291       34.46818200065367      1.3815081904929234
   199   1       17.38943056329725      36.511429336656072      2.7350745224354251
   200   1      15.447482567373099      36.223439648452491      4.0332576937925078
   201   1      19.137648501184817       38.27881776327137      53.941754051584326
   202   1      20.964752459794322    0.032579710148847557      1.1885395672564296
   203   1      21.082051343587324      1.8713318737085147      2.5965351256207101
   204   1      19.184693477278756      1.7858228067820492      3.9744591925608215
   205   1      19.642856655909597      3.8380210255940388      54.010717473846121
   206   1      21.340693978782905      3.8989118075817921      1.2501161147506319
   207   1      21.498958127253012      5.6711982743074154      2.8650581930806411
   208   1      19.550850352119511      5.4984264171306991      4.1532070469470792
   209   1      19.152013397825328      7.5996081191136078      54.229817800181117
   210   1      20.990866230326446      7.3851904742126484       1.521319216953976
   211   1      20.980394357451683      9.4513894711222015      2.6174955545423151
   212   1      19.248578852441394      9.5337621392520138      4.2212315731341619
   213   1      19.210757698624697      11.425998419127708     0.27188434307049675
   214   1       21.62906699418701      11.418017348040761      1.3380659019830423
   215   1      21.127666344445419      13.376734122790491        2.71663011903322
   216   1      19.291645776262957      13.229942079306433      4.1450425625113549
   217   1      19.159405505455169      15.308771202147243     0.25607502633354212
   218   1      21.178801240797718      15.394281978201292      1.4110775324147888
   219   1      20.929810140894141      17.363285423091437      2.5607987182947127
   220   1      19.190835093290172      17.156483233751359      4.1085152843084956
   221   1      19.445195339822927      19.151175105050438     0.26189299860591303
   222   1      21.181330841160417      19.400354590945014      1.7137202489288834
   223   1      21.000714803946572      21.336662066763836      2.9207619674836205
   224   1      19.286109433800402      20.986845444439652      4.4285019028176977
   225   1      19.288917615022427      22.959366875059821     0.26993133581455603
   226   1      21.447485647056542      23.064878741177424       1.470916596833697
   227   1      21.146547623209873      25.052290640859017      2.8406313119003692
   228   1      19.119942032093093      25.034866287814506      4.1094474280125706
   229   1      19.095972591419503      26.920534711028168      54.276773701315825
   230   1      21.026303848652933      26.995348752356506      1.3164589123658619
   231   1      21.004064390094833      28.915915491983128      2.5806855696572235
   232   1      19.177096679019868      28.984047278288855      4.0563892127055627
   233   1      19.389292877552421      30.774444777336619    0.027203980233878173
   234   1      21.299129920385543      30.911869813760717      1.3516886708376536
   235   1      21.326149078850104       32.87425183466808      2.8129171074210393
   236   1      19.318920826112073      32.470680052820079      4.1992098471451866
   237   1      19.212009617520035      34.504043052503505      54.262064655068343
   238   1      21.263167085861383      34.813081247365133      1.4735135323063333
   239   1      21.175269328259617       36.71185855983687      2.9912472155953651
   240   1       19.29786691762801      36.457323584606321      4.3144480953692756
   241   1      23.111250628693309      38.276516625537525    0.097622630315993067
   242   1      24.926506755211122    0.040391177303194775      1.6878113073818433
   243   1      25.056636723933952      2.1319618247290917      3.0381020567142838
   244   1      22.751007219432029      1.8526437377885834      4.1343026494042308
   245   1      23.358849680769499      3.8419374603170118      54.128305924606742
   246   1      25.296439228097288      3.5974036072488529      1.1349460496166535
   247   1      25.211949923280162      5.7622213556176343      2.6372843872309866
   248   1       23.40627293662935      5.6703819246788507      4.0630968590553245
   249   1      23.016647778813404      7.7861974116611945     0.01235914726856888
   250   1      24.918777939412731      7.7593303209750326      1.3228956272243855
   251   1      24.741989236877949       9.447898591710425      2.8123658795222823
   252   1      22.819151339709844      9.3284342791131092      4.1812528377343812
   253   1      23.428207654876072      11.574423208392169  0.00066631253764626232
   254   1      25.100415477372543       11.51503723948746      1.4608266164066119
   255   1      24.884995745673102      13.417072839017969      2.8001433822959818
   256   1       22.95510195345982      13.293313626838088       4.257945489389896
   257   1      23.201579744998977      15.350254009811703     0.26570097994929259
   258   1      25.077257219344503      15.315961316649519      1.4837643902707693
   259   1      24.973537971396983      17.319850490468941       2.917713114737067
   260   1      22.893467707229529      17.349220721829223      4.0339122975257045
   261   1      23.125648561001238      19.217652810314721     0.19973641613912629
   262   1      25.165502873686044       19.16227403686058      1.3311394048288103
   263   1      24.891666927551078      21.087558288870202      2.8147580166176231
   264   1       22.93052418281037      21.289840474015598       4.217982323578803
   265   1      23.026877275988287      23.075208046552341      54.179507022631817
   266   1      24.744682378823665      23.029081548058869       1.413781483987224
   267   1       25.08349258219727      24.813968976336255      2.5757725270143155
   268   1      23.210187424852265      25.002371325046283      4.0138636116200699
   269   1      22.921858276773776      26.897483277400504    0.012183509034832689
   270   1      24.892322982883577      26.779360640726129      1.3105754855989089
   271   1      24.818264671086979      28.528165477922613      2.6530866629448631
   272   1      22.849985430764672      28.564583907363101      4.0513962854524612
   273   1      23.318126650375863       30.72680543969232      54.028174431681094
   274   1      24.956452184258481      30.604966360007239       1.304625317417516
   275   1      25.046196749869058      32.386835836761435       2.713451501332568
   276   1      23.110612291745479      32.613020893801981       4.141337113848885
   277   1      22.947094258032337      34.496161357890003     0.18262228468894368
   278   1      24.962356306061849      34.459170732922701      1.5553030268150674
   279   1      25.049433275531875      36.437080306450859      2.9431653819397297
   280   1      23.185620331261969      36.431053717262188      4.1453321042665277
   281   1      26.813932383633205    0.006804416955174513     0.37116268469961822
   282   1      29.051081211105647    0.029995104568210775      1.4244799783430504
   283   1      29.120846744893228      1.8985707468715145      2.7311550435117411
   284   1      27.060183588597141      1.8921584215612894      3.9281119231949808
   285   1      27.188361030998919      3.8451320999244496      54.132780593055664
   286   1      28.777554107994895       3.841701093227933      1.3653938432501014
   287   1      28.895136149017926      5.6490456226624781      2.7265607204537652
   288   1      26.925204378559673      5.6494947912712075      4.2636254746725761
   289   1      26.982024330130407      7.8931427946757946     0.26755518520847066
   290   1      28.992094281626514      7.5675466182732221      1.3842201486934773
   291   1      28.840728462997379      9.4671172325975856       2.728813520666804
   292   1      26.764663678273543      9.3291147041116389      3.9604082560418106
   293   1       26.83045967885182      11.623871857804724      54.194365865213186
   294   1      28.764995355760785      11.484251850015584      1.4589319441546875
   295   1      28.590872830911543      13.339848527871336      2.7901077650143771
   296   1      26.652436949908786      13.318976854428703      4.3078732669520363
   297   1      27.078539857362916      15.086260225837499    0.062699254748997693
   298   1      28.811103934717142      15.563562266658915      1.4993242765272616
   299   1      28.537756681735786      17.289134906647064      3.3110691291984837
   300   1      26.522597550134098      17.400908530754737      4.4995623955148281
   301   1      26.981383380158945      19.155147248341262      54.165907597715183
   302   1      28.608766787718899      19.098819925462717       1.753463638332776
   303   1      28.735336480442935      21.092021853306534      2.7848380529635501
   304   1      26.701329441416654      21.040166939250238      4.1351378693370755
   305   1       26.73830692045928       22.83990817619247     0.11159684184518708
   306   1      28.883954631162364      22.886829787866425      1.4289365839021679
   307   1      28.838029418849164      24.833187524988642      2.5673350065216143
   308   1      26.912306754844266       24.89190847868726      4.0717472002642214
   309   1       26.74700377571142      27.040506130132737      54.259244881089188
   310   1      28.689168699094814      26.844990678530447      1.2642567527295661
   311   1      28.763879517006796      28.835052533256462      2.6913551460547991
   312   1      26.864035310112289      28.821588494129259      3.8966993958218827
   313   1      27.032528379632847      30.845081351206328      54.297039441644614
   314   1      28.901747084889728      30.691488336395835      1.3225710662287156
   315   1      28.870046636989319      32.597942011870785      2.7332156050960301
   316   1      26.922880911114532      32.408208313678315      3.9150680472039219
   317   1      26.879827132240301      34.393836108201739    0.091577099082951252
   318   1      28.860076411176518      34.663972140128365      1.3557331887270179
   319   1      28.989813363270486       36.49640088391692      2.7383275567459453
   320   1      27.173360272448797      36.235414672713866      4.0023449253950494
   321   1      30.739434677986587      38.365295738748976      54.043008337306738
   322   1      32.489067881961063    0.013161374848231273      1.2664989642891316
   323   1      32.802194439495992       1.806153756198603      2.7225538897673101
   324   1      31.004692395614338      1.8794937094412398      4.0789553268225536
   325   1      30.709518450112181      3.9477312834170823    0.081289261746531005
   326   1      32.594843123494897      3.9666450730274176      1.4814356000300215
   327   1      32.752547242444507      5.9753435375208959      2.7529222309666039
   328   1      30.870745184757396      5.6913579347897016      4.1424457139387867
   329   1      30.839430729131834      7.7422577192878839     0.12309727696277808
   330   1      32.984418109079627      7.8076657808439531      1.3122725574130651
   331   1      32.710936954355475      9.7102840173711797      2.6909778839785741
   332   1      30.695240089948673      9.5417244503652601       4.239106653687327
   333   1       30.58917610269819      11.343956453598159      54.060421058505781
   334   1      32.373105779355541      11.650817821623102      1.2751851715589393
   335   1      32.230788941451863      13.690572253109114      2.6790535186691971
   336   1      30.376157546079099      13.282977583067396      4.1467807372623131
   337   1      30.611719301543197      15.516497506415101      54.047947335139988
   338   1      32.483717914242547      15.679840344996505      1.1113485378406822
   339   1      32.485839439976758      17.179553428701571      2.7830589526934206
   340   1      30.717718817620234      17.367920322081734      4.1807341517728549
   341   1      30.574232317340137      19.058062171510791     0.11110741574284494
   342   1      32.405051367400688      19.374973182211725      1.6312021315073919
   343   1      32.951857688749726      21.149741830945775      3.0924456949317212
   344   1      30.709310530913729      20.972624855698243      4.0179157080881822
   345   1      30.915671322565885      22.966216301916411    0.036225284192983036
   346   1      32.711227758469484      22.922882374926168      1.5163637805467811
   347   1      32.527196557706368      25.043559318013816      2.4367053705237698
   348   1      30.678828193267879      24.973828081048435      3.8922760149060074
   349   1      30.569696617612962      26.945822665260117      54.054211187893898
   350   1      32.348826744068958      26.875335214261298       1.032598461973055
   351   1      32.435528095795107      28.703363751854621      2.5532596975115092
   352   1      30.537797824196126      28.781034088186416      3.8149506848735215
   353   1      30.598211532316139      30.728297444565602      54.089664021179033
   354   1       32.54626527063099      30.945731463535637      1.2839886166349395
   355   1      32.530896772855357      32.770654532380625      2.7114779741902897
   356   1       30.72140728370934      32.646805449283057      4.2074081863345452
   357   1       30.57262276259851      34.361191287334364      54.167214115603727
   358   1      32.465157424424184      34.532889750738377      1.1335162636823957
   359   1      32.658153850673237       36.29884364037234      2.6408786576155086