dump/Fe_750_0/steps_41 (written by ASE) 

2000 	 atoms 
1  atom types
0.0      28.699999999999999  xlo xhi
0.0      28.699999999999999  ylo yhi
0.0      28.699999999999999  zlo zhi


Atoms 

     1   1      28.692632835400644    0.092725185009317188     0.10411577139242359
     2   1      1.3877563270239979      1.6006115017308944      1.4899659815084878
     3   1      28.563134638949595      2.7660306284028824      28.696997767139422
     4   1      1.4059507814921754      4.3413815144080097      1.4311586576168103
     5   1     0.06452487606502498      5.7419572349122809    0.043007364244101592
     6   1      1.3430090379411477       7.070147531054161       1.402952513795175
     7   1      28.660357837097351      8.5366018542133695      28.663908972618422
     8   1      1.4768668539137375      10.086791821949278      1.4318599189965324
     9   1    0.098964160058337997       11.51371400553492      28.662620699309702
    10   1      1.4238830581282291      12.865837346788112      1.4495351925358482
    11   1   0.0011481666680791846       14.38114846943464      28.565662204482521
    12   1       1.610321565783704      15.654748364426304      1.4297043743576634
    13   1    0.066299207859233905      17.136710830471362      28.681009122493965
    14   1       1.337732215916436       18.64866709415876      1.3575431688929713
    15   1      28.610351768232139      20.090005006793202      28.658853977047372
    16   1      1.2976019951748534      21.549448819886059      1.2635826711516644
    17   1    0.063755984307332314       23.08959315605496      28.486643404450007
    18   1      1.3620195899374508      24.376693874856848      1.4584435647811702
    19   1    0.069949431764452313      25.885122264884117    0.028963061541298872
    20   1      1.4084967141016145      27.284204588655232      1.5581736962073132
    21   1      2.8297313931335824     0.12888168847913636      28.624925937350387
    22   1      4.4057971594281975      1.6214987159271563      1.3376177440936419
    23   1      2.8509838486628958      2.9106930362967787      28.600776319343826
    24   1      4.4244603569554144      4.2986000981530363      1.5433307555946605
    25   1      2.8101970807274519      5.6297913641225135      28.663260533499937
    26   1      4.2473555480127771      7.1431712436520911      1.3649162006992461
    27   1      2.9112130831107552      8.6918844979554404     0.23524986429592884
    28   1      4.2968080751070019      10.167139309533592      1.6359085415339227
    29   1      2.8001124520187464      11.433481665244058      28.628786259186445
    30   1      4.2843664717389096       12.86370439330654      1.4278984016016121
    31   1      2.6860125793944714      14.170693173491989      28.518628092926281
    32   1      4.3182722433965406      15.698605650862749      1.2382741401406163
    33   1      2.9008346403750696      17.373738092205265      28.648291334209095
    34   1      4.3844138655782086      18.578810967681935      1.5499520394082427
    35   1      2.6719925168971042      20.183348058543231    0.022398213520875739
    36   1       4.322007108113171      21.526039471350916      1.4455367083167641
    37   1      3.0123234093762186      23.082520909822193      28.674956773314651
    38   1      4.3648761072247382      24.400494679395187      1.5047793329461439
    39   1      2.7315809736522176      25.708837030351688    0.020741864120088837
    40   1      4.3735226859482497      27.265720751489788      1.4694592096959811
    41   1      5.6445530961738353    0.084734688081893619      28.604772675059195
    42   1      7.0989469484139542      1.3591335113671668      1.4034451548134816
    43   1      5.8180519175680576      2.9766965082869317     0.10167554126929855
    44   1      7.3642496857572075      4.2612235979801687      1.4122010476041054
    45   1      5.7331956034679035      5.8771682043715918     0.15723268626308029
    46   1      7.0709498145335035      7.2711940957433381      1.5367118837138842
    47   1      5.5738229801891741      8.5723652437406574    0.071803313508542035
    48   1      7.0612711013491785      9.9922996683113094      1.4877987286431091
    49   1      5.6577414835671007      11.508949725709201      28.683037758675386
    50   1      7.1237718943126973        12.9087846491355        1.34141629736847
    51   1      5.8022061873534847      14.457179880914458      28.425103679653436
    52   1       7.176148236857685      15.753774597321051      1.4393174411920531
    53   1      5.8009363143269095      17.286530706923706      28.594349128510544
    54   1      7.1840731207517425      18.565545865875983      1.4844495603711025
    55   1      5.7870924640995565      20.240672977212405      28.684356460928662
    56   1      7.2632736192625895      21.398810450156319      1.5045544254351961
    57   1       5.869400653362197      22.971775472794139        28.6200527576406
    58   1        7.34019603174736      24.337585457987181      1.4024599258987112
    59   1       5.751139225959264      25.860130852693128      28.657503346336071
    60   1      7.1944768265029442      27.217696911183022      1.3384681554630893
    61   1      8.3649915075446906      28.588279148185279      28.643481417862489
    62   1      10.037722692374386      1.3352016018385129      1.4381657235368959
    63   1      8.4917910323520385      2.7156820608314325    0.019900807543308457
    64   1      10.079957673181854      4.3549484599696839      1.4237524418419418
    65   1      8.7348470906697813      5.7749529622069513     0.12046831359965601
    66   1      10.141818146988689      7.1303959019023484      1.3489450972472699
    67   1      8.5119141448241322      8.7198654925668002      28.657224443127735
    68   1      10.057068860716122      10.079285183792766      1.4640539380685014
    69   1      8.4731719997227639      11.494602027052562      28.489326280853891
    70   1      9.8983500995096971      12.955778816838542      1.3511911260973635
    71   1      8.5502275985262255      14.248782173148289      28.526643685876849
    72   1      9.9880194137055689      15.671290352024938      1.2060611994690376
    73   1      8.5278117675811433      17.154776908619525      28.620731761435014
    74   1      10.159944657463909      18.476768307044019      1.5770499097206978
    75   1      8.6550703501156825      20.018837840443229    0.051788391547631894
    76   1      10.064709466233541      21.462812273411085      1.4100889146690752
    77   1      8.5898319758394752      22.946095824634178       28.58689967110918
    78   1      10.073637775282924      24.391495875792927      1.4167256612631025
    79   1      8.6128342701450826      25.796327099701966      28.597594516117113
    80   1      9.9607394083782594      27.337906459780406      1.2900484311971678
    81   1      11.358127615977462    0.019686110141892133      28.686191909056081
    82   1      12.968538964216542      1.4477799206290223      1.5343005945656838
    83   1      11.559157439555497      2.9834581736020969      28.677267383010729
    84   1      13.005844280795849       4.298052839289209      1.4741217941179452
    85   1      11.661513001903725       5.825528850181418      28.698419113271513
    86   1       12.95777520025962       7.378008338136083      1.6035998479728388
    87   1      11.267198482239777      8.7713694356897882      28.696299410682229
    88   1      12.901997594984277      10.103533283633192      1.2487878944995137
    89   1      11.508920891633794      11.535230601171225      28.619906656659186
    90   1      12.733600211472627      13.047486353539288      1.5643711058963745
    91   1      11.635329817431892      14.356712262699775      28.661664098224719
    92   1      13.101415326364425      15.789231696176461      1.6549465937223102
    93   1      11.542173229231548      17.256977131788627      28.632754432346378
    94   1      12.958424653541703      18.520117245714676      1.5292622835514413
    95   1      11.467722530792578       19.97001220795838      28.602255170593793
    96   1      12.823794088681206      21.297565403838362       1.516804742370083
    97   1      11.516254919870621      22.798902641316289     0.11994447668340624
    98   1      12.761278296918917      24.418098220940511      1.3201260923805314
    99   1      11.462190014659191      25.891053810624598      28.623715914217669
   100   1      12.848286659802598      27.413836282566713      1.3283959912257268
   101   1      14.323348645043735    0.066119704693973755      28.610408044917524
   102   1       15.74272205086768      1.4852163822888094      1.5624577884838686
   103   1      14.479847552952375      2.8514658781054689       28.53001803700359
   104   1      15.907506096109721      4.3389694522539051      1.4419349750382835
   105   1       14.37952585191673      5.7287702604308954    0.096048417320582752
   106   1      15.811002022530682      7.1406525706773731      1.4057839791661633
   107   1      14.440590494181357      8.5778393237257458    0.082698897983971231
   108   1      15.998917685612298      10.029768515973279      1.3405659792240963
   109   1      14.456786923613022       11.56142193359978    0.066288854456774932
   110   1      15.873392114118529      12.982216886316662        1.45901142441179
   111   1      14.335834821164546      14.327082300611083    0.041721527712866129
   112   1       15.86474327480772      15.776679597042046      1.3087643227864521
   113   1      14.429574710411075      17.255190731325037      28.595057421343629
   114   1      15.769073836773691      18.608940917842684      1.3601017543261149
   115   1      14.183966470206567      20.025771636446034      28.668679646686602
   116   1      15.589219109727392      21.586464679405328      1.4593177498522079
   117   1      14.203849400436152      22.978826492002479     0.06942626544747546
   118   1       15.70692385788147      24.301936747030766      1.4620761196053547
   119   1      14.372215356912236      25.705046525041464      28.535994230464809
   120   1      15.898033549397498      27.169658876021437      1.2307596217802472
   121   1      17.168750543797994       28.60767624201597    0.062220103673826223
   122   1      18.765140061013877      1.4377845006134067      1.3227647713480795
   123   1      17.180538967644701      2.7830865939846952      28.659671579469347
   124   1      18.686579420441642       4.260747947857582      1.4585720229161878
   125   1      17.130919967628206         5.8296580628851      28.687529550650513
   126   1      18.706780111400683      7.0695399978943181      1.2609473112015623
   127   1      17.300987920825882      8.5372270104844858      28.529212892380514
   128   1      18.733832395080643       10.07445339629362       1.353649945691916
   129   1      17.212693893504721      11.607515311136755   0.0030921693940854445
   130   1      18.732828985903311      13.015531842971678      1.5610825406650053
   131   1      17.264683771685913      14.321892603262565      28.647367864461913
   132   1      18.704685948322489      15.752973396149157      1.4862522520757921
   133   1      17.194578498595558      17.371782425522575    0.018295944634519393
   134   1      18.544322040130872      18.698255454818458      1.5162969425251271
   135   1      17.250748177772429      20.162262776912261     0.10441266082551688
   136   1      18.707056213851772      21.647599566167436      1.5315435009440859
   137   1      17.152878614848831       22.95949768769167      28.641853042347236
   138   1      18.741261109730694      24.253007637353029      1.5157191281652882
   139   1      17.460761246989509      25.875313925898876      28.676255650647335
   140   1      18.589114690154201      27.168292552078892       1.438077667725882
   141   1      20.128161390567236      28.653324473610471      28.686087257288293
   142   1       21.59989503305545      1.4688988718101077      1.4527365615342998
   143   1       20.09418070322657      2.9162948301530971      28.639914931212775
   144   1      21.490858777813898      4.3200663613638337      1.2620995582023293
   145   1      20.141569718622897      5.6781758447402444      28.539306945102442
   146   1      21.692356386081439      6.9439017944580099      1.5515146554828438
   147   1      20.009179680039498      8.6235106073807621    0.094470155927501756
   148   1      21.532285567882436      10.205313187847754      1.3602470402847648
   149   1      20.036808368182239      11.709216201249818      28.677058716172183
   150   1      21.539619690659244       12.91557801294894      1.5123403856456545
   151   1       20.03203804180098       14.34545193410146      28.585007493132551
   152   1      21.439134755176287      15.873699495770419      1.3577508967675622
   153   1      19.925870255157786      17.357721176970433   0.0035607616296260995
   154   1      21.533267865499759      18.585244119836315       1.488332731689445
   155   1      20.052886636385747      20.045005462005431     0.21569072598672395
   156   1      21.506072745237976      21.559845618505179      1.3878910658050347
   157   1      20.126407512977543      22.954061391235481    0.073481467027363495
   158   1      21.598464205142019      24.362862018218255      1.5243846767682734
   159   1      20.169338805197938      25.839088446297655    0.076472736112827955
   160   1      21.707839919023236      27.389361577782918      1.5438869925986531
   161   1      22.960523164328603    0.058114293360428657      28.695500355659352
   162   1      24.524082546849058       1.469104879621443      1.5127919131349807
   163   1      22.986967457598229      2.7575455515962295     0.01536287547627352
   164   1      24.365397518135651      4.1366812619305717      1.3115694354213805
   165   1      23.015182503751848      5.7152853580089937      28.551826832364419
   166   1       24.25414911409117      7.1299958252392237      1.3786814610951299
   167   1      23.130087104067258      8.6055648522631234      28.428498655854909
   168   1      24.544109026940578      9.9252209218280694      1.2592920230630837
   169   1      23.105017403597152      11.510390213086891       0.015780890780934
   170   1      24.441783561741559      13.030049631315958      1.4309795604334907
   171   1      22.756315586378562      14.374348706283872      28.673523817375518
   172   1      24.448830975111672      15.802678194188919      1.4518754210691436
   173   1      22.936285893243205      17.183257205123777      28.643975636793115
   174   1      24.203283548709166      18.633890224547777        1.31771984582382
   175   1      22.998676797251715       20.23061436935302      28.615825981834277
   176   1      24.447689654893889      21.454437365883976        1.49991150254035
   177   1      23.014988399818282      23.026481313510743     0.22602318189623247
   178   1      24.521721768948058      24.637975163593886       1.527938152857917
   179   1      23.046774427261294      25.872199445828652    0.089828017249578909
   180   1      24.468221644019678      27.222583434781807      1.4790715780275256
   181   1      25.895421172264509     0.11270836403245021      28.583613568418475
   182   1      27.208792889561767      1.4402895266605691      1.5534276691797355
   183   1      25.897412368006602      2.8325472887071443    0.019701016019018875
   184   1      27.306037607476739       4.327488027031019      1.3502013181421038
   185   1      25.720907665945663      5.7491215727252669      28.651763307935845
   186   1      27.295220041804761      7.2336637353327999      1.5056907831276469
   187   1      25.752471443187069       8.412217560853648      28.574203608941307
   188   1      27.300541966776176      9.9417640534208758      1.2999155050118012
   189   1      25.779889792079778       11.51590433367083      28.628070247717453
   190   1      27.205011440487088       12.98782913002089      1.4137506881726607
   191   1      25.794013444036885      14.421399334088028      28.634105644595223
   192   1       27.24005371699652      15.883308162040155       1.492500393930549
   193   1      25.886816786783463      17.366713664264129    0.080830238891451106
   194   1      27.253761563672434       18.75307560059553      1.4885824997219059
   195   1      25.772729557840481      20.110457071920333      28.672711817887361
   196   1       27.22449096208274      21.554509230828153       1.292543402558864
   197   1      25.677792935017884      22.965054676345989      28.647959137706906
   198   1      27.319326548570086      24.377187823812577      1.2884535227891998
   199   1      25.915163837292177      25.774262598558121       28.62848311907463
   200   1      27.205474939674996      27.227612581656029      1.3449802684829362
   201   1    0.019741562901926621      28.691542757539821      2.9506289828186398
   202   1      1.4149304993166307      1.4770781726339246      4.3614176695828863
   203   1      28.567175910771571      2.8911151256420484      3.0626384226009544
   204   1       1.365965283759931      4.3040243254536694      4.3093928035840987
   205   1    0.038264449325993766      5.7554755981980952      2.7816717793827817
   206   1      1.3786646505872444         7.2847402754432      4.4618377172088497
   207   1     0.11741490154689771      8.6255257696925653      2.8704027250460595
   208   1      1.3257413621962999      10.202338393096102       4.275524136261863
   209   1      28.633716373896394      11.592607459807803       2.861763753813976
   210   1      1.4919903572940276      12.924997953652626      4.3065013835650552
   211   1    0.023045790744675887      14.494029345371949      2.7959807793112317
   212   1      1.3949252793833924      15.811450042728517      4.3184556737217816
   213   1     0.13791567791254361      17.192713762241883      2.8145490810864544
   214   1      1.4573165903265826      18.612979173080557      4.2805294006686356
   215   1     0.11810202163407141      20.227287734923735      2.8922302783438401
   216   1      1.4289755264518487      21.818720854682578      4.1871951204803493
   217   1      28.692668411622382      22.922383665435024      2.6956899702654122
   218   1       1.234916437359995      24.309501635743587      4.4195789713201465
   219   1     0.07269073620365317      25.769485100042427      2.9789449287555527
   220   1      1.4769530877084005      27.357175880347192       4.396455784910426
   221   1      3.0040731583119173     0.10099417578123859      2.8823756800941265
   222   1      4.3268901498051058      1.4535662949943011       4.474391017975007
   223   1      2.7368704218434554      2.9972307645256051      2.7947193695106205
   224   1      4.2741606738513243      4.3399284988068736      4.2910753164666815
   225   1      2.8534187155808133      5.8334880318082813      2.7371934417563679
   226   1      4.1405363227412719      7.2752091873635161      4.3008579528540292
   227   1      2.7684309659544155      8.6349742354115495      2.8493580905674656
   228   1      4.2294677992298775      10.070132601007597      4.4335865530190439
   229   1      2.8547031761156054      11.514380282141248      2.9433484054140551
   230   1      4.2632599620589691      12.825938871550544       4.373199034593072
   231   1      2.8937679394548392      14.300056116580615      2.9164851027815928
   232   1      4.1853611831589808      15.644796139496439      4.4114310055042694
   233   1      2.9346762066222043      17.160683101636746      2.8783282925612874
   234   1      4.2244793330921881      18.591848321450904      4.3645686534809922
   235   1      2.8743581927727222      20.089490653146139      2.9388039430044892
   236   1       4.323067718030436      21.590734951224924      4.2251046250799513
   237   1      2.8205965030424314      22.975533109587726      2.7525977102508588
   238   1      4.3330709253771786      24.394606341468645      4.2676089143836116
   239   1      2.9210812752216611      25.802250500151416       2.773962544639426
   240   1      4.2117049685416861      27.373003239646529      4.2169758017462877
   241   1      5.6132709380714276    0.042592767505289036      2.6919051242997396
   242   1      7.1696513493368075      1.5797738209300629      4.2761057046894706
   243   1      5.7375387860931273      2.9033424058239192      2.9529895949002452
   244   1      7.2797886693802312      4.4717814692450695      4.3940767690570812
   245   1       5.690362460959725      5.7030648266997668       2.928221270040825
   246   1      7.1729206823684102      7.1160166508822966       4.244576961578046
   247   1      5.7356788760521944      8.6221687086810199      2.9687581584502518
   248   1      7.2946781747349156      9.9137652934233067        4.52627274699464
   249   1      5.7875261761217613      11.562424379072878      2.8376148602137263
   250   1      7.1566226993935649      12.787297340915909       4.541248600182521
   251   1       5.714568193235384      14.206954422001981       2.844125291025466
   252   1      7.0191486045287723       15.83627596551651      4.3287580193623167
   253   1      5.6221831195423748      17.193502522167105      2.8056266007215971
   254   1      7.0632431126427786      18.693600181236324      4.3259293425994958
   255   1      5.7109171271232988      20.061482507603912      2.8322331704866879
   256   1      7.2099808054922079      21.435181850933532      4.2280691369841987
   257   1      5.8069544536034217      22.936690933410539      2.7634684104384508
   258   1      7.1913707857977283      24.437864431661222      4.1614477407887138
   259   1        5.71743166074197      25.855662177480095      2.8902092652060691
   260   1      7.2280409534758681      27.542844221728497      4.1441146465099887
   261   1      8.6828997442478393     0.13954012387455372      2.7937055267831061
   262   1      10.291422914974216      1.3566151801394084      4.1602922947473759
   263   1      8.7217910688771543      2.8584372797486584      2.8606655521298183
   264   1      10.092942389071132      4.3375579609926511      4.3735179811785727
   265   1      8.6514376048378683      5.9312627610777078      2.9380047951660342
   266   1      10.000447642395146      7.2673926290806286      4.1678970321273621
   267   1      8.5209867250681661      8.6652006108425823      2.8405503465579032
   268   1      9.9593597255198461      9.9825449352952216      4.2747576345598137
   269   1      8.4770121263710205      11.457776337552867      2.8299126966337993
   270   1      9.9871419623375974      12.799878190512869      4.4181443192015433
   271   1      8.4937257366798367      14.161190727187345      2.9490212488112864
   272   1      10.013253285249178      15.643907138585561      4.3380066158009303
   273   1      8.7447853372356263      17.149898497331261      2.8086431977166395
   274   1      9.9577035357945665      18.562597081496769      4.2868444881871755
   275   1      8.6182547708051285      20.069749300532433       2.910596872390824
   276   1      10.043662998328529      21.304534762536914      4.4027178007159442
   277   1      8.7886730283315053      22.911153149073879      2.8221962597316281
   278   1      9.9413539069230445      24.429732842161002      4.2370698934579041
   279   1      8.5487594673046008      25.937158020091356      2.8337573077303531
   280   1       10.08018042002265      27.365839601680698      4.3808806012335051
   281   1      11.421187222698753      28.437736042944483      2.8402887315413174
   282   1      12.921622109737088      1.4488995955265866      4.1726696663512266
   283   1      11.457508541389709      2.8825549678452367      2.8886387523003503
   284   1      13.073516357254071       4.322632782822323      4.2547176877360702
   285   1      11.421645586611756      5.7042514478059703       2.828114880360205
   286   1      12.890129529466769       7.304173658031841      4.3933842734377837
   287   1      11.508024001993379      8.8493659293821967      2.8359838297106319
   288   1       12.85019952524708      10.207512085192294      4.3849541738525852
   289   1      11.235916174677726      11.524391888834607      2.8625227954319019
   290   1      13.101486485751197      12.987538392613759      4.1971625967539161
   291   1        11.3000439667049      14.333593991116347      2.8854569488273132
   292   1       13.06536060607128       15.51925771943306      4.2540074431523243
   293   1      11.367430244498712      17.027909982118175      2.9334787852713671
   294   1      12.909225072579803      18.527145463043514      4.1638541340577753
   295   1      11.507387494597488      19.997306504259775      3.0014540227087432
   296   1      13.011015667803274      21.602746738734037      4.3916129225945228
   297   1      11.586871373663454      22.977150891908291      2.8084715392688615
   298   1      12.956755034149772      24.203079374976806      4.3514594658627948
   299   1        11.5051957328863      25.826403637189095      2.9318121088088023
   300   1      12.978195215255182      27.177739699886015      4.5145524774258714
   301   1      14.326502281986667       28.61673693555932      2.8171186626014446
   302   1      15.843031677037859       1.371378649338066      4.2954440812691832
   303   1       14.35481089858034      2.9096440720873158      2.8478831971479042
   304   1      15.853541350561599      4.1386684345011915       4.399175037022931
   305   1       14.35790091489358      5.8564495540414727      2.9605966086268989
   306   1      15.784684618691402      7.1693857504166632      4.3133282353465443
   307   1      14.312647928597016      8.7315480454323122      2.8717348771122402
   308   1      15.801151128045955      10.083618085312928      4.3896994959626463
   309   1      14.342155531086101      11.287736219797976      2.9954413798939599
   310   1      15.911806537692394       12.92964868148473        4.38058131918672
   311   1      14.708911389321795      14.377372818491523      2.8181348590075115
   312   1      15.675980064463044      15.797096314822285      4.3208877255538045
   313   1      14.441575786114106      17.367285401606818      2.8088444017319252
   314   1      15.860767331355063      18.569425702587139      4.3386891145256783
   315   1      14.270724978449691      19.901010177580755      2.8265360749910649
   316   1      15.686670045813729      21.365283258309358      4.2254053762503752
   317   1      14.360532385910821       22.95653430198621      2.8484740554414874
   318   1      15.593065007836964      24.423319439437151      4.2667327176974768
   319   1      14.296290235668691       25.71527769163027      2.7404205867594542
   320   1      15.865483258522058      27.359329874559659        4.42163964619533
   321   1      17.197748147874396      28.614587380897209      2.7803024343860661
   322   1      18.687796610653063      1.2332916718218376      4.1927624347183858
   323   1       17.36694731582476      2.7045655834875459      2.8222403081798002
   324   1      18.666534150333209      4.3292153866917298      4.4122429501510716
   325   1        17.2770767004438      5.6938602102718257      2.8619908427074159
   326   1      18.714486773077248      7.1568149147428555      4.3412081858604115
   327   1      17.329733013748509      8.6321563428109158      2.8989058971399904
   328   1      18.839871655559179      9.9432091331154187      4.2470323679088171
   329   1       17.40352544843136      11.345517933447068      3.0224858577426472
   330   1      18.800733458561716      12.858153415506086      4.3041080471830799
   331   1      17.302409093089228      14.245813617242758      2.9360984870377189
   332   1      18.542951092062285      15.692879184562361      4.4111725398062562
   333   1      17.251291972430195      17.086144482741275        2.97940066362822
   334   1      18.654494293036347      18.742139647213808      4.2802744294294977
   335   1      17.192136538575046      20.230804130565048      2.8171418598391602
   336   1       18.59005665580025      21.577136920544298      4.0815164454127144
   337   1      17.144302539650916      23.010001505589329      2.8721665102010112
   338   1      18.624755563988955      24.370544153935583      4.4167775516209442
   339   1      17.218451406315179      25.720065277368217      2.9763695536443255
   340   1      18.732052232885685      27.263760539128857      4.2052258239294709
   341   1        20.0657222851966      28.689612992644815      2.7089908890446153
   342   1      21.480156031108372      1.3902863263293626       4.108547164569484
   343   1      20.004023668845505      2.8388935765153622      2.8000325675620852
   344   1      21.633029376334196      4.3305857072856373       4.249747092732302
   345   1      20.306780518018339      5.7114030120418526      2.8990451723002391
   346   1      21.634552796512882      7.2679107479706122      4.0494740022444322
   347   1      20.022744538523735      8.5356325753082896      2.7342105086602366
   348   1      21.400936380806524      10.043477240776371      4.4336718201696979
   349   1      20.144797244118831      11.548814358741675      2.9658200197072815
   350   1      21.457333084860458      12.976714021948803      4.4739865467834106
   351   1      20.160203621486314      14.403971827005721       3.053084822167397
   352   1      21.617964170745907      15.839115646296344      4.2988577972206699
   353   1      20.018328310452929      17.260542933719247      2.9921034988021078
   354   1      21.489475859469309      18.648164733963409      4.3039601043751512
   355   1      20.085881662975162      20.038194589641321      2.8386790524116914
   356   1      21.459079480449699      21.460833215337054      4.3035829435028354
   357   1      20.241137464301541       23.06684133514964      3.0209545576374568
   358   1      21.548083941809786      24.488451961512897      4.3393172167377712
   359   1        20.0898835393835       25.85744591106776      2.8564136398741096