dump/Fe_750_0/steps_31 (written by ASE) 

2000 	 atoms 
1  atom types
0.0      28.699999999999999  xlo xhi
0.0      28.699999999999999  ylo yhi
0.0      28.699999999999999  zlo zhi


Atoms 

     1   1    0.064792057628543731      28.679246089216562        28.6454564142084
     2   1      1.3702538950183909      1.2936691003468006      1.3910496167716011
     3   1      28.590377050748092      2.8587058768180085    0.067196499729357151
     4   1      1.5591771273694792      4.2156949968500195      1.5442993880975002
     5   1    0.081082942684907233      5.7411054516510021     0.13182610901990302
     6   1      1.5299417176047438      7.3031662570125375      1.2571079915022429
     7   1   0.0023470836496136149      8.7541586276561318     0.16861024165928012
     8   1      1.5578824185306759      10.159331716538626      1.3480775941775163
     9   1      28.624861631693253      11.725594863035827      28.611202250513912
    10   1      1.4822104470450332       12.99456941166074      1.3859524310773037
    11   1      28.663987411432288      14.388145416228721    0.048912964437704445
    12   1      1.2455353517235168      15.798967578950641      1.4939161562260654
    13   1    0.006200573553259035      17.145778985369702    0.029889534310723165
    14   1      1.5515648027502962      18.559540759805056      1.3685889136161553
    15   1    0.017362976118182664      19.929651941455244     0.12225371469321532
    16   1      1.4886555474318819       21.37334008189287      1.5587750438549506
    17   1      28.551040336667739      23.004913701576552    0.048923722663801197
    18   1      1.4755517694226234      24.362007572932907      1.4701572652974151
    19   1      28.588641389352688      25.935316175507655      28.676941403376361
    20   1      1.4197841263940318      27.227268959498275      1.4257655168577001
    21   1        2.90285112379626    0.058012947237455009   0.0046709450487924251
    22   1      4.2651963230470491       1.369303560559114      1.4367526612772379
    23   1      2.7981163012916586      2.8454592110007866      28.698788720087467
    24   1      4.1955400773748535      4.4019856722253508      1.4881446667612968
    25   1      2.9897178990145616      5.9275321226785085      28.639912708275105
    26   1      4.2328172599053318      7.3785805828101596      1.3819940334790417
    27   1      2.9867859896033475       8.670399873206792      28.571242143988176
    28   1      4.2974760499124738       10.06842312915381      1.5452360163276138
    29   1      3.0147089548216361      11.546957367726773      28.695656752593255
    30   1      4.2418639147601578      12.981771253456547      1.4502938882336811
    31   1      2.8743399735391142       14.34874226704291     0.11676928281309523
    32   1       4.180013346802351      15.901646798504249      1.4773679654340752
    33   1      2.8920560831868012      17.244337968284597      28.588398319128206
    34   1      4.2087923933909925      18.652058365968742      1.3501884902391563
    35   1      2.7496408321004466      20.026215851405404      28.635447233190792
    36   1      4.3346984427907538      21.378831248775402      1.2383497798416894
    37   1      3.0077101490924756      23.037088143863148    0.033516716069482339
    38   1      4.2885731253465655      24.446920134059468      1.4326100327640354
    39   1      2.9158693748143194      25.824997272252883    0.094867577571790124
    40   1      4.4229707891878816      27.365308817385579      1.5325901996557818
    41   1      5.7529078986275239     0.15002013686885224    0.074561001761355702
    42   1       7.281950767553691      1.4303533963938764      1.3488578456933749
    43   1      5.7456978432747574      2.8023006915795929      28.602863627966403
    44   1      7.0792711900659464      4.2879622076715744      1.3128156926566807
    45   1      5.7628558192457016      5.8106542671321124      28.575180480288143
    46   1      7.0615762202864447      7.1938326710751737      1.4192844324122589
    47   1      5.9142296329106969      8.7894091004560089      28.486360532612981
    48   1      7.2096314025480419      10.081650690986722      1.4161202350414326
    49   1       5.627611268449666       11.49286881308773     0.17225297749523621
    50   1      7.2064702579002242      12.853048445312757      1.3824305666788184
    51   1      5.8081153919007349      14.328617391957257    0.057325587855632396
    52   1      7.2065356292570897      15.805561235045115       1.451492107319257
    53   1      5.6368638755860552      17.146950392024845      28.687082523411281
    54   1      7.1721248535996018      18.518448101884115      1.3200928999971433
    55   1      5.7578748411054779      20.029107293565907      28.596665389555671
    56   1      7.1702255911978217      21.753288774124783      1.2956845513391735
    57   1       5.700771674807843      22.939504623473091      28.548211223846369
    58   1      7.2324257735920456      24.424139086980034      1.3572103228284846
    59   1      5.6712940516543187      25.788471137199092    0.064998001651895121
    60   1       7.251263525981785      27.275775067905986      1.4735115324411576
    61   1      8.6252998160457093      28.683250560851096       28.56286866104077
    62   1      9.8931124635892118      1.3217290229344469      1.4508719108066217
    63   1      8.6475479617999884      2.8720823878700563      28.629470927873829
    64   1      9.9925101926998696      4.3891580654179041      1.3812924648141909
    65   1      8.5383381757915302       5.818965364394888      0.1171312885490239
    66   1      9.9720998596265211      7.2418242206864969      1.4401152760357132
    67   1      8.4869946996996752      8.5594492539600235    0.056050989829930196
    68   1      9.9313058984527718      9.9652282532361713      1.3905378303117111
    69   1      8.7690059710358579      11.413883502940193     0.01391890617218222
    70   1      10.013041020036122      12.907701813199035      1.3845153327337474
    71   1      8.6763899219408103      14.203934080890729    0.095142036032098004
    72   1      10.038656410694772      15.796346969972381      1.5294078875918669
    73   1       8.672387305539683      17.112812828596542      28.614636479945439
    74   1      9.9231579956972844       18.61168439210098      1.3853750583521556
    75   1      8.5902013341139725      19.893069720433981      28.630719049109718
    76   1      9.9732139193547145      21.509725895552958      1.4270317907543932
    77   1      8.6180074421979409      22.913385454721631      28.578821795309665
    78   1       10.10458133268911      24.432229088910315      1.5266691684060552
    79   1       8.646669945737111      25.767792029820445    0.011184727920476685
    80   1       10.03250237562443      27.170176820357508      1.3002015187347169
    81   1      11.373552500459757      28.550701815647756    0.048607444624781303
    82   1      12.868633567688697      1.3343093405886184      1.4155327785885212
    83   1      11.455733680657765      2.9211442030062269      28.611983119275539
    84   1      12.889775566921921      4.2324850090561048      1.2967876705381736
    85   1      11.509768377865948      5.6472967618711101      28.491624548026227
    86   1      12.786835282690282      7.1020976397095632      1.2932360939599323
    87   1      11.461906327017974      8.7425515749966838    0.020121442264587577
    88   1      12.810505309860565      9.9452238726352693      1.4788088949130398
    89   1      11.439405376130532      11.450603052273424     0.17220602629267875
    90   1      12.967890062956569      12.798551368465839       1.442570318406307
    91   1      11.587147536613626      14.221501519369657      28.674844013287146
    92   1      12.892102586912598      15.489224355555814       1.411373967932867
    93   1      11.594239026436616       17.10414261944149     0.11268142860053555
    94   1      12.978693869877887      18.683545753815977      1.2447439866156293
    95   1      11.384599363378056      20.060164866141466    0.088014093352899156
    96   1      12.882495499077232      21.508097074880808      1.3327298331144892
    97   1      11.276608189984461      23.031940960060847      28.654314708638484
    98   1      12.728719906542779      24.441279444074858      1.5117385807475117
    99   1      11.344152380239525      25.741894885621047      28.391669064235678
   100   1      12.751404633616771      27.120332060916301      1.3072195078813145
   101   1      14.268213117084963    0.070027691790882557      28.631755102292857
   102   1       15.85491030874541       1.400956329010854      1.5405124401694485
   103   1      14.429838288883639      2.7004330905938678    0.069480801562827002
   104   1      15.730211776643431      4.4171842941866508       1.454872722314632
   105   1      14.270667977677745      5.6706959853484431      28.681351028776277
   106   1       15.65520711564816      7.2382023390105799      1.2508524462579893
   107   1        14.2099345404168      8.6743597479388832       28.55514284881632
   108   1      15.728485945613546      9.8691121774350012      1.5214257553763095
   109   1      14.450271263433367      11.252996909660492      28.606616572654918
   110   1      15.758982065935379      12.866625014637037      1.3170214867743184
   111   1      14.262573952425885      14.267082655144131      28.667533639463503
   112   1      15.639230851396295      15.761016217367418      1.3352875539611195
   113   1      14.352648515857034      17.185031528219316    0.013041881867184201
   114   1        15.7144501298345      18.682805622230994      1.4639183047352846
   115   1      14.281512130434001      20.061676157324637      28.595276874383618
   116   1      15.778230113098182      21.554064280998642      1.4854091688358151
   117   1      14.254488178924097      22.783630826440074    0.040787609620281405
   118   1      15.894864853274214      24.352261665070216       1.442398569255614
   119   1      14.389410790130855      25.725392528613032      28.684020816456155
   120   1      15.882769416757247      27.136802247796297      1.3881278611961987
   121   1      17.274457164477258      28.678626921956425    0.083350090139447205
   122   1      18.638813028951386       1.334209100066311      1.4395557428702765
   123   1      17.120094737026214       2.927126076839214    0.080119098365560165
   124   1      18.710483408611172      4.3887761800684792      1.2938687565035356
   125   1      17.309155115428595      5.8397026211369649    0.076209594165368308
   126   1      18.668670647985842      7.0666654906788544      1.4168672807931113
   127   1      17.153554171604465      8.5045475840750573    0.041671389509508695
   128   1      18.595180799348537      10.021885106387142      1.3851659705994155
   129   1      16.956785086411116      11.203511186394762      28.672473230034406
   130   1      18.547760859301636      12.907874349431388      1.3704260158719186
   131   1      17.123970918173921      14.366368723318635    0.099137019269960658
   132   1      18.654911614327805      15.934608325092345      1.3060617659262441
   133   1      17.149147818894956      17.120593805716144   0.0074613085194641703
   134   1      18.469525152376299      18.657852794263039      1.4029183875166142
   135   1      17.182410833605303       20.09298115560868    0.046307036832263206
   136   1      18.565564232334189      21.442479232470493       1.624149171790362
   137   1      17.241684857174167      22.765687350373927      28.611041975960948
   138   1      18.805632576498262      24.385402239465503      1.4098578995651434
   139   1       17.31834795092152       25.66107783003109       28.64846737350436
   140   1      18.707328185817492      27.135712370684903      1.4690072592711427
   141   1       20.13415785214336      28.587747050735491     0.14998410427919001
   142   1       21.58612688205589      1.6224348555707142      1.3876690610158442
   143   1      19.903883790381101      2.7647651770122135    0.043344250414065845
   144   1      21.508870342007747      4.2364724354381105      1.4491624988711111
   145   1      20.316256670562247      5.7625218241296663   0.0025751184029559216
   146   1      21.745924794119897      6.9764300828853818      1.4109866973999361
   147   1      20.152767438918154      8.6054548851800519     0.16669201584170432
   148   1      21.630776122665061      10.212508234828666      1.4622752823694081
   149   1      20.041682682549666      11.436366874408661      28.699092237360798
   150   1      21.340777535039777      13.084178219590997      1.4592081324643105
   151   1        19.9793045718583      14.420162124631068    0.088147966633835118
   152   1      21.480391357131182      15.893682997348627      1.3788682101049972
   153   1      19.967424961453915      17.415070409839092      0.1912227693479622
   154   1      21.605188549692933      18.651090078201616       1.646383211842839
   155   1      20.180837797845665      20.004809061147192     0.24328837949929039
   156   1      21.674857563901217      21.435470627654819      1.4888501320429324
   157   1      20.079517576092197      22.733168830982631     0.15726434508882209
   158   1      21.525931389139018      24.335694780416382      1.2147068063052173
   159   1      20.172214087432483      25.965329127714412      28.649818172035143
   160   1      21.673794111379515      27.144740746058304      1.4371629038583706
   161   1      22.838930158295046      28.570485437129381      28.645259637100082
   162   1      24.253445717895818      1.4430593732448425      1.5191961989904379
   163   1      23.056966665821317      2.8740163539539472      0.0477490291723143
   164   1      24.410279407581267      4.3624075238668372      1.4524185178962172
   165   1      23.154272829189392       5.656459618005619      28.578120037909077
   166   1      24.396222827235725      7.2030282132405219      1.1266036627992784
   167   1       23.00577639795938      8.6752361996301097   0.0089738131522949498
   168   1      24.363173000500918      10.149401459157795      1.3246148770982926
   169   1       22.83547526511142      11.530053620316886      28.533477059525708
   170   1      24.294236076702976      13.052839556885973      1.2792190448654412
   171   1      22.921918473320655      14.412204510048083      28.663656203350115
   172   1      24.423293504941419       15.75794997174747      1.3427156948032115
   173   1      22.944171282837583      17.303302412031911      28.682299886654761
   174   1      24.482757842866853      18.638113217927604      1.5943278587953276
   175   1      22.918542380308967      20.033398184681779    0.044042472565752055
   176   1      24.477444560517387      21.498374908515771      1.3229583754840513
   177   1      22.912384369766208      22.921453275525746   0.0089058441531392526
   178   1      24.349480745675784      24.545026235610468      1.3916144864361295
   179   1      22.941420363820626      25.788004073871708      28.654242526495498
   180   1      24.414077216579255      27.152051384143636      1.3628002876037277
   181   1      25.715254186281939      28.610840209648916    0.042915021968974447
   182   1      27.214015337890658      1.3500404367925289        1.35689270087952
   183   1      25.780704341498108      2.8553685402830071    0.065270811654625005
   184   1      27.264813341642135      4.2696639833558407      1.4588103213707533
   185   1       25.97442244092133      5.7751920394947787      28.643764717987665
   186   1      27.118488573284786      7.2380730961072164      1.3744342864395314
   187   1      26.033374216539112      8.9690463001496195    0.020739054209025182
   188   1      27.341400694299793      10.160973494617995      1.4882690188102514
   189   1      25.754184040429983        11.5828985386855      28.586872714552189
   190   1       27.12778150787015      13.074869740266598      1.4588883565045885
   191   1      25.832546639679784      14.422723737350344   0.0068120848381909059
   192   1      27.256519984292812      15.810748457207964      1.3530905198599499
   193   1      25.836173898303851      17.178732982786883      28.679700429173366
   194   1      27.202260134477751      18.794788125954913      1.5161960695360324
   195   1      25.808770468564674      19.985402107216988      28.591922933751135
   196   1      27.411702854851679      21.437835117458256       1.341917260120886
   197   1      25.829286744773043      23.094109231691316      28.652085450721628
   198   1       27.08732212389814      24.388596321109855       1.556210033605169
   199   1      25.938958474652093      25.915749218338771      28.602953697280057
   200   1      27.341591172886783      27.230807999725435      1.4241064701422361
   201   1      28.694269544004587      28.640555795463047      2.9379921409164687
   202   1      1.5853160479202861      1.4411946740839772      4.1782432227797672
   203   1      28.556997193773714      2.8139693190397908      2.9653366083201518
   204   1      1.4273744174248568       4.222260388500656      4.1327507177499125
   205   1      28.628255644412377      5.7688470833185512      2.7878531932522841
   206   1      1.3738333261040232      7.1162786282668202      4.2981641832007114
   207   1     0.16815945574844668      8.7212659687435679        2.94914498088349
   208   1      1.3164831430424555      10.209957825383071      4.4334960043052858
   209   1    0.029770736116359865      11.461267882108704       2.869081148338398
   210   1      1.4286439274961937      12.894179964652206      4.4160839137465517
   211   1   0.0053682614046475898       14.23519482746647      2.9481249819307647
   212   1      1.3834350528909001      15.576298468116184       4.333558120412734
   213   1      28.692058069111059      17.353209675715309      2.8797198438535121
   214   1      1.5261453758183754      18.715763022722207      4.2019357258680703
   215   1     0.12285363339223218      20.078200366668494      2.7229786769322115
   216   1      1.4288203414079823      21.475305109783275      4.3469268959862504
   217   1     0.18185381371056489      22.964936708246949      2.8007494864501501
   218   1      1.6111807367729745      24.469404833016153      4.3629193196355329
   219   1     0.03014346328365216      25.923256217215521      2.8007250316430263
   220   1      1.3540370596359605      27.156294095425441      4.3969114610850788
   221   1      2.7554472310426963      28.623399513247307      2.7778375640106203
   222   1      4.4148593911999034      1.3628658344640041      4.1675943333451766
   223   1      3.0094958473401356      2.8288240548785786      2.8253098422870608
   224   1      4.2739796162529515      4.2926071640423666      4.3165812531162313
   225   1      2.8295275198376997       5.812853987667876      2.9056007758436877
   226   1       4.266363093340634      7.2659178225562817        4.39373866779626
   227   1       2.815427079105985      8.7175962276710877      3.0089152203023746
   228   1      4.3891660100459422      10.211474223461236       4.303652280396876
   229   1      2.8702080485248529      11.496232571677249       2.947443877686295
   230   1      4.5602325185701069      12.990021299338917      4.3558375960197058
   231   1      2.8006648727363883      14.355066389781259      2.8136543122054718
   232   1      4.1767533471626299      15.685624256039949      4.3376128618479965
   233   1      2.8877990179358104      17.007536018441566      2.8438768486964592
   234   1      4.4314630126333308      18.634279627664601       4.135375499274458
   235   1      2.8014633635521369      20.065327638645915      2.9219723687860912
   236   1       4.461613520354712      21.498178282013985      4.1504831714505803
   237   1      2.8970613607035598      22.996364485131149      2.8649277137173264
   238   1      4.3350964988464815      24.625034823181192      4.3353762402631251
   239   1      2.9592375568109262      26.005850562785948      2.9161662246955879
   240   1      4.3765002783330242      27.307121495503779      4.2430142252361804
   241   1      6.0059116822580165   0.0050420727365805594      2.8463691944307228
   242   1      7.2601452757706673       1.406152557866722      4.2699230125904375
   243   1      5.5812613276789511      2.9221458319083933      2.6265261507129254
   244   1      7.2095447512112836      4.3773658389201264      4.1647036330046046
   245   1      5.7748877764192645      5.9011144073409776      2.9089080122636042
   246   1      7.0685695443735517      7.3877149070415724      4.3889734072311546
   247   1      5.8388248768989639      8.7066435583704305       2.856601759108504
   248   1      7.2225115884523552      10.110277001764775      4.3812030297323341
   249   1      5.7688260316311188      11.571339902296542      2.8344374678148481
   250   1      7.4174825641399131      13.068746446930303      4.4030103706489276
   251   1      5.6742745738225953      14.386580577477487      2.7975517932674503
   252   1      7.0497235592527154      15.808338498471466      4.2506339627624872
   253   1      5.8498515486933238      17.256880027886005      2.6597926200399225
   254   1      7.0800755198799692      18.631729168405624      4.2452727678065187
   255   1      5.9696515703486615       20.09983954158956      2.6780556502043495
   256   1      7.1394182631166769      21.575637305354306      4.3380164118269651
   257   1      5.7718323594825778      23.124676432433301      2.8959950642266139
   258   1      7.2937992524879327      24.383355750260385      4.4879537262790414
   259   1      5.8834348080435053      25.738723590426329      2.8938050243047155
   260   1      7.1614428930016381      27.191453492678324      4.3226587757517638
   261   1      8.8322873916228772      28.591862225855127      2.8789637794636747
   262   1      10.055414251294813      1.4178582427659081      4.2669475108918027
   263   1      8.4638566363670247      2.7681604356394467      2.7901939996557288
   264   1      9.9597439451438738      4.3398615770464737      4.1089894471282991
   265   1      8.6082243672070575      6.0796092514351416      2.8828331339304771
   266   1      10.017418201031136      7.1873441725251785      4.2515981225598916
   267   1      8.6718882322752933      8.5719703601727719      2.9454649220123761
   268   1      9.8689232070340456      10.109787002900049      4.2449551597767066
   269   1      8.4070139297013053      11.440983745920787      2.8617239148601801
   270   1      10.070544203225428      12.623201739236002      4.2493734735969717
   271   1      8.5493651506489368       14.32684537774837      2.8412986578859307
   272   1      10.194590933897191      15.642002404463973      4.1909539152133837
   273   1      8.6547194340096816      17.036411223513355      2.9712737944025918
   274   1      9.9396367995991657      18.562227621203906      4.2413428481770641
   275   1      8.4545252030280071      20.163596439715985      2.8045498791810575
   276   1       9.810187554966852      21.436164868829696      4.2254807695601935
   277   1      8.5911999323007588       23.00385785469955       2.799066751518775
   278   1      10.052318152747162      24.656922385497612       4.384741134416589
   279   1      8.7405443194480092      25.738758813783104      2.8755718405586586
   280   1      10.093304883869976      27.308422180261516      4.2605773293920608
   281   1      11.462646159637982     0.13094269215442875        2.78886016856594
   282   1      12.941660161901229      1.4471153575113918      4.0506684941869571
   283   1      11.409797594629717      2.9489048910340636      2.6421027002389206
   284   1      13.003575580846302      4.4881819888060317      4.2297376378482205
   285   1      11.397831910419386      5.8854063933117224      2.8683052529313833
   286   1      12.854229151403716      7.1887123498364351      4.3201114482411471
   287   1      11.226648614963601      8.7193421373297255      2.8918675205851478
   288   1      12.922383911521221      9.8314524884788064      4.2882099250232804
   289   1      11.504102620536656      11.409586834949986      2.6768936564427555
   290   1      12.886265375498517      12.794301988168735      4.2862208251192557
   291   1      11.488207432242165      14.081961762558223      2.9153746118260506
   292   1      12.838552911064223       15.66265660679027       4.189676364140297
   293   1      11.543808928894013      17.190476810538694      2.6475618262301839
   294   1       12.74313273968261      18.555587160622469      4.2202445794505126
   295   1       11.27417078645842      20.177944051983129      2.8862083968272603
   296   1      12.788793997580257      21.467166934821858      4.5034188198909488
   297   1      11.380289520475017       22.81724025731954      2.9905593153751173
   298   1       12.95463739732358      24.375151162801568       4.293456482872184
   299   1      11.473123080135588      25.825982044768761      2.9482092553266983
   300   1      12.930157684534121      27.280707404755866      4.2168221724928729
   301   1      14.369875797500175    0.047876308675143066      2.7563872293010601
   302   1      15.891336805282055      1.5143731241919014      4.2438555282107586
   303   1      14.330512136770333      2.8573971404413427      2.7697552327724675
   304   1      15.677764780020176      4.4005692474745342      4.1843679454072591
   305   1      14.374862206340126      5.7719636905694411      2.7364318117462294
   306   1      15.748111240468861      7.1220781784943838      4.1932767497892378
   307   1       14.27072647399231      8.4233666556179276      2.8515657786786281
   308   1      15.729741224681309      9.9576117670565747      4.2065850236683167
   309   1      14.328653507810641      11.393360643623115      2.8871990628727753
   310   1      15.780583325741565       12.88135120104732      4.3002161166234076
   311   1      14.292909706850729      14.392631826310877      2.8390692110620308
   312   1      15.696842470440677      15.802758202325748      4.3077064540408108
   313   1      14.229535544600777      17.257943242059266      2.8311797921881854
   314   1       15.60260412484276       18.61920478956284       4.109804640152686
   315   1       14.34950495170165      20.094234375828876      2.8391206189952971
   316   1      15.709650385628061      21.523723095224771      4.2810187040519132
   317   1      14.233143395665275      22.889934082036017      2.9578530077290872
   318   1      15.729561335385059      24.503685840000717      4.3364415917023944
   319   1      14.319921969890464      25.844444329323519      2.7775779108773579
   320   1      15.850078888195197      26.963673301512578      4.3881827757404954
   321   1      17.375321058462642      28.595585402165202      2.9101645491487624
   322   1      18.762513714050751      1.4468278378211714      4.1750815617494945
   323   1      17.209733878577985      2.8998550425815286      2.8218906020061589
   324   1      18.678041869404915      4.3360396702843733        4.20687096148189
   325   1      17.267588961134809      5.6807728370071136       2.744243286133691
   326   1      18.668625392140552      7.0965315027235443      4.4130770719042927
   327   1      17.248499947734572      8.4059767843505053      2.8365963399871017
   328   1      18.676484503067961      9.9912929340933676      4.3402434373211669
   329   1      17.202278702324893      11.492270582391585      2.7703699363145899
   330   1      18.675264759781005      13.015360366849844      4.1414777006047538
   331   1      17.172322141736089      14.395022288794756      2.7270227075141498
   332   1      18.577264553776931      15.724072469545378      4.3311039062939676
   333   1      17.108619150005524      17.186454424291608      2.9628068255774442
   334   1      18.429033671656949      18.573974434702997      4.3510443198817521
   335   1      17.029531939882403      19.911768281080501       2.897995166992624
   336   1      18.543552694790055      21.711700559291817      4.2763384513287139
   337   1      17.263290055892966      23.044968320534188      2.9583496684929416
   338   1      18.824135383716076      24.440282165441111      4.3311845446854038
   339   1      17.474059042914803       25.85624459690461      2.9520616305231595
   340   1      18.914688356062381      27.173166041786832       4.318621012059829
   341   1      20.178442878324368      28.461787714748571      2.7885835674233599
   342   1      21.567622620318783      1.4387645124936965      4.0952020793849329
   343   1      20.062877840332387      2.9558852939181235       2.741743352520734
   344   1      21.455650225916102      4.4246755526535226      4.2809837593849993
   345   1      20.163405240200849      5.7591436611638054      2.7929411048922002
   346   1      21.561621017982898      7.2260120083664967      4.0574922436147993
   347   1      20.136596090724215      8.5738517061723236      2.8255575933077228
   348   1       21.58709421774094      10.152906878251699      4.1705575737608429
   349   1       20.04859929263845      11.495574522095396      2.7991522370853303
   350   1      21.575887011964326      13.075242104318781      4.2291920995892589
   351   1      19.851694484534669      14.457325411035868      2.8827067858463273
   352   1      21.402333296902746       15.84237444091098      4.2537001891057349
   353   1      19.914812818724428      17.412443215223455      2.9602475501475967
   354   1      21.491964189425612      18.551755308019072      4.3916786186305865
   355   1      20.145458984988693       20.23660683650958      2.9438063172350182
   356   1       21.65655752744237       21.52636774830038      4.2612952433432394
   357   1      20.182703824015103      22.961457770551558      2.7391152801139822
   358   1      21.661833766412347      24.308558881948922      4.3196660276465444
   359   1      20.413941136976174      25.681070615311832      2.9393316576425828