dump/Fe_750_0/steps_81 (written by ASE) 

2000 	 atoms 
1  atom types
0.0      28.699999999999999  xlo xhi
0.0      28.699999999999999  ylo yhi
0.0      28.699999999999999  zlo zhi


Atoms 

     1   1    0.026639789605042093    0.041608051106538715     0.17259717709896458
     2   1      1.5085921833291194      1.5431851543308879      1.6460957262490068
     3   1    0.072584215387712619      2.8615661362721196    0.095802708627877556
     4   1       1.432286853612833      4.2949767084346728      1.4451582430242964
     5   1     0.04800957471082979      5.6039357044958447    0.091758071332526434
     6   1        1.51507280226914      7.1466844202028179      1.4033678490976398
     7   1      28.588951493305874       8.534686269316035    0.034150320560877516
     8   1       1.355611954407163      10.152222220592611      1.5616023408952067
     9   1    0.028580428554348791      11.381881286432627      28.648548421833883
    10   1      1.2141603168549193      12.952979914199965      1.5465878336209458
    11   1      28.539538901599489      14.402451740112767    0.059929169061854332
    12   1      1.4146859789629864      15.725295918825829      1.4924616445863761
    13   1      28.540269949882259      17.345056547533368     0.18382433001296475
    14   1       1.433616368879723      18.689538596098043      1.5139797226650999
    15   1      28.554312953006946       20.01927044190203     0.11619172658085984
    16   1      1.4321570237262904      21.309917700009045       1.406306028668187
    17   1      28.663906831512094      22.958125471553934    0.045337792512975726
    18   1      1.4812977003687724      24.080961252489054      1.6132368238633257
    19   1    0.049014013494674408      25.656384360171018     0.10429151072430608
    20   1      1.4573761019858951      27.183054265470176      1.4778386826804994
    21   1      2.7781185469469052    0.052780205525539317     0.10653020043620252
    22   1       4.316648811483959      1.3888630667830275      1.3167458728086325
    23   1      2.9272440108223021      2.9793441636686011    0.059399503265308379
    24   1      4.2958870342314999      4.2775862759961791      1.5185408946539605
    25   1      2.8280666431463048      5.7010777886157387  0.00063450729849137244
    26   1      4.3732044895714193      7.2640101959581749      1.3972582647475855
    27   1      2.8220873930613619      8.6519070736736197      28.617377711666339
    28   1      4.2405984491501663       10.05348121452837      1.4137119417030257
    29   1      2.7106806571798674      11.303709616230417      28.672906917074901
    30   1       4.217167385594613      12.849568651683859      1.2218333977559848
    31   1      2.8522424193992157      14.344800417677915    0.070808739175163199
    32   1      4.4945250608909131      15.678963260483094      1.2441336067826236
    33   1      2.9765628161279585      16.992142793026442      28.612211156383001
    34   1      4.2833810839415039      18.525334113192475      1.2559802837632343
    35   1      2.9400173263590768      20.066021924919404      28.637687825061864
    36   1      4.1182433748748668      21.548276991238332      1.3426820881275026
    37   1      2.7678101085559006      23.114894179648257      28.641696745196658
    38   1      4.1327070591295048      24.182741849571606      1.6225507762550702
    39   1      2.8312928004112918      25.711057669406451     0.21688366933003639
    40   1      4.1008103886107286      27.224660657273564      1.4528554608595294
    41   1      5.7969566573403917      28.474627558973157      28.683958892369724
    42   1       7.266399627106237      1.3714926377850138      1.3746525419377016
    43   1      5.7269163314086633       2.785899924283068    0.077010127785444943
    44   1      7.3591738835685776      4.2762580843641116      1.5655822262655428
    45   1      5.6086550274966624      5.5799580011265384     0.00395705772441489
    46   1      7.2965450116773187      7.1870869631762924      1.3703825631577951
    47   1      5.7289169190807767      8.7091186965093037      28.654574491946537
    48   1      7.1910159658967725      10.062931718336896      1.3147505567415467
    49   1      5.6548006843302785      11.348961642483619   0.0050488410098864667
    50   1      7.1407788108961894      12.806722446164267      1.3706108918089517
    51   1      5.8069191243814764      14.111815201421209   0.0011085163700840881
    52   1      7.2576684583863305      15.780105213611808      1.3448773411652593
    53   1      5.7072540070505626      17.138786024306345      28.588436509776148
    54   1      7.1311158534928296      18.628105602824938      1.3967572394829504
    55   1      5.6971257323778906        19.8897739850585      28.674453353101786
    56   1      7.2428775583433929      21.534065878868198      1.4149682943763204
    57   1      5.7785420310395885        23.0044669834496      28.679201768824417
    58   1      7.1533607794485228      24.347903498645376      1.3784387175646211
    59   1      5.7468784884229054      25.761989685884952    0.085867834618943456
    60   1      7.2136420063526678      27.087204290683729      1.4700854983489204
    61   1      8.5885096745917338      28.653528119065797      28.562786274731465
    62   1      10.061280497241688      1.3827766402852832      1.3908731745908094
    63   1      8.7303491943987304      2.8539643711150346      28.614782872013752
    64   1      10.088098617572605      4.2304741965526667      1.3142487203287374
    65   1      8.5007359027968672      5.7434180234979513    0.028556565138467244
    66   1      10.056263470249952        7.16542691165031      1.5297868161775681
    67   1       8.670307083590318       8.615197354753187      28.558983602112139
    68   1      10.007647607455382      9.9389962838645527      1.3507513441382797
    69   1      8.7799876740112133      11.546152341393684    0.040802160219573134
    70   1      10.090419647969917      12.893712659119741      1.4129144207712663
    71   1      8.6976799328729815        14.3555798855991  0.00083980729817767518
    72   1      10.123737693431405      15.816724049217067      1.2623964825475118
    73   1      8.5012487983094704      17.377058441179138    0.011575237019690123
    74   1      10.022170869163922      18.811128851796255      1.3773463416251959
    75   1      8.5928892141693147      20.085961782471756      28.637591512203631
    76   1      10.138379900089092      21.537332175533248      1.4662788859539546
    77   1       8.709704438853592      23.008840350638042    0.011694949072295903
    78   1      10.044250419461498      24.469314646618113      1.5919247643730052
    79   1       8.506311409297334      25.760325573033523    0.011069718148041814
    80   1      10.154053250568824      27.302204534894784      1.3029925121957038
    81   1      11.566027186325595      28.624554386041897      28.568320438777537
    82   1      12.955465508219692       1.429274425389008      1.3416040090547774
    83   1      11.747273032038079       2.938447767515977      28.569048417590896
    84   1      13.044563514380672      4.2339352103446277      1.5487930800294056
    85   1      11.716191884371549      5.7370288467536819     0.11823081067371968
    86   1      13.191941204680051      7.2260295768713423      1.3764588512528353
    87   1      11.427342138248781      8.5895948408287097    0.022131850548009886
    88   1      12.898157524939275      10.005295861296007      1.4077706742568454
    89   1      11.688703898947741      11.433819515460838    0.066577153202149353
    90   1      13.074623010646484      13.027704990129275      1.4557186560681079
    91   1      11.531208454385167      14.284681185130573    0.046422143402548972
    92   1      12.946916309638221      15.781706655563095      1.3541518778747883
    93   1      11.474956246023714      17.143734263581042      28.684569458935108
    94   1      12.881685987421411      18.556223153078051      1.3735695688619558
    95   1      11.619441370825285      20.210963872816563      28.653015976830492
    96   1       12.97288984341453      21.509938282034998      1.2324984295952266
    97   1      11.385829773405106      23.008693682535817    0.024286601886285557
    98   1      12.867041104768294      24.496877354501205      1.4746735117778595
    99   1      11.482731960569772      25.751808355901428      28.688925738227656
   100   1      12.979345466096792      27.329461685749351      1.3568487230157638
   101   1      14.336283211192338      28.536586371436773       28.60981122769121
   102   1      15.860479797230152      1.3902575053671964      1.5064213691204935
   103   1      14.434764258492466      2.8532421338495384    0.032136849080802728
   104   1      15.898319122294902      4.3926482933604669      1.4014125088201697
   105   1      14.422128520827098      5.6732534154817715      28.554025777476529
   106   1       16.03348075728594      7.0205313731330969      1.3446254247601821
   107   1      14.339481931511605      8.5777281126694156    0.070997322763207735
   108   1      15.663630615047092      10.130538901397861      1.4170693557671816
   109   1       14.40836563687766      11.492688301478561     0.11153499666205567
   110   1      15.651914071456567      12.812861872534413      1.4095993604799659
   111   1      14.283665631560511      14.397035497912107      28.693058783889047
   112   1      15.750838075105781      15.801500411333013      1.4401636226484464
   113   1      14.376151702523149      17.215635249710136       28.69765236522877
   114   1       15.80763938208082      18.643974400874104      1.4982610433900956
   115   1      14.310851064147748      20.034288346236949    0.018053936261287627
   116   1      15.784776128058681      21.328912426370827      1.3523382488058231
   117   1      14.382804059862909      22.906637743188483    0.012290726626326879
   118   1      15.697595963026441        24.3754717016655      1.3696069015671699
   119   1      14.279377982453177      25.891571715565473    0.052838698570758361
   120   1      15.790544478786162      27.178968884342041      1.4261252176027583
   121   1      17.189683866304755      28.577789286956691    0.083155068768348911
   122   1      18.713485388980626      1.4357337285919924      1.5414167112014854
   123   1      17.309381169847423      2.9038869812400421     0.11325785337105584
   124   1      18.714543066739033      4.3362195553063358      1.3808181329264815
   125   1      17.382745257677456      5.8580417921377883      28.593329172923866
   126   1       18.67192887692023      7.0943118512274532      1.5111290103268644
   127   1      17.175187977620165      8.6554883833364382    0.069314685957647212
   128   1      18.816500512085447       10.14280345340179      1.5241438481953182
   129   1       17.34663969655065      11.342933090923939      28.629895568804915
   130   1      18.754154066148367      12.986098506471219      1.3654288046208547
   131   1      17.344470423935984      14.479592346885356    0.076681821144381865
   132   1       18.64184448114883      15.825759168634136       1.573283192899112
   133   1      17.142243008362048      17.331598743090154   0.0074610291868452711
   134   1      18.610444305851846       18.70637130838535      1.3102262590206561
   135   1      17.308095852808094      20.062298724368258      28.600386258404924
   136   1      18.589031083660799      21.321957715209713      1.3904833410438191
   137   1      17.270196917902766      22.707229617410107    0.017834472615527373
   138   1      18.578356384245922      24.276752272072883       1.405471489832939
   139   1       17.34085156445294      25.692918678047949      28.623522541568434
   140   1      18.671671839400798      27.255694534500705      1.4459986838398877
   141   1      20.212257836598699    0.022644915198281972    0.075561522374278045
   142   1      21.503103875133426      1.3653034572183966      1.5332555074222116
   143   1      20.176520742711521      2.8548465411718551     0.05427450921283717
   144   1      21.510260864917033       4.277102936501862      1.5462772183002478
   145   1       20.14000423263083      5.7556829212490275      28.650984720576592
   146   1      21.625809138661282      7.3024035613744509      1.5925902792268625
   147   1      20.270179487915545      8.7177585145488283      28.678518400915852
   148   1      21.559183876669533      10.141333746300585      1.6463441169766366
   149   1      20.197880185488824      11.501672752393935      28.652380658462135
   150   1       21.50917403546477       13.07514982478428      1.4026705794619951
   151   1       20.13277247012757      14.316776962844473      28.627306811111012
   152   1      21.413348468670637      15.850294290262918       1.498308163684636
   153   1      20.106066922822599         17.290001880418      28.663741450463831
   154   1       21.46291313308792      18.535888765023444      1.3171149820881407
   155   1      20.179804008871525      20.104481614329316      28.550105406181608
   156   1      21.596612200650437      21.544498604094311      1.5994815846307795
   157   1      20.102706767927618      22.808232315692802    0.069895565292370163
   158   1      21.435169650250792      24.364745356918416      1.4745224247739648
   159   1      20.125517888641131      25.939361736580192      0.1475578938566513
   160   1      21.537130697020832      27.283527442205273      1.5120895250409379
   161   1      22.884193309941864      28.615030658347838   0.0012539009798615555
   162   1      24.459715533148056      1.3225706552736025      1.3589376532674451
   163   1      23.074221556950963      2.9636021272715558    0.037045548493904235
   164   1      24.462694095279765      4.3451191716187969      1.5795029554655458
   165   1      22.980005663866901       5.795432424052585     0.12097258259886977
   166   1      24.332244859210444      7.0732360601808395      1.5304432149461038
   167   1      23.066575699464138       8.801460939500906  8.8569863817156136e-05
   168   1      24.507924587468114      10.110881736498659       1.500274663220454
   169   1      22.833695430789913      11.554572006847922      28.592372692037614
   170   1      24.198253756326714      12.923361147433479      1.3922297287370715
   171   1      22.897515538620944      14.435438087540069      28.691883647183662
   172   1      24.323721506643778      15.849842793444029      1.2742687767284224
   173   1      22.763495004694374      17.185695574788085      28.448386878824383
   174   1      24.223454479224937      18.776114973244947      1.3329525469878269
   175   1      22.877237685718644       19.99284967322156      28.546854129508901
   176   1      24.457048678419884      21.331963467269411      1.4010954038899055
   177   1      22.956860863799282      22.881451149334218      28.622556115338455
   178   1      24.467948351949506      24.310853450540861      1.3809292561772735
   179   1      22.952224510788973      25.646229513501321    0.060770343631713734
   180   1      24.377672302188245      27.069613439024398      1.4765057167123234
   181   1      25.800996269235981      28.474054892247782     0.10872756371082917
   182   1      27.379518382840118      1.3450811272918493      1.4672222386639062
   183   1      25.842214238322608      2.7835403935529017    0.087701202422954441
   184   1       27.28422134504283      4.3532770067630375      1.4793348736697554
   185   1      26.103283550151929      5.7152880000092177    0.022998360453607349
   186   1      27.283047976488071      7.1708983748893367      1.5728211099544187
   187   1      25.813058762902905       8.587339362978776     0.14567369213614262
   188   1      27.305088732590846      10.060859560754269       1.364574775001449
   189   1      25.773025074017891      11.437852642800999    0.032243093813883641
   190   1      27.137013629739993      12.985684515444127      1.4562132936697467
   191   1      25.719955314105889      14.379323400332567      28.665775872508622
   192   1      27.193205625459584      15.778640546452692      1.6749893978788346
   193   1      25.864184483826001      17.237779598992265    0.081104543281765057
   194   1      27.088212197647756      18.679759729854361      1.5742449329133812
   195   1      26.039978978779853      19.990789777992102    0.037926558444780614
   196   1       27.11005003930056       21.57622274400255      1.4395460232005788
   197   1      25.838687369602141      22.983737045355277    0.030794876847039711
   198   1      27.356107527551352      24.239417887308129      1.5406778000159536
   199   1       26.04836018929673      25.789785678487455    0.029363486633622041
   200   1      27.348165238903189       27.05823970971279      1.4748591040294281
   201   1    0.046788748535654588      28.621874805344305      2.9133129979624663
   202   1      1.4931503243565314      1.4190079730714964      4.3161750438212945
   203   1      28.625992044380297      2.7799552274548183      2.9422306991570855
   204   1      1.5278740335465162      4.2212996881815084      4.3486756448984032
   205   1     0.17237418840221658      5.7339855246638987      2.8355481485910086
   206   1      1.4765866034918527      7.1390712766014452      4.3993996903477557
   207   1    0.042666290825617049      8.6986488586014836      2.9703200181495286
   208   1       1.509259137278947       10.05678908785249      4.2756918816711194
   209   1      28.697807035249145      11.509245786544581      2.8529335058947258
   210   1       1.536039255723779      12.976143605412091      4.3114541279024836
   211   1      28.520128935268104      14.382725508434707      2.8986541810454676
   212   1      1.5253648335239516      15.699039261098253      4.3379835786824801
   213   1    0.075265808072380258      17.169299971387872      3.0734205164497337
   214   1      1.4711589010057891      18.603078682224876      4.2548372630213613
   215   1    0.025469929806753538      20.038183145014159      3.0181618041796625
   216   1      1.6098824084508698      21.440412546552199      4.3049737677295763
   217   1    0.037234479359371284      22.761263793935459      3.0547505234536994
   218   1       1.598827489009625      24.341559956545851      4.4096180841914707
   219   1     0.11777841554388901       25.72399683229629      2.8996607377631491
   220   1      1.3317097365058108       27.27133226718556      4.3546076423622004
   221   1      2.8767697892810946      28.487548759956002      2.8308818589879809
   222   1      4.4106170973884105      1.3737952041007599      4.1314697632536896
   223   1        2.86854537710559      2.9458025698206036      3.0350955096906973
   224   1      4.4954270885111436      4.1905942012376114      4.4544930803132328
   225   1      2.9151653555523334       5.721683765745035      2.9331528384723109
   226   1      4.3205151169310083      7.1517017869283679      4.1357803754038853
   227   1      2.8365607641944179      8.6594197747193391      2.7856486315580233
   228   1      4.3462194594635415      9.9369610905317352      4.1370171714135795
   229   1      2.9599369457997367      11.506289217039907      2.8576080994234303
   230   1      4.4806244450653221      12.842397508845243      4.2783252527903386
   231   1      3.0194250695938174      14.411409354299556      2.8065050041488111
   232   1       4.501379124591784      15.753725164981446      4.4257966138840974
   233   1      3.0031783769147831      17.165224307436652      2.7251230725220683
   234   1      4.3670037442147827      18.580633535371856      4.2013050105349254
   235   1       2.992159387836022      20.041639338940726      2.7585379272868402
   236   1       4.408329319909452      21.598087641237068      4.3288624734673258
   237   1      2.8138118884469705      22.671563625327561      2.9534481109549362
   238   1      4.3604348601282474      24.136055738384229      4.3914236773636324
   239   1      2.7903476214177316      25.723444474143101       2.972399094809373
   240   1      4.4061844880326531      27.114548955983505      4.1413202858333085
   241   1      5.8346983187671082     0.11486495171734554      2.8000036377361872
   242   1      7.2539669474676574      1.4334365651996668       4.216401042465229
   243   1      5.7694961462378176      2.9599389454370484      2.8834665934844654
   244   1      7.2401223220646136       4.156934993883211      4.3343076825398423
   245   1       5.770738843059755      5.8038351013061611      2.7296207098791672
   246   1      7.2838556611974274      6.9157524802998944      4.2134947150714055
   247   1      5.7659319140559377      8.5565085886649044      2.7084060010416113
   248   1      7.1212147900853768      10.027256696845647      4.1235918895929879
   249   1      5.7319192781844457      11.583325679237447      2.6847296039123529
   250   1      7.2196912251458905      13.039223677685968      4.1263209049435297
   251   1      5.8097925792453742      14.333319805896975      2.7074699288305939
   252   1      7.1524352538245477      15.959256193145947      4.2325238148567115
   253   1      5.7329920834073356      17.122285675298244      2.6902770747932667
   254   1      7.0924809192073841      18.571486048603479      4.1959853056299181
   255   1      5.7677821882488312      20.061550916704238      2.9089584634620222
   256   1       7.034227102239881      21.480641292895054      4.1859998922646664
   257   1      5.6613207809394304      22.770832303766717      2.8076578986872955
   258   1      6.9088534288492136      24.407652020949101      3.9268923432780931
   259   1      5.7939932243829082      25.791302853956729      2.8415565610000595
   260   1      7.3044860851269231       27.29152528024165      4.3588821112448608
   261   1      8.5325404120221862   0.0033245121167398651      2.7749593206532492
   262   1      10.126947702881985      1.4048838390208294      4.3788965948926295
   263   1      8.5847145773561557      2.7488657569611616      2.8085613893525303
   264   1      10.189644211001433      4.3660608132722381      4.2871463959103435
   265   1      8.7720954043563246      5.5265445439925296      2.8773536088044218
   266   1      10.132379479778749      7.1616120853571825      4.4268561942666373
   267   1      8.6376851919675133      8.5481578364122299      2.7968881364742293
   268   1      9.9305342144945588      10.085374787803048      4.2755217733723798
   269   1       8.565735037678925      11.501587134246268       2.962507230023339
   270   1      10.260465561242832      13.019334738439463      4.2549355232222092
   271   1      8.7603233420610476      14.352543063700194      2.9017736829002638
   272   1      10.104908395555915      15.870823552225833      4.2527181619135934
   273   1      8.7117453409723744      17.182591357981835      2.8497931952917255
   274   1      10.015579386735384      18.664400267560282      4.2546040531476423
   275   1      8.5807452709921446      20.114874450018288      2.8548293485723431
   276   1      10.010335044149997      21.549606922487669      4.1750883739663696
   277   1      8.5138090634113155      22.958638020970291      2.7603946045693086
   278   1      10.041825749885723      24.288765040037497      4.3622017030211486
   279   1      8.6936340509126442      25.970098906344557      2.9608066024495483
   280   1      10.147859078245329      27.464515545751631      4.3139612536052017
   281   1      11.541409047255215    0.058297036850626906      2.8105317990588561
   282   1      13.050177227668604      1.3723397236668582      4.2798129376835563
   283   1      11.519761497151931      2.6999916043570136      2.8457102337411695
   284   1      12.790224592127529      4.1265912153906479      4.3364995845258631
   285   1      11.538622910232476      5.7833568659483969      2.8818153598045924
   286   1      13.011739060939583      7.0287475032470299      4.3964234096396266
   287   1      11.696933234951612       8.524760358731962      2.8694974712190859
   288   1      13.069386278175852      9.9823838740146247      4.3455635936949673
   289   1       11.51044170676359      11.434188495069659      2.8013590745030323
   290   1      12.856670883050198      12.896204595162262      4.5182345665949697
   291   1       11.46876445820909      14.415116029874776      2.7459403094778163
   292   1      12.900239620767406      16.076851454082014      4.1584349649448757
   293   1      11.600791774826833      17.295119612178027       2.765447687368884
   294   1      12.799873639333544      18.644706328352633      4.3280869996254347
   295   1      11.450808015625938      20.028340958763224      2.8496594719794288
   296   1      13.007819441453702      21.543826162870854      4.2357933974543034
   297   1       11.52134663508823      22.906881135614032      2.8189109200936064
   298   1      12.731077610215543      24.303324864284928      4.3622760053574936
   299   1      11.402618005208758      25.934749049442072      2.9315159922413172
   300   1      12.949132505636715      27.387286403772812       4.361893295997894
   301   1      14.425716332703741   0.0058238611251001217      2.8444550348798541
   302   1      15.761831022554359      1.3936538457080465      4.3467723260118447
   303   1      14.376271441843082      2.7207976588427623      2.7542755942581274
   304   1      15.762557489922136      4.2285926408129964      4.3765832713426871
   305   1      14.484209362623567      5.6348892516901508      2.8462531099760335
   306   1      15.891676422778254      7.0780781991704131      4.3145754610889533
   307   1      14.376684256861271      8.4755869900322569      2.9180362016999681
   308   1      15.841463168604935      10.037484552952566      4.2422575717945401
   309   1      14.332454139389192      11.565994266860145      3.0002191023625508
   310   1      15.664842343943794      12.868228107111293      4.3477570978686177
   311   1      14.341775853639302      14.462443260217993      3.0135302459013058
   312   1      15.687221178712445       15.90171569373749       4.341013930597633
   313   1      14.441620627177672      17.357029753798393      2.7302746235724382
   314   1      15.678759872494647      18.581326946970215       4.395226106128522
   315   1      14.395598328367466      20.132107056371936      2.8355133767911527
   316   1      15.693572013954286      21.515043750339007      4.3679305084838314
   317   1      14.266143923692207      22.811138764309892      2.7036111674720247
   318   1      15.856571783371665      24.162481208757605      4.2324207308392197
   319   1      14.372692810502098      25.743563850753887      2.9531587042857548
   320   1      15.780328676953099      27.234053879476651      4.3805335661839599
   321   1      17.207560231641455    0.020887421456620973      2.9381998936014928
   322   1      18.720247067885413      1.5544053024209588      4.4537944372457172
   323   1      17.245570169285617      2.9368031315785097       2.994873488473738
   324   1      18.807877458734144       4.335427070257718      4.4737791189472276
   325   1      17.391629880894591       5.622627126761734      3.0568865543349273
   326   1      18.488972834187418      7.3706771724003195      4.2308930625703649
   327   1      17.174376714995745      8.6822168215075965      2.7256318231178853
   328   1      18.549579619677967      10.031020616836793      4.3603068563137164
   329   1      17.118212091455078      11.522084914704225      2.8286552970578329
   330   1      18.642718220219514      13.015123032853232      4.4902599302062667
   331   1      17.165073047330775      14.357861130161172      3.0200057189622704
   332   1      18.673699646395594       15.76287678662694       4.313277591103863
   333   1      17.262257767013061       17.21484019563081      2.8343897742083062
   334   1      18.552557129621217      18.624610566736997      4.1721139042919528
   335   1      17.158923836850384      20.067062031458281      2.9045645940306977
   336   1      18.708430154698974      21.445678256149719      4.3226636878829572
   337   1      17.327164520896936      22.642597972803369      2.9348122836554662
   338   1      18.470523385118362      24.470638760827896      4.3655664597897799
   339   1      17.175171572790806      25.789126051228202      2.7152258082189848
   340   1      18.609629878247333      27.310373100351772      4.3182679007239457
   341   1      20.094116330662221      28.688862112344825      2.9893062852985905
   342   1       21.62872689584626      1.4330609906087586      4.4381441409261191
   343   1      20.144682375410788      2.6868153694319274      3.0318773846602673
   344   1      21.389299027780144      4.2878437040569422       4.213263279355087
   345   1       20.12141217177793       5.887258015023229      3.0280507347349808
   346   1      21.538295881378847      7.2769395271464159      4.4083721583600299
   347   1       19.92398461408353      8.4695108872453577       2.826756565913684
   348   1      21.620758025366964      9.9722123544754684      4.2346441242491464
   349   1      20.019082820354182      11.617854415186079      2.9566082481963929
   350   1      21.594520677908427      12.983430278474307      4.3725983745080796
   351   1       20.01898353501365      14.239131287520504      3.0004208069682847
   352   1      21.436354422716114      15.765455507712975      4.3947141369217944
   353   1      20.182533467387007      17.195666749488698      2.8500305436838862
   354   1      21.532141782556405      18.604480736627185      4.2957490101313445
   355   1      20.067900291968098      20.164460172041718       2.832314253997481
   356   1      21.335216367988966       21.59357263499399      4.2891992926555131
   357   1      19.961902046452273      23.016784397175229      3.0362739064936468
   358   1      21.423479931561115      24.335777880296192      4.2895500167972029
   359   1      19.955304458120885      25.850754408360029       3.060386411051808