dump/Fe_750_0/steps_61 (written by ASE) 

2000 	 atoms 
1  atom types
0.0      28.699999999999999  xlo xhi
0.0      28.699999999999999  ylo yhi
0.0      28.699999999999999  zlo zhi


Atoms 

     1   1     0.16435876870534685     0.10066525587503748    0.090936384600502143
     2   1      1.5223810829628408      1.4106625083300413        1.57743361365725
     3   1      28.645827530435557      2.7433778526135386    0.094237855507208104
     4   1      1.3733740056323656      4.3300004611367671      1.4064761662539227
     5   1    0.033434843555221735      5.7878230443335177  0.00076606463856023713
     6   1      1.5207930175139488      7.0910093403221737      1.5070889504242799
     7   1    0.049332826236332464       8.738959549018567    0.087111939569513241
     8   1      1.5953855368147503      10.059104975516078      1.5184526966724319
     9   1    0.093357605543611263      11.536966089838245     0.03322636705772769
    10   1      1.4204559111070472      12.723932599217354      1.5515247352495509
    11   1      28.605968484050553      14.244643704740264     0.26655016251526159
    12   1      1.4185696579031306      15.623950195561589      1.4723691259385523
    13   1     0.10730278542328153       17.08932717304997    0.044197904203178914
    14   1         1.5253342710227      18.822282198298556      1.4099749226460863
    15   1    0.047141395501549527      20.031189827961647      28.620718438330158
    16   1      1.4626948371928734      21.527550044255342       1.563630993689231
    17   1     0.15382119971940403      22.819688633725562     0.11431637893858816
    18   1      1.4174680685747962      24.348264873239199      1.5844015030592575
    19   1      28.634296248785787      25.807818705153505      0.1488927783584246
    20   1      1.3570125714819616      27.214675506616896      1.5686714044895549
    21   1      2.7925406634140382    0.069180175932378379       28.65543235672277
    22   1       4.278803637537866      1.4605218344823006      1.4255912223023404
    23   1      2.8097553420076578      2.8658496900476167     0.21189765601795885
    24   1       4.277184541504675      4.3507113232156431      1.4842639440987107
    25   1      2.7263419336392087      5.8821625113673957      28.640890341004066
    26   1      4.2398508538234365      7.1498972924742379      1.4626784512584334
    27   1      2.8659931626428929      8.5966983893107756     0.11785726498756036
    28   1      4.4822226148662097      10.091241238771987      1.5325154601972375
    29   1      3.0115553172816063      11.540237798575628    0.028454822893775138
    30   1        4.53681715330152      12.818505263200931      1.6157355918300818
    31   1      2.9612653283846129      14.258872561451454     0.12164324836631984
    32   1      4.0646088004920893       15.69014266774218      1.5595913224365281
    33   1      2.8425323035623147      17.130124950085886     0.16928056813341077
    34   1      4.2563222677068433      18.625146960204404      1.5045569472334137
    35   1      3.0173030670237027      20.146145019061869    0.089401616941620549
    36   1      4.4310733779906508      21.431412610910723      1.5365691171128657
    37   1      2.8274398513187751       22.94076730735296     0.07986204501172553
    38   1      4.3665230019973107      24.420879751746785      1.5238475138383716
    39   1      2.8327558908620665      25.663448940615687      28.651324043623561
    40   1       4.274544479754038      27.234615310551447       1.470730686812409
    41   1      5.8010066158681299     0.14207410543247082    0.013164975909512589
    42   1       7.244344830512226      1.4232250130849355      1.4191857515174657
    43   1       5.837887024931562      2.8544260723400594    0.040382877247100053
    44   1      7.0635513236134351       4.363321246554654       1.465702650527692
    45   1      5.7268041564490826      5.7196997921334418      28.620409549245952
    46   1      7.1233686505519369       7.276492592740726        1.31641954469776
    47   1      5.6362944981636947      8.6127067146866345      28.678402913076173
    48   1       7.283738961059858      10.027547326155808      1.1904831183920221
    49   1      5.8691624390196537      11.383874129832918    0.035694416511864779
    50   1      7.2397861892029622      12.813553386047206      1.4896149629469286
    51   1      5.6896458083334549      14.405665365705547     0.20232242356667016
    52   1      7.2095130622208563      15.804818461610006      1.5214057163581289
    53   1      5.6742142668266924      17.185912561649367     0.21312755023681126
    54   1      7.2260801688894674      18.564022382561856      1.4274040933384533
    55   1      5.6617979283567754       20.00574016888822     0.06122262076846708
    56   1      7.2854269069144522      21.399918927388992      1.3338724046338259
    57   1      5.7786939412314222      22.901576514752019     0.12113290589661571
    58   1      7.3316859082398782      24.274604106593873      1.4313320067233788
    59   1      5.7251572802092499       25.82111597713314      28.639577499668636
    60   1      7.0963923009145855      27.248780246362863      1.1432020646271197
    61   1      8.5733723683964964    0.032500473001939117      28.663768414763471
    62   1      10.000734045169271      1.4184183851179673      1.3398477840087137
    63   1      8.4647819624211014      2.8689511288465734      28.602249497426314
    64   1       9.988284033031599      4.2646840801882355      1.4228456135090242
    65   1      8.6059793367122364      5.6405800718581371    0.014219517270066723
    66   1      10.047861959311421      7.0997710437082935      1.3995083062107037
    67   1        8.67909872863628      8.6096633430184628      28.637668487204085
    68   1      10.089217546330271      9.8992291856183865      1.3006164640071349
    69   1      8.7123303548057365      11.663148168928394      28.605976722274619
    70   1      10.127712862165186      12.972502958324117        1.43706707052097
    71   1      8.6980818205959416      14.355611637656434    0.039643502050512272
    72   1       10.13298106198668      15.923064232904322      1.4172552847605511
    73   1      8.6705792238159844      17.181503419509486      28.673151215446385
    74   1       10.00344583292992      18.549928301733154      1.5816867877631802
    75   1      8.6924305960053232      20.016399347157474      28.587114418536039
    76   1      10.071120726558989      21.394519086020765       1.297403396397681
    77   1      8.6632176848645059      22.987843347423421    0.050099853097799373
    78   1      9.9396320241765501      24.497853283079671      1.4922280601320042
    79   1      8.6810442010471451      25.823388006808702      28.691604722881241
    80   1      10.047507669976351      27.390415785047839       1.462614272498592
    81   1      11.567580313907289    0.075963968948451643     0.10594603240861022
    82   1      12.842386559219319      1.5321635674728082      1.3840652716729651
    83   1      11.393635639974338       2.972426788907121      28.649077378055228
    84   1      12.722923928588855      4.2674563522623226      1.6575745301905158
    85   1      11.513327918342423      5.6710097344567281    0.096782808153830141
    86   1      12.781313006576614      7.2069193757700853      1.4211447077119821
    87   1      11.465366825014772      8.5560682644851731      28.605021347659545
    88   1      12.977600591418504       9.966506150170602      1.5761295853783504
    89   1      11.571401286072684      11.347397539848929      28.684491166553006
    90   1      13.061693299236191      12.999524954081561      1.5097776973174752
    91   1      11.653700138295617      14.307541643826449      28.649032916898836
    92   1      12.873434108657532      15.652570477187915      1.5131634689983573
    93   1      11.472424654041818      17.142071221940242      28.581278784432289
    94   1      12.985281489799098      18.630376226714578      1.4831896597320893
    95   1      11.448054671585776      20.076098848399106    0.044211996811304603
    96   1      12.879903902089008       21.50931673070156      1.4369223239737026
    97   1      11.355719650274347      22.945121786444318      28.663142145142515
    98   1      12.729192253958706      24.317505849236774         1.3133467973469
    99   1      11.384871201992636      25.824826352499272     0.07609870720417572
   100   1       12.99215023453997       27.10056570570848      1.3938524408537092
   101   1      14.207343223720502       28.60784103886748     0.08537276667194639
   102   1      15.813159712886245      1.3764858226474648      1.2450029207327473
   103   1       14.32242631637866      2.8332482614062888      28.590339922462025
   104   1       15.61229586890304      4.1948787325908201      1.6043508564393516
   105   1      14.296559241790293      5.6419758838839691     0.23750065660066175
   106   1      15.632017210539152      7.0780587845892384      1.5307209962250334
   107   1      14.269859153888021      8.4865069002705926      28.635360634241753
   108   1      15.748551176344568      10.250154411373295      1.4891352431675713
   109   1      14.377137053936933      11.400062894148599      28.631862468831361
   110   1      15.795062765255112      12.808865520063925      1.4203828988736296
   111   1      14.465712910992035      14.350634673095032      28.566874546032583
   112   1      15.755751437452798      15.751524892726984      1.4317338552077554
   113   1      14.409305765638734      17.188378024512378      28.697581189787346
   114   1      15.864975459055591      18.644921599454328      1.5368719813131191
   115   1      14.306951167180726      20.116523550667289      28.665907975446366
   116   1      15.802089860754077      21.537048960699622       1.442628260036257
   117   1      14.391481300688294      22.973234771021815    0.069231629590694746
   118   1       15.92988902259501      24.259398251114842      1.1103931637460174
   119   1      14.154434287517214      25.725944191934062      28.651555189088256
   120   1      15.926500931850743      27.253522553924775       1.240045465188087
   121   1      17.296692212327585      28.540834359845906      28.667152376141502
   122   1       18.58777909462691      1.4149763330843028      1.3690772964817703
   123   1      17.260155145880475      2.8990838398489833   0.0033299004814921385
   124   1      18.561427601026477      4.1792587701145818      1.6114499898829315
   125   1      17.268942605505128      5.7537207092801523     0.14527839485996302
   126   1      18.610053922383944      7.2260916953283933      1.6393762100239648
   127   1       17.05106832243245      8.5299087949647401    0.094115099211626335
   128   1      18.718373181004186      9.9800173941665022      1.6446439402647799
   129   1      17.258613366907941      11.446409733932782    0.043041894073803474
   130   1      18.703864894047488      12.933469299109731      1.6435659574319625
   131   1      17.220341098105582      14.203769438549692      28.674689200136985
   132   1      18.836669844691116      15.800847144834878      1.5844961885034201
   133   1      17.346382712671897      17.292141985654492     0.15685984114838905
   134   1      18.949102399250169      18.659232367520314      1.5688874827229029
   135   1      17.153303012553579      19.910907333594388      28.525525659082845
   136   1      18.814736656368925      21.451819970168906      1.4249918527444159
   137   1      17.158464495486957      22.738575290374893      28.411903811792641
   138   1        18.5983947989542      24.105421761246621      1.2134826664211908
   139   1      17.342544861995055      25.789255691339797      28.537484184909857
   140   1      18.742315014369762      27.208583249388809      1.5195767845300803
   141   1      20.202511687366236      28.627240665408866     0.16776537901854466
   142   1      21.568294484833647      1.3745074610174357      1.4653696584784606
   143   1      20.196196478073009      2.7867488621534564     0.17310827481834382
   144   1      21.553014764587555      4.3072196898628832      1.3798966843234424
   145   1      19.929193616082571      5.8277297365884992    0.046963399742491994
   146   1      21.298360334896604      7.3276968667984645      1.6153997719341067
   147   1      19.989936804146968      8.6114272899958344     0.17696703636942174
   148   1      21.224563759173176      10.117796986660354       1.540904390677964
   149   1      20.053691382658581      11.498648984041031      28.677128262181483
   150   1       21.53332400864803       12.88234676801301      1.5123945739354334
   151   1      20.149294189015787      14.333248618675164      28.687043924693203
   152   1      21.639456497307414      15.903368737335217      1.4086350390428479
   153   1      20.136065452061466      16.997946150339253      28.686334521965584
   154   1      21.634780795633056      18.592695195605597      1.5840370781046653
   155   1       20.27935160702393       20.16814229581945    0.037632761576912907
   156   1       21.64562850736375      21.550296596404106      1.4236840206202699
   157   1      20.171097780027971      22.977859994850363  0.00068041372246625646
   158   1      21.391880416466424      24.335052770359447      1.3152559270704032
   159   1      20.053074915249951      25.690447716455562      28.532600706960338
   160   1      21.484122782396707      27.108360597417171      1.5924392852653224
   161   1      22.963831219596941     0.14087246081168298      28.697606023777301
   162   1      24.496617918077401      1.4301399359735221      1.3470419563895346
   163   1      22.915723452923746      2.8784494096526241      28.656271245633921
   164   1       24.32589903991596      4.2617867995384699       1.525087167275468
   165   1      22.890806477510008      5.6422796975723584      28.693080924633051
   166   1      24.305708540484773      7.2243672589060077      1.4412007895762249
   167   1      22.929749475339207      8.5332238719648945    0.067679199216524863
   168   1      24.235345334728979      10.020506701454858      1.5164825361666541
   169   1      22.873265133685234      11.341446458343142       28.69885694095289
   170   1      24.451166060477316         12.871413168535      1.3377267365322718
   171   1      23.038037652563371      14.191618321280421      28.644065295029947
   172   1      24.373403213027167      15.789028103423695      1.3888412152628578
   173   1      23.054390152951143      17.153565771766626      28.631593553598655
   174   1       24.56102368739046      18.598408450237606      1.4268123038643576
   175   1       23.04673363963834      20.064641564329222      28.650683476876509
   176   1      24.425231661321291      21.452706605061252      1.4644060528958223
   177   1      23.023086113829486      22.928411778616301      28.581794598664231
   178   1      24.320219123466153      24.363839933461097      1.4996558180471866
   179   1      22.900112311626817      25.707338485820909       28.55100410456852
   180   1      24.274672236554064      27.304576478390523      1.2256534565069033
   181   1      25.838283625228087    0.057922459342512299   0.0061544845325215789
   182   1      27.151529187811814      1.3303609024832781      1.5456177584102073
   183   1      25.930501959854496      2.6646774664226767    0.032413130379689049
   184   1      27.400112806967947      4.2136366946788586      1.2979473154534393
   185   1      25.819353200161085      5.6755866273340541     0.20541863961796009
   186   1      27.369289018886541      7.2332571288589893      1.4899169298738113
   187   1      25.921003474571286      8.4880522324358587    0.076810382498467666
   188   1      27.303396898912744      9.9957964150982619      1.5385501682268228
   189   1      25.890373940356149      11.363059647711985     0.17495163672392677
   190   1      27.180000194655644      12.864143885429993      1.5081701598031818
   191   1      25.901379444209081      14.189860888204228      28.621422854560549
   192   1      27.187470195613596      15.871508353367098      1.5610513516874913
   193   1      25.811598698061207      17.086479266759635      28.632063176351025
   194   1      27.375154450112461      18.432128610800145      1.5029524281499897
   195   1      25.946191283901413       20.00423748110795      28.682787309692372
   196   1      27.314010053365276      21.367269581243661      1.4025406688469495
   197   1      25.698426845226347      22.866050541943451      28.664544042595409
   198   1      27.240538764543672      24.187541911602054      1.3619764181188321
   199   1      25.759438340482067      25.735828114062794     0.10163828673361183
   200   1      27.336502189432608      27.236117163952311      1.3572653113458037
   201   1      28.603863372426449      28.601142932718801      2.8276764530718181
   202   1      1.5013892595279243      1.3760152873746052      4.1684442576093872
   203   1    0.057333618902533107      2.9661409877974574      2.9411065335988167
   204   1      1.6369694595715827      4.1972548225335773      4.3101608829929079
   205   1      28.687671453255579      5.7509551706162716      2.8893584946434334
   206   1      1.4172667714812626      7.1408163071703825      4.4930596172477548
   207   1    0.053580697701375642      8.5633693062416221      2.9575894981051154
   208   1      1.5184484539430525      10.011891677381987      4.2925710282303697
   209   1      28.592611719422379      11.458808335960923      2.9671368679050265
   210   1      1.4662032470718489      12.660369446261974      4.3777831175144213
   211   1       28.57669530547382      14.294337133729348      2.9011899570359123
   212   1      1.3421648484642572      15.693773241357402      4.2392196547261625
   213   1     0.16469603819375728       17.30538965479299      2.8516978874861718
   214   1      1.6310048468832652      18.654455271426812      4.2298841039823722
   215   1      28.645788309800995      20.108203560143174       3.040364095936825
   216   1      1.4465802713125415      21.669491726423459      4.3311289037687866
   217   1      28.484912783879267      22.990502397850562      2.8352972597499142
   218   1      1.4623593271563919      24.427165841393467       4.280837383718846
   219   1      28.689479621412801      25.726894690134319      2.8430405445949534
   220   1      1.4048732140643017      27.253557107240216      4.2888569657004529
   221   1      2.9606184529134256      28.637507244747653      2.8545807851244827
   222   1      4.4374258056088625      1.4248029022270323      4.3056547242339089
   223   1      3.0905383919753255      2.8501167725288594      2.8400025239943023
   224   1      4.4059908937536312      4.3544789912840365      4.3554674028437566
   225   1       2.709108048703615      5.6909026483893088      2.9426135922097427
   226   1      4.2847245617836709      6.9437911658332503      4.1545701674750068
   227   1      2.8478113733644834      8.4965988597940623      3.0065771992638441
   228   1      4.4098585859644226      9.9852850007304088      4.3912158551970268
   229   1      3.0232939623302544      11.409176216522258      2.9489131660512218
   230   1      4.2734032855786745      12.981435815782705       4.512327611459841
   231   1      2.7702378672546275      14.107448720375173      3.0780204475418476
   232   1      4.2319642804612032       15.74264330584705      4.5231402515186909
   233   1      2.8836054082652018       17.17587875071931      3.0882350058910446
   234   1      4.3298542690070558       18.55420175328398      4.3212564119956793
   235   1      2.8629292757980127      20.083650398758312      2.9018337797416835
   236   1      4.4289283657031548      21.449246601944949      4.2203216036607056
   237   1      2.9059239167351536      22.986602557535754      2.9345883072401726
   238   1      4.4150560602977089      24.314270595841805      4.1920433802185606
   239   1      2.9461873251755399      25.884818779343288      2.9757115269445529
   240   1      4.3375030874274803      27.293314361774343      4.0890702511158441
   241   1      5.6844304827856869    0.038913951080440032       2.697909634078643
   242   1      7.1010912388955632      1.3651440205670378      4.2971012539264404
   243   1      5.8657668092573294      2.8748951491567931      2.8789070350802461
   244   1      7.0588187439924397      4.2763623343606332      4.3969331919138419
   245   1      5.7956182055831356       5.823604697458876      2.7706387548930023
   246   1      7.3035596928053925      7.1323932101121041      4.3407987749537895
   247   1      5.7770145108926103      8.4713479426373581      2.8155806794280447
   248   1      7.1879194041244032      10.005534840082822      4.2038793230461025
   249   1       5.826353796381305      11.438379319215505      2.9289843243794635
   250   1      7.2514385679495463      12.859867539327489       4.204367641578834
   251   1      5.5443540826373843      14.311641569651432      3.0188910075297204
   252   1      7.1067035497387065      15.810948774511607      4.2224549553456754
   253   1      5.6529058985754483      17.201099311679108      2.9195459558440562
   254   1      7.2545662657570196      18.597304466605426      4.2044160843107559
   255   1      5.8992899760338666      19.975115026033365      2.7952813441307853
   256   1      7.2847189466940891      21.354408614729298      4.2703165154601876
   257   1      6.0298156238900313      22.857516559340045      2.7633520195861143
   258   1      7.2419007762524386      24.220072360552738      4.3828607768762025
   259   1      5.8175225306179863      25.682906199847636      2.8199621201680189
   260   1      7.0858841861569823      27.288267127901797      4.1638767848005234
   261   1      8.6611047533105019    0.048834355642748288       2.781267928807448
   262   1       10.08826870284568      1.4755821920536376       4.302470450113737
   263   1      8.5469831386823643      2.9193731010274391      2.8107194791154577
   264   1      10.042435576306639      4.4427467538378176      4.5127863770804924
   265   1      8.5854485681229349      5.6882549988905104      2.8644538808441218
   266   1        9.95563337131059      7.1478704606785763      4.6541525073293259
   267   1      8.5684204469501175      8.5959323788577588      2.7372567702795449
   268   1      10.001952768135695       10.06788624782417      4.2423807227598793
   269   1      8.7285683658820279      11.245311659706372       2.737053956037049
   270   1      9.9102289232794067      12.946456594392366       4.220413446591806
   271   1      8.6069429972438964      14.359119050860484       2.768098369968174
   272   1      10.022455016757254      15.794340733073692      4.3118209112536441
   273   1      8.6414302582744735      17.059904850136341      2.8741359338071848
   274   1      10.021980504612229      18.712875194168664      4.2158507692425262
   275   1      8.6363956316865469      20.153741689725905      2.7779293245295897
   276   1      10.116044181429805      21.388796049924661      4.2052355578087282
   277   1      8.6968242819785004       22.94513276885824      2.8800052725476832
   278   1      10.237687485521681      24.281443555796539      4.2894337728497192
   279   1      8.6744753239593297      25.867182014235134      2.9914657711894979
   280   1      10.093794123546832      27.315487436222501      4.2889096014658694
   281   1      11.477997872253775   0.0013644922747973298       2.814676605505757
   282   1      12.856700220796144      1.3579382791447534      4.4206771628536954
   283   1      11.302115649939891      2.9153941017749174      2.9607943465697879
   284   1      12.928830002703425       4.154830526883142        4.52682296965357
   285   1      11.358035572709706      5.7346413632598008      2.9882279118059967
   286   1      12.910904910916983       7.223534991546031      4.4202997167104092
   287   1      11.339787048352704      8.5703502611739371      2.9939072950862036
   288   1       12.87017092734844      9.9062754729691633      4.3581131746920088
   289   1      11.396016006596048      11.487372990580003      2.7566391869676625
   290   1      12.817420820760097      12.891411363936912      4.4164359898736638
   291   1      11.519800453988116      14.438382993659063      2.8486624411301804
   292   1      12.889112675225542      15.709796587715864      4.3409502869748842
   293   1      11.572006550279404      17.155942901127187      2.8712532141617997
   294   1      13.056879686606226      18.643525810297554      4.3371218431684646
   295   1      11.650043168907857      19.977797414919248      3.0408225917783644
   296   1      13.102286900614693      21.711576904753805      4.3026578286767121
   297   1       11.47367352147471      22.865431972689883      2.7925143117155469
   298   1      12.961956927277038      24.363402989365568      4.2105382938125873
   299   1      11.355435616471585      25.860211323310761      2.9345588639357447
   300   1      12.789817863193864      27.305015407401545      4.2099992033339388
   301   1       14.34304404253923      28.647502457315301      2.7868316752875444
   302   1      15.604671457153504      1.2549607062386141      4.3622205651070898
   303   1      14.224189710227432      2.9101521294660175       2.906480783863215
   304   1      15.633030250539822      4.3172421259344791      4.5062699521955354
   305   1      14.126575806232877      5.6424824850141393      2.9280735940363329
   306   1      15.747549550238668      6.9718558381553946      4.3254330015651465
   307   1      14.265737128161248      8.6765447678773402      2.9260024770624131
   308   1      15.861253876487357      10.126579441052707      4.2952551010373599
   309   1      14.198612913926096      11.457135762157728       3.095838613492945
   310   1      15.916841041233143      12.907022887452722      4.1896488840406283
   311   1        14.1780588694751      14.362518655560155      2.9918005062982957
   312   1       15.72254001178465      15.756813949455813       4.226260116715828
   313   1      14.381845022285921      17.274301741049058      2.8852904615290784
   314   1      15.907663988563419      18.806238438660991      4.2248197299241177
   315   1      14.219862625880589      20.120278287382018      2.8583195994329227
   316   1      15.703547290261136      21.571007014890583      4.0343442246686969
   317   1      14.472032133381164       23.16853723811619      2.7108267415290914
   318   1      15.923569990992315      24.480035294739739      4.4024504813899714
   319   1      14.446966318091688      25.669529630675111      2.6609763323947142
   320   1      15.680902589286029      27.277109872338347      4.3467414935846804
   321   1      17.047522190831998      28.576391206883187      2.8370203055617251
   322   1      18.589835005450364      1.3442677262692213      4.3400876688212131
   323   1      16.963508327113509       2.765577385382346      2.9509749472090014
   324   1      18.555234462518548      4.2040258633276508      4.2549022333623094
   325   1      17.220175410000579      5.6489654302479035       2.978402556439196
   326   1        18.6658808554388      7.1864916116345885      4.3846552054044734
   327   1      17.211461249426883      8.6646462186978823      2.8660707500014269
   328   1       18.57147821361243      10.044637770116045      4.4104516513743048
   329   1      17.350367611917701        11.4527527840002      2.9404255543102717
   330   1      18.808776648330909      12.952574581893479      4.4230950587659956
   331   1      17.244354087653804      14.510141938830065      2.9669553169009317
   332   1      18.826079081388734      15.740150661914582      4.3132148618581496
   333   1      17.334920062512474      17.282786641034118       2.825333327804024
   334   1      18.734943093123629      18.649270658884038      4.2784142130724918
   335   1       17.30361409993688      20.097245449767023      2.6735883637975459
   336   1      18.581862384717493      21.451555567682885      4.3854789918638541
   337   1      17.207822900291884        23.0115441648001      2.8278777846010721
   338   1      18.674879224382263      24.393021923830808      4.3594098900233211
   339   1      17.186935817971968      25.659282568630829      2.8787947204168445
   340   1      18.736329703366359      27.159409614329419      4.1765398395685294
   341   1       20.24943511467001      28.685320793431604      2.7828051413143839
   342   1      21.622696562164638      1.4484060651831221      4.2406418215860544
   343   1      20.273837838650778      2.8197759095450112      2.8503138469364657
   344   1      21.490617664319139      4.3399582552336113      4.3901821504230067
   345   1      19.891690513955954      5.7126788364444723      2.8605509643597293
   346   1      21.536631335101983      7.1176059542715313      4.2335089287410597
   347   1      19.985291694769838      8.6265966308536299      2.9545577808629147
   348   1      21.604511233276547      9.9504748981289914      4.4010943906641788
   349   1      20.144120848572452        11.4185735041535      3.1673405012413784
   350   1      21.492402459074491      12.899255688138576      4.4459301500428694
   351   1      20.344383504717307      14.485221785097847      2.9768618480638827
   352   1      21.575543720081477      15.994559425414241      4.3424270038725403
   353   1      20.168120310918773      17.337796946024312      2.9949107974559799
   354   1      21.623570894271037      18.727528758806269      4.3005894051053488
   355   1      20.240310799829704      20.200050141519124      2.9001408864065636
   356   1      21.619676303005456      21.526298822455427      4.3324451032443916
   357   1      19.935846801311978      22.886605211441616      2.9911421111911438
   358   1      21.659999263949054      24.272105294631352      4.3522454421556791
   359   1      19.889576816061979      25.520549552737467      2.6274221868473431