dump/Fe_750_0/steps_11 (written by ASE) 

2000 	 atoms 
1  atom types
0.0      28.699999999999999  xlo xhi
0.0      28.699999999999999  ylo yhi
0.0      28.699999999999999  zlo zhi


Atoms 

     1   1      28.611380143375285      28.653887051702444    0.099061139249715782
     2   1      1.4398628492419674      1.5697291677727883       1.513209675444444
     3   1        28.6402147188731      2.8233000465574825    0.081706741691379994
     4   1      1.4464425961668883      4.3657567879382544      1.5471725341329721
     5   1      28.591420045118898      5.7166545833910112      28.557219909965269
     6   1      1.4629242599824355      7.1189685503956115      1.4583788782657503
     7   1    0.016421415086952038       8.405311561736962      28.666212977198118
     8   1       1.401280988646797      10.047488858734836      1.2642813093641179
     9   1      28.609076454542834      11.477277261454491      28.406627852928594
    10   1      1.3181303323001661      12.823783921839832      1.2306774008433201
    11   1      28.679831101072665      14.263630246455001      0.1111778138553064
    12   1      1.3618426760584172      15.754447281542472      1.3076272364199313
    13   1    0.005133421256983791      17.310010108696776    0.015822446009860856
    14   1      1.5061383861488278      18.693001561873977      1.4500224151160639
    15   1      28.672149742490351      19.935324586085201      28.662318950447983
    16   1      1.5053432923284751       21.50602385122323      1.3969156694719003
    17   1      0.0736682231436393      23.151908560105401       28.64743696963102
    18   1      1.5726664300689346      24.457652126300623      1.4292163994610414
    19   1     0.07742826278311131      25.820692617567179     0.16533206017778637
    20   1        1.55901875724335      27.362327125146731      1.4576922077582146
    21   1      3.0998177545766774      28.564331036705642    0.052637179413488992
    22   1      4.4018687946233941      1.3626061932889451      1.4493413147478131
    23   1       2.860412325611001      2.7101268612357994    0.053507575749369908
    24   1       4.304707344512142      4.1752751710439808      1.4288776762462123
    25   1      2.8576902493419878      5.5915643412922131    0.023588561062126687
    26   1      4.4072093504680332      7.0895184579480093      1.2734404258100644
    27   1      2.9342714697430545      8.6089407115856602      28.457395584640896
    28   1       4.259057973313582      10.069060542237843      1.3593657558008656
    29   1      2.6650239441023391       11.40511420681708       28.46410373005337
    30   1      4.4009573326435651      12.778592131524972      1.3026484979033957
    31   1      2.9389471343290436       14.31852016301486    0.083761598225146228
    32   1      4.3184263426319722      15.664518300630249      1.3441595579060286
    33   1      2.8449193016998278      17.050485062549907   0.0055129369204905652
    34   1      4.2345129626229543      18.706992289134501       1.376989430000559
    35   1      2.8920786633255688       20.06622578655724      28.648252663170783
    36   1      4.2615891152264123      21.484056846201373      1.5457780991737884
    37   1      2.8687334087987351      22.827964165205959    0.014305176395396305
    38   1      4.1086333602871425      24.344962018867474      1.4477822470826696
    39   1      2.9296361236888084      25.823459719627138      28.651714447849461
    40   1      4.4210720817872158      27.125362261949686      1.4874685697557422
    41   1      5.7459433047213402      28.677415387648949    0.099352223516632449
    42   1      7.3449075250527036      1.5026254085382664      1.5703249078697341
    43   1      5.6607773053814405      2.8902653338415103     0.15525039095724652
    44   1      7.1932810824203441      4.4108224906425297      1.4771756315337492
    45   1      5.7697458060688973      5.6446661671016676      28.599762210773793
    46   1      7.0823086087071045      7.3191471425681405      1.4337147679947868
    47   1      5.5888128792551779       8.634440349555641  0.00041681825389332629
    48   1      7.0982433304778771      9.8956858864195905      1.6296997753788776
    49   1      5.8268400612902163       11.55951554573813      28.651393501365636
    50   1      7.1300678240072655      12.898281948832098      1.3931289656968262
    51   1      5.7433142916458371      14.376731140712856      28.491216757771515
    52   1      7.2310605205077483      15.863586360145217      1.2700887318081535
    53   1      5.8146003129924573      17.121561540283267      28.568094709086854
    54   1      7.0748353990962922      18.713101851829251      1.3343139427200286
    55   1      5.7263051015673891      20.002444286346869      28.544561839632401
    56   1      7.0561433234391977      21.532684699889661      1.4737856247845693
    57   1      5.7010426622003951      22.893574933007322    0.012129875826462921
    58   1      7.1395235607499918      24.434037572632075      1.4250448914932341
    59   1      5.7458806322485607      25.783088141329159       28.67500610486109
    60   1      7.1701396996558513      27.394511201969749      1.3880751297553511
    61   1       8.456105715422213     0.02927752209275428      28.643585300616426
    62   1      9.9632476842875501      1.3281814970877226      1.4238016740830632
    63   1      8.6298421207509843      2.9351806975839834     0.24022751709211429
    64   1      10.064342690729413      4.4629384222530657      1.4605383591025756
    65   1      8.5747851691385009      5.6918650183514812     0.16291931276459776
    66   1      10.221559094032417      7.2208842731830343      1.3677759933493359
    67   1      8.7994773235750863      8.4330849062363171    0.063493990644644671
    68   1      10.018601870251564      9.9672550992152864      1.5487256364637452
    69   1      8.5568335589075417      11.379528336439124     0.07620759954951381
    70   1      10.138377559187711      12.986951706977417      1.4768123086494584
    71   1      8.7284668393973206      14.357795337147842    0.037840493229839574
    72   1      10.156959963062574      15.804672867795221       1.372097097845562
    73   1      8.4958710650326577      17.317008187056985    0.013411886129563299
    74   1      10.031953797892717       18.69554044705043      1.3398492340155248
    75   1      8.6136840315623431      20.085864124788365      28.541458804262739
    76   1      9.9551170825744055      21.621732204941008      1.3642342575433293
    77   1      8.3968690895710001      23.004416776880547    0.069545687122842953
    78   1      9.8824675759057499       24.38441565644122      1.3455033767805851
    79   1      8.4685973098505798      25.926466247711232      28.652390740281149
    80   1      10.002796480677517         27.378385317968      1.2240692381485692
    81   1      11.520121477643997    0.092151006437053901      28.575924195582957
    82   1      12.897203683028623      1.4620433140022546      1.5585052487298869
    83   1      11.512373532723267      2.8820102572084032     0.07078870013414186
    84   1      12.852316606794822      4.3173554521969679       1.418763641918543
    85   1      11.506078324289632      5.6756749893534835      28.597767686180124
    86   1      12.857163778659217      7.0777662906177508      1.3349401962096419
    87   1      11.463895499421666      8.7935288705810741   0.0093329096049501459
    88   1      12.962041667734757      10.076073892468079      1.6052223053193069
    89   1       11.27588218296356      11.505791309382564    0.091455442234211981
    90   1      12.821380686101831      12.993136630301638      1.5439999428024296
    91   1      11.459234282251799      14.415761052039246    0.067090986450261861
    92   1      12.837661425368504      15.941322456812513      1.3870661250312073
    93   1      11.374992746108747      17.295785166515195      28.664117067809002
    94   1       12.92001613191557      18.688037378815046      1.4152680011335861
    95   1      11.462403399365973      20.306798114573585      28.585280077364985
    96   1      12.789434137200704      21.601470278572432      1.4086322951123733
    97   1      11.444732656982117      23.054732865923008    0.067386332344767597
    98   1      12.769725772711837      24.582601851155058      1.5075265626589038
    99   1      11.435323933768199      25.872460471007074    0.043373109926358094
   100   1      12.898326468355329      27.417164140361336      1.4287734974507993
   101   1      14.261625440185268    0.074381172628103967      28.552162600451826
   102   1      15.764803001662173      1.2746774445491162      1.2736094748987956
   103   1      14.292772837760007      2.7572383221316872      28.575696441537506
   104   1      15.782238734793326      4.2266446784130922      1.1811157072916323
   105   1      14.383352599422965      5.6814438653513282      28.658467295447167
   106   1      15.947925370464604       7.115115932429612      1.3326115406853889
   107   1       14.21821535352559      8.7287873955411275      28.622293805081828
   108   1      15.768563305468705      9.8655715489393891      1.5779482765634734
   109   1      14.288907197437204       11.40502523183269     0.11783709835100369
   110   1      15.783113542353481       12.82679707604917      1.5858262543078807
   111   1      14.298999248772953      14.401343527595351    0.015753691746419919
   112   1      15.834896107396155      15.741791836106147      1.5631225886937483
   113   1      14.429272175324154      17.321648057457178      0.1529981529787165
   114   1      15.718965476033251       18.76041409756694      1.4023216976770181
   115   1      14.404190134686047       20.20484449491693      28.650877485637089
   116   1       15.59022134383553      21.581174163772012      1.3683557967651945
   117   1      14.174882542403989      23.055856053942716    0.054660248488403354
   118   1      15.619166827057434      24.407086400335317      1.3788714539341982
   119   1      14.149210769338305      25.918089648305031    0.010032637779409017
   120   1      15.719342581454098      27.237061886175507      1.3234806529620309
   121   1       17.30371936335634      28.671515158471724    0.021609010052202383
   122   1      18.791747612389536      1.4416484434515944      1.6478989159697781
   123   1      17.313033698391141       2.747097710387437    0.070127261257118656
   124   1       18.59078650561457      4.1572513815266294       1.605608436553245
   125   1        17.4128630230943      5.6815342272854004      28.604976207751736
   126   1      18.650082325451152      7.1610781974391786      1.4809276208333138
   127   1      17.207160892070437      8.6376047276177541    0.032175835076748184
   128   1      18.604508847715611      9.9779067973536755      1.5256387786264323
   129   1      17.114924084428893      11.389520035951486    0.097485142754067083
   130   1      18.684490048258375      12.926898872616775      1.5042500801596361
   131   1      17.297633517577161      14.305994680209331     0.13071992146574293
   132   1      18.677655347126194       15.97460834604235      1.4333423930350255
   133   1      17.144617589655496      17.225310756855137       28.69827261256297
   134   1      18.513262784975222      18.755188669579194      1.3748473492324238
   135   1      17.059727582036597      20.002430976999655      28.645822509598865
   136   1       18.56824867971854      21.619739535709616      1.3665751067385608
   137   1      17.224121194816362      23.026042620958986    0.004226066358376101
   138   1      18.575156015449512      24.240073109646875      1.5271850001886611
   139   1       17.18447626944883      25.752917273421215      28.536937955796077
   140   1      18.481103630474671      27.072808556983613      1.4025694844450534
   141   1      20.013610090912348     0.18734996876740004      28.618040065685523
   142   1      21.360975631808572      1.2719186835130016      1.5338435972424478
   143   1       19.99474052009317      2.8417527802767824     0.15165677126502705
   144   1      21.471268037686798      4.1941614038576382      1.5162471149512846
   145   1      20.037017607890675      5.6646030788142099     0.13505329828630017
   146   1      21.708321084714573      7.2985586482034739      1.3350892079507497
   147   1         20.132236435762       8.562930403101463     0.10868867013077761
   148   1      21.740658918967323      9.9287509664949312      1.3210610746947948
   149   1      20.118098737763638      11.411070073625249    0.056303271245815169
   150   1      21.496546673314466      12.887251272966793      1.5725722500539643
   151   1       20.00069500283924       14.40043826515128    0.012589722850759712
   152   1      21.393245767187125      15.749101941074077       1.419277441416124
   153   1      20.071968543286285      17.361659394104336     0.02536340448813235
   154   1      21.601252214007502       18.60533238961742      1.4583773488257739
   155   1        20.2294124036356      20.050314461375482    0.016875043406457721
   156   1      21.477804620897931      21.427261028656673      1.5905673376267602
   157   1      19.943598802675094      23.106625349269688      28.665541061664275
   158   1      21.393055796310044      24.338924058907146      1.5234966684277296
   159   1      20.038892788861958      25.748650070961727   0.0048247416975300576
   160   1      21.364494452489396      27.234777242239435      1.2100263697225626
   161   1      22.946248863256599    0.068382855392758332    0.080432762895236432
   162   1      24.378396481107615       1.332865333243398      1.4803478249708641
   163   1      22.816771595948271      2.7277750146354038     0.19057742507540082
   164   1      24.260765337863759      4.0720920169424648      1.4668169833728586
   165   1      22.900312010647109      5.5317402704471128     0.14040614615938704
   166   1      24.333527451087019      7.1389937139946058      1.5624675252735409
   167   1      23.077566782323188      8.6186839956317574      28.633592577869805
   168   1      24.514017949725837       10.06467010847275      1.4259635188697763
   169   1       22.88072609298916      11.525460440208448    0.073798971103974487
   170   1      24.400561055482864      12.791008661427359       1.496284822905555
   171   1      23.001721806998511      14.351921489305228      28.690727953995712
   172   1      24.305303083998925      15.826118923770272      1.6582532987508438
   173   1      22.922966177412473      17.288211526969295    0.032636739503448024
   174   1      24.385486975002877       18.66693361444575      1.4230864686641089
   175   1      22.807194056140585      20.251589404251828    0.062655618363919655
   176   1      24.429651952369916      21.618451667108705       1.420361196016972
   177   1      22.768472300336633      23.005257337082448     0.18058208097889974
   178   1      24.496900889916379      24.312768856176049      1.4460110710282621
   179   1      22.910680283402613      25.833263059461981      28.688184406319309
   180   1      24.372427492854317      27.295059930971568      1.5592409636482341
   181   1      25.798475730526505   0.0062874077706283138    0.071870163878622967
   182   1      27.261804519608912      1.6170626207753114       1.391945550962713
   183   1      25.794765389439483      2.9032927918402898    0.073150177360207513
   184   1      27.260763850068511      4.2782411101320337      1.3786054255137856
   185   1      25.627802325220021      5.6304207341785997     0.12972611754106525
   186   1      27.261132638049123      7.1222696479680714      1.4881745379378923
   187   1      25.875501967109667      8.4933002550656056     0.07890766454780769
   188   1      27.342154443848337      10.003169053448529      1.2094205964681808
   189   1      25.800009446571227      11.560593398237899      28.411188864267999
   190   1      27.121165069065178       12.66573868800463      1.4134587644330976
   191   1      25.933729113993468      14.398290236064346      28.506952805663332
   192   1      27.242156487141724      15.724473795741616      1.5501788774860428
   193   1      25.888114963316252      17.154117845999714      28.621460246507951
   194   1      27.188743631197205      18.641035326134702      1.4319774107412973
   195   1      25.831008058886407      20.129931153892439      28.699751461132536
   196   1      27.410027909763819      21.393873426625802      1.3718374193276184
   197   1      26.029918314327528      22.871645616595885      28.670064798408223
   198   1      27.264170159413379      24.281682992845326       1.500149593809601
   199   1      25.828920695512231      26.083668528274043      0.1173537064591868
   200   1      27.063364515429207      27.425782684610557      1.5098942933582862
   201   1     0.18192564212718032    0.033240125312431777      2.9565356136139189
   202   1      1.4702253876879001      1.4661138408481065      4.4461516311148213
   203   1     0.20178727197127297      2.8285175716550839      2.8952298572410897
   204   1      1.4766659597514156      4.2591025509474818      4.3316272078708504
   205   1     0.03639272741530751      5.7365433067013294      2.7954163486841916
   206   1      1.6632905857804074      7.1974909298252179       4.201821807891335
   207   1      28.690341494857307      8.6706995396259057      2.9261140225961513
   208   1      1.5731925325547536      9.9687135863274037      4.2376147187401871
   209   1     0.13397960012631618      11.425613281159544      2.7615156190633798
   210   1      1.3707389941962917      12.916015722855859      4.3237889367177331
   211   1    0.064589854044198744      14.242543273346245      2.8114063676636865
   212   1       1.611036738558222      15.748522119592028      4.1385471101038167
   213   1    0.088226934847137894      17.108914342482603      2.8421932369560743
   214   1      1.6624075905714237      18.537124324123866      4.1876002803798213
   215   1    0.099223883371429469      19.977274132057904      2.9036570240931949
   216   1      1.3932493743565848      21.756163478691477      4.3645139978847123
   217   1    0.092335411560067637       23.09449757202205      2.8700604235115645
   218   1      1.4913631802556231      24.472115633583563      4.3754203691815192
   219   1      28.660416659583834      25.903440500490674      3.0801889652331251
   220   1      1.5045358143182763      27.356417919620636      4.2185414417300349
   221   1       3.161178653060436    0.072018088852019158      2.8665351679287592
   222   1      4.3925604934224722      1.5412150112093743      4.3282462274861757
   223   1      2.8012282965346098      2.8048422258300332      3.0969910018583224
   224   1      4.4494659363652564      4.3921162930772493      4.3403994520916589
   225   1      3.0034398704699146       5.542269167889577       2.721123554278631
   226   1      4.3479563262021639      7.1128285236223308      4.2397144087873819
   227   1      3.1917694707715767       8.629397929264309      2.8177095582379126
   228   1      4.3689433005140375      10.110486966770269      4.0481777996347184
   229   1      2.7248755392517059      11.565463661778269      2.8327158836189357
   230   1      4.2782638658819128      12.889976793147156      4.2396964798657519
   231   1      2.9382976664752229      14.192414508397375      2.8227759380545305
   232   1      4.2150010954676693      15.648147262467056      4.1582817531486906
   233   1      2.9718196530436152      17.071371514057279      2.6635629628345439
   234   1       4.416153380996481      18.530040269783392      4.1892500654526215
   235   1      2.9145315149475279       20.17650167511086      3.0814392169141112
   236   1      4.3521896595155383      21.616949220580771      4.3192723044064589
   237   1      2.9634589292451787      22.916747865665283      2.7898999846721249
   238   1      4.2137687274792039      24.425713904549859      4.2775665709953445
   239   1      2.8713029113014712      25.923857568798109      2.8563030743456008
   240   1      4.4502424458563823      27.257426153798683      4.2725058149945525
   241   1       5.734217308036146      28.617758038378515       2.863855297398811
   242   1      7.1873200286412251       1.366080550841003      4.2820917130831164
   243   1      5.8221972576218155      2.7495726160150404      2.8366612113799863
   244   1       7.167859246586767      4.3260533053558117      4.1946513154519476
   245   1      5.6817679868124715      5.7516706210528383      2.7714731550358915
   246   1      7.1156666717776824      7.0931669601194214      4.3317163371797012
   247   1      5.7862267790198274      8.5473945062746264      3.0672115221719292
   248   1      7.0517076044504332      10.054272424192614      4.4291970826743547
   249   1      5.7866472919452709      11.486260896666778      2.7536183916468531
   250   1      7.2505515980740398      12.911283056561498      4.2504438376392182
   251   1      5.7786185699651842      14.229282773622744      2.7835782571805905
   252   1      7.1780830438759731      15.767196297572207      4.2282744148065454
   253   1      5.7995867295084613      17.035104199196251      2.7172247206295079
   254   1      6.9981836937187012      18.606186926297429      4.1121387847810036
   255   1      5.6376476345728443      20.030717914303974      2.8787401575137856
   256   1      7.0257128034257494      21.359042466722251      4.2649969010264472
   257   1      5.7536393595043149      22.989107374603066      2.7784671278353361
   258   1      7.2352026383875927      24.344554374447434      4.2564553874412772
   259   1      5.7345695387650775      25.728261110613669      2.8514830221543326
   260   1      7.3125315781903346      27.378858457976499      4.2559993147174646
   261   1      8.6844303826546962    0.029154798966919849      2.9949873874902759
   262   1      10.118375916083009      1.4617325442265487      4.3893021765063676
   263   1      8.6599018504122913      2.9188801962988804      2.9466494159673098
   264   1      9.9445679226274031      4.5065777409061063      4.2423543582352661
   265   1      8.5021586605879218      5.9341631694397234      2.8426286651946953
   266   1      10.008931670961381      7.1113570330581828      4.2509185160800262
   267   1       8.596579299629834       8.392319485873168      2.9102010470513227
   268   1      10.027341553162547      10.099440836066178      4.3575711581298595
   269   1      8.6288441963447138      11.590959345500391      2.7385260063399066
   270   1       10.08054667227934      12.990029363353273      4.2641233793471471
   271   1      8.6950097674540761       14.42345940876889      2.8078378032176152
   272   1      10.106680203202698      15.782387354040969      4.3242073010258224
   273   1       8.573144166410982      17.360946712855657      2.7687593183923105
   274   1      9.9696055216060415      18.715906179542504      4.3284064574739967
   275   1      8.3756216286372123       20.04037722257814      2.8216852011007396
   276   1      10.036577201982377      21.596246619515057      4.2094095444468778
   277   1      8.5399600250085435      22.752474881223925      2.8690546115307822
   278   1      9.9493025903275178      24.578166842911202      4.2167205217015482
   279   1      8.5496450154651331       26.00900539389859      2.7224944164960907
   280   1      10.002491329536273      27.285725806801082      4.3893793163212509
   281   1      11.389843551730303    0.086427293450992829      2.9191267347083993
   282   1      13.055757967478458      1.2872099049862873      4.2228394367321025
   283   1      11.595585040883657      2.9482618139526853       2.937213846761682
   284   1      13.063942170713579      4.4442286017654684      4.2480729361389145
   285   1      11.489421929840612      5.7677889477712707      2.8956577667073975
   286   1       13.01722130613839      7.0616274474533931      4.2938755803081134
   287   1      11.324755482247683      8.6755262534878774      2.9641083149773078
   288   1      13.086461937423476       9.850884938265299      4.2797551819490636
   289   1       11.47276747624281      11.487740104721599      2.8780241392728603
   290   1      12.886739049662012      12.897166787102119      4.2576913212136862
   291   1      11.539584612574332       14.32828036679803      3.0242466809492869
   292   1      12.979700150013523      15.736090823832837      4.2833530682936054
   293   1      11.462218544800361      17.271851454015231      2.9425865784605634
   294   1      12.739537854234575      18.625321780062752      4.2920303943730307
   295   1       11.20272832312496      20.163892731995698      2.7953568824399673
   296   1      12.838222294691445      21.351958036652629      4.3443929687150034
   297   1      11.443530473406762      23.003416590399194      2.9597495069498003
   298   1      12.851858155559169      24.394133966922446       4.505235027495182
   299   1      11.478608525647481      26.044195146300993      2.8616852923349936
   300   1      13.116047091729259      27.382232685406766      4.2959514773313217
   301   1      14.327958214616968    0.027936456052884917      2.7233813717802944
   302   1      15.616461793318148      1.4000251590218806      4.4167012930394458
   303   1      14.453411088151409      2.7569276460933092      2.7518809687260042
   304   1      15.606786608868505      4.2733630727000707      4.4191956079167642
   305   1      14.378862436715181       5.764552788257487      2.7209091336452609
   306   1      15.712672306805073      7.1706993164210759       4.484482925988436
   307   1      14.353544689404778      8.3897141000870654      2.8194580596070402
   308   1      15.900648258506449      9.8798136815735429      4.2483166807393564
   309   1      14.415345796359199      11.412167183944414      2.9838785592680614
   310   1      15.842812020585997      12.859374027830016      4.2604191200997192
   311   1      14.425922327496458      14.261154014716086      2.9089529069090641
   312   1      16.002617484960812      15.850953775420175      4.0772726337866558
   313   1       14.19941738685686      17.248926140018661      2.9382092551612469
   314   1      15.727725842867084      18.761959747530152      4.2329397893375855
   315   1      14.304591249304853      20.042323666833912      2.8077063702918403
   316   1      15.622762153787768      21.583869562912891      4.2285840516588094
   317   1      14.235316992452381       23.10212381995181      3.0161762911308068
   318   1      15.560963897816729       24.28764170147489      4.5404869504356284
   319   1      14.219232587179651      25.803807633628001       2.804990041711299
   320   1      15.665105219900267      27.345736845943136      4.2845573730395259
   321   1      17.195673154633837       28.68901673437087      2.7867188160836016
   322   1      18.549517182930305      1.3790206973251893      4.3870760003189266
   323   1      17.098769567947858      2.7610147958222897        2.88634201432003
   324   1      18.618676862577669      4.3292144135808348      4.3887257472494836
   325   1      17.284792407696308      5.5280861618147918      2.9763996277613232
   326   1      18.703039683501085       6.996589952399102      4.3645031947590596
   327   1      17.451755634834527      8.4911508557052038       2.979348171237298
   328   1      18.721862598128148      9.9382679648703842      4.3845722934822415
   329   1      17.204838025822475      11.376641052876371      2.8918955335706054
   330   1      18.605051478648996      12.704345042404084      4.1792709039488543
   331   1      17.370173549844139      14.458521448360463      2.8663611752161606
   332   1      18.612393293156529      16.103679005251994        4.22265972892977
   333   1      17.150727493989535      17.539652794360723      2.6859335998265808
   334   1      18.612409310187655      18.673319750275112      4.1923521447090097
   335   1      17.209279886073173      20.229393818940963      2.9706869335499633
   336   1      18.429869636155175      21.577372236716695      4.3007983295119256
   337   1       16.90874593137077      23.057736837939157      2.8737667172072561
   338   1      18.584451407558952      24.291053011500409      4.2103477132725251
   339   1      17.143399459796548      25.743014218840152      3.0587515369036606
   340   1      18.621658240986196      27.231156880890452       4.373076580717786
   341   1       20.07498156224225      28.615434957488066      3.0030632564025086
   342   1      21.574532430109777      1.5864816414186398      4.4056184604841642
   343   1       20.11677324335162      2.8558128245020824      2.9125706154807682
   344   1      21.509522770178492      4.4799912986825472      4.3488020759852208
   345   1      19.959739816614544      5.7156475686984738      2.8671555841330694
   346   1      21.474583406946842      7.1475125245439353      4.4225047784469593
   347   1      20.129269967592993      8.5716964027662232      2.8981544184500154
   348   1      21.486929114207523      9.8270550577009868       4.386845606098805
   349   1      20.220804567055236      11.168368131547144       2.777761433876242
   350   1       21.41393606412587      12.856013194113494      4.0878052563655398
   351   1      20.102271040828445      14.341389445262084      2.8169388627812952
   352   1      21.605567577428989       15.55921307355692      4.1762017939615115
   353   1      20.192580521719599      17.182120949877088      2.8389821646052487
   354   1      21.503200078910933      18.606559694853495      4.2505802409406535
   355   1      20.105535003561478      20.059376845833775      2.9354811073565723
   356   1      21.541619601562108      21.693172448048173      4.4149994709729175
   357   1      20.044985721759698      22.852643690982493      2.8492770747600269
   358   1      21.523594139452161      24.432383950547504       4.260696076856215
   359   1      20.162277125164977      25.865320060136948      2.9878532623463494