dump/Fe_750_0/steps_71 (written by ASE) 

2000 	 atoms 
1  atom types
0.0      28.699999999999999  xlo xhi
0.0      28.699999999999999  ylo yhi
0.0      28.699999999999999  zlo zhi


Atoms 

     1   1      28.676855141981562       28.64299508247192      28.661695667460155
     2   1      1.4017652013708128      1.5334182264333203       1.432635076254269
     3   1    0.058073279836639846      2.8747737759608061    0.005317009792713631
     4   1      1.4649986248020814      4.3570105228614997      1.4489816668081066
     5   1    0.067220781297467017       5.697056377407872      28.621110332023324
     6   1      1.3814341667856755       7.134410124361569      1.4423902353414289
     7   1      28.678620338041799      8.8043052361551215     0.10533793890971313
     8   1      1.5299987213556281      10.050942759928928      1.3866280925365801
     9   1     0.17039208672145165      11.487591873954168       28.69626806826281
    10   1      1.3238746022791141      12.908025480985707      1.4085760932041256
    11   1       28.67022309051562      14.154424054809457      28.559424205722394
    12   1      1.4400033954111573      15.732062571476776      1.3965947093625681
    13   1     0.07629301708970225      17.197009651079057      28.683571452785603
    14   1      1.4752772247392409      18.784635768393283      1.3456985792671265
    15   1      28.614425525638968      20.194691968335121      0.1946112888649055
    16   1      1.5109800941306868      21.602621024467485      1.3692173606520204
    17   1      28.541816066892554      22.821754224063294      28.694368904660625
    18   1      1.3748518972664103      24.475802673518817      1.3839200716274267
    19   1      28.638239228566793      25.945147315246718        28.6065494969436
    20   1      1.3490471936408668      27.345188532048947      1.2842735469720297
    21   1      2.8068336248714489      28.630120194681329      28.527983814058857
    22   1      4.1725281763450797      1.3552009709784096      1.3991144375731783
    23   1      2.7924480349511227      2.8222920594979541    0.060832669078308789
    24   1      4.4569330610400417      4.3082397811988411      1.4420304945584017
    25   1      2.8728660810524538      5.7887873377430834    0.035349627229868584
    26   1      4.3880613566204367      7.2823610022616663      1.3558967259676709
    27   1      3.0245623775159927      8.5776329354770358      28.699550932364399
    28   1      4.2868442144568224      9.9584415188796918      1.3246261505289669
    29   1      2.9146726469970594       11.47049146657911      28.619489533063163
    30   1      4.1008050101649189      12.894374459940522      1.3869597932006177
    31   1      2.6226910611713752      14.320989224309495       28.56119284757337
    32   1      4.2358156270822107      15.769115829480469      1.4500351507760463
    33   1      2.7559433935718429      17.247555429897183      28.614352209140151
    34   1      4.2720565602529845      18.681000866477802      1.2456553199688745
    35   1      2.8907506586200173      20.161164242577879      28.580848683930476
    36   1      4.3595643636925256      21.584329515573998      1.2843421410999087
    37   1      2.7838374110415876      23.186518539090237     0.09679090715205789
    38   1      4.2807108797571063      24.544140644380821       1.467443563633118
    39   1      2.9758496894303708      25.891821217561272      28.653871395660733
    40   1      4.2098693225866821      27.408053513938498      1.4546362801816264
    41   1      5.7572848363635813      28.541279500145336    0.046685201792649823
    42   1       7.174935455416918      1.2838355160892319      1.4484249516944498
    43   1      5.8463310381530889      2.8993852205888082     0.10886635954765314
    44   1      7.1994362574161368      4.3127638256113201      1.4952964329750207
    45   1      5.6974906850401457      5.8422048282579109      28.681465256172007
    46   1       7.186774672111123       7.280991083019785      1.4525535195130941
    47   1      5.8782722548816215      8.5858542317777804       28.65379510537284
    48   1      7.1764192500231854      9.9853070283413139      1.5541630250614844
    49   1      5.6937650640696278      11.528461984760863      28.667609280407707
    50   1      7.1362073058093651      13.019683623800482      1.4244941584195436
    51   1      5.5664988071168295      14.290326960710551      28.613821786925843
    52   1      7.1167156021550655       15.68782751444302      1.3247549488969967
    53   1      5.6001028751989592      17.144418104966064      28.643962456503179
    54   1      7.0844781427774555      18.760769462752346      1.3837610784901364
    55   1      5.5521194091919215      20.158014897397848      28.511011803122308
    56   1      7.1211776004013476      21.489581436396083      1.4493700980244966
    57   1      5.5224255645610807      22.916077032110991      28.596203501828292
    58   1      6.9955318712429175      24.320572814277455      1.2663621991491578
    59   1        5.66035225754504      25.984030916120794      28.610113113106511
    60   1       7.105376702016601      27.100471421211722      1.3066939496978307
    61   1      8.5649733215076935      28.641281060959258    0.047954994756332685
    62   1       10.05324356761172      1.2817205398743552      1.4455267905617348
    63   1      8.4806752334968998      2.7625872305864161    0.063602167987096267
    64   1      10.211090541189746      4.4210388241443281      1.3680729778150973
    65   1      8.7860089608019738      5.8302966536844778    0.059280532993488871
    66   1      10.062069404437208      7.2542812320719658      1.3557912069819162
    67   1      8.6410723574304118      8.7236202613386524      28.667002149583613
    68   1      10.113474897486551      10.071668457284193      1.3909169299764477
    69   1      8.6215355532047937      11.332767171404926    0.044126856179468592
    70   1      10.009410582388785      12.914958358428565      1.3118856948493196
    71   1      8.6890098979684343      14.289774539281632      28.618652848072376
    72   1       10.21887935129379      15.814937553711015      1.2682220078177915
    73   1      8.5726552815910839      17.194129724521694    0.006847568985006095
    74   1      10.096244737824428       18.84532579099756      1.4237810066276666
    75   1      8.4954847002694613      19.955993600492544      28.529506307305212
    76   1      10.074441946217563      21.580901670673182      1.3415401670236864
    77   1      8.5074702257388992      22.874065145235743    0.077838400161385851
    78   1       10.17742566581822      24.350337666084851      1.4165214608115653
    79   1      8.5719890388495017      25.825855233946065      28.543041777902246
    80   1      9.9776498777588465      27.261117266500175      1.4608785731322091
    81   1      11.326854842114612      28.667050717289403    0.031343222759198736
    82   1      12.963607672184393      1.6016395464327395      1.3676118256332743
    83   1      11.551447127457653      2.9512136922022605      28.587551062999342
    84   1      12.977376247891174      4.3769292091117302      1.4104064972326342
    85   1      11.570271637590134      5.7042055690800169   0.0043469209760473816
    86   1      13.031692397756636          7.262694115275      1.4392723496848023
    87   1      11.443760687196614      8.5952264763266601      28.604351821886059
    88   1      13.033221048536557      9.9312673541241523      1.5029170285459024
    89   1      11.573769012099721      11.465823445568031   0.0013421027038361894
    90   1      13.076932497873138      12.944441066652134      1.4069616975456243
    91   1      11.625186942154061      14.369416087066977      28.554543457578639
    92   1      13.127022190593195      15.851441065390516      1.3832566412799003
    93   1      11.397041478495389      17.295597139060433      28.615871089030765
    94   1      13.072008543282537      18.595551300318601      1.4143653747938398
    95   1      11.560073141993799      20.100234766297529      28.669164090548239
    96   1      12.987670469954752      21.442984054085699      1.4885763152603324
    97   1      11.553402589620731       23.01933231192351      28.688571160132078
    98   1      12.838471367255458      24.450998629077827      1.3855426797778143
    99   1      11.631849178489896      25.896459036957726      28.632512460978322
   100   1      12.886378542623847      27.145954062306643      1.5102210347891636
   101   1      14.413498792251339    0.096510323760185118     0.18213786440817323
   102   1      15.890652192104897      1.4221815494417918       1.478230669690094
   103   1      14.533260246797111      2.8835914631002817   0.0064359258547710876
   104   1      15.728868057529381      4.4062977308617466      1.5510092943355396
   105   1      14.543264669264111      5.7549158959439195    0.048424878523894765
   106   1      15.776898343263936       7.354628402433999       1.370324652524562
   107   1      14.416492412173472      8.6945937349375555      28.353963054360889
   108   1      15.848661494735003      10.016882772354462      1.4508137757604229
   109   1      14.365792822810262      11.323372225249297       28.57209225160938
   110   1       15.93117021636956      12.921821840481691      1.3385647650724652
   111   1      14.334329669210573      14.263650667124319      28.621955193867933
   112   1      15.878284356161171      15.662136882505285      1.2344823515597911
   113   1      14.324100031657139      17.337457931045545      28.580072117185157
   114   1      15.686566606228006      18.540975488885511      1.3487409787216851
   115   1      14.319385334811791      20.112945755196808        28.6870311535273
   116   1      15.935486891865724      21.570403962671538      1.3671597019204793
   117   1      14.356316088477561      22.941635273552826     0.11761026459643052
   118   1      15.799650346547438      24.300592852491611      1.4444866613169338
   119   1      14.435336931978382      25.800994914095458      28.691994892026415
   120   1      15.779663766352488      27.168683266134927      1.4553765831360352
   121   1      17.237924984584158      28.645650305672508     0.14511154023433617
   122   1      18.462161310965914      1.5059116584389145      1.5768760500753738
   123   1      17.287030823367889      2.9283593585488887    0.091682421272025763
   124   1       18.61667707971084      4.3514504787238151      1.5938755304944163
   125   1      17.165537812245141      5.7234375685575998      28.689230680560343
   126   1       18.54120590552116      7.1964870909420275      1.2402165264433405
   127   1      17.211614540271185      8.6497529335285748      28.586129492767526
   128   1      18.484886920170265      9.9581683004707386      1.4305408828547805
   129   1      17.209825184920003      11.469137737408333    0.019505125163925642
   130   1      18.644067819381316      13.044191681145632      1.1871877054737638
   131   1      17.277280112567247      14.385513731167745       28.55053715558148
   132   1      18.634394970263443      15.749383015989018       1.369281052313146
   133   1      17.147515117460038      17.113278608114999      28.553550160380119
   134   1      18.588760605152761      18.425980982056096      1.3394009915647194
   135   1      17.285675831965111       20.06872001023898     0.03992318135952929
   136   1      18.618458962445445      21.575905348841896      1.4155752952638054
   137   1      17.256067133291019      22.862753240088573      28.571441383800277
   138   1      18.617383442229954      24.541752383952595      1.4417640985691362
   139   1      16.972641819751953      25.829826169112458      28.666019812006653
   140   1      18.477209348732472      27.097398887085642      1.4380865507942078
   141   1      20.295814622141489    0.044699988416789453     0.12443809984175684
   142   1      21.478841919042978      1.5677881315238875      1.6903708106998456
   143   1      20.019634404793479       2.793667287892855    0.048636137299695237
   144   1      21.445285738835235      4.2657129767320656      1.4387286812587026
   145   1      19.991220297505887      5.6857474663281247    0.012063158275680058
   146   1      21.307117341852784      7.0339351038178037      1.3527093800500769
   147   1      19.982007791966673      8.7329800713916264    0.029275382285015836
   148   1      21.554133926561246      9.9614048362422736      1.5026382494369961
   149   1      20.298616541941698      11.597895762298419     0.19399407523479781
   150   1      21.533309470186392      13.018793270672541      1.4676769678366892
   151   1      20.254733069498908      14.249524205112584      28.470694072129024
   152   1      21.581982233091878      15.614992852158872       1.510483928002657
   153   1       20.06927038125146      17.131083922015062    0.028919270385449572
   154   1      21.381222871273845      18.741230862916307      1.5056673002894527
   155   1      20.006292238295636      20.050361570269764     0.10472992148328338
   156   1      21.562361034687548      21.690532768885127       1.517323688265527
   157   1      20.135709446363162      23.077558759341965     0.11893589407254704
   158   1      21.432125715153628      24.593417422844141      1.6517953024999301
   159   1      20.091476959511869      25.760095986467107       28.69148666556876
   160   1      21.453606338542706      27.257098585166595      1.4138039262238418
   161   1      22.937378411111709    0.013138467615613086     0.24041952199329439
   162   1      24.292428610166208      1.5602960008877282      1.5263616524404948
   163   1      22.955089116364448      2.8894002734337301     0.12958918909978354
   164   1      24.237855785798587      4.2718813097393129      1.5844716572225035
   165   1      22.916420337335449      5.8632438965550229      28.623867768318508
   166   1      24.329874769631584      6.9657443058248729      1.3893495106180571
   167   1      22.980424253935531      8.5317291519101328    0.036946841202961787
   168   1      24.325958526330908      10.164974847243842      1.4321705031573735
   169   1      23.088593484843432      11.464034043131223    0.046742880332260338
   170   1      24.425282436680092      12.959347785997322      1.3379309402270443
   171   1      22.853738244933904      14.355300576828098      28.650311909355104
   172   1      24.146268856864182      15.862425176360452      1.4062921341584451
   173   1      22.826245153078403       17.24896796847224      28.645266070344562
   174   1       24.18283756720967      18.671574640889723        1.42747402850174
   175   1      22.903084098476697      20.256459751636651     0.20982471319061916
   176   1      24.244149177416769      21.687223203123956       1.414651194275018
   177   1      22.902546575348644      23.104198230525881      28.604588079154652
   178   1      24.199393628394219      24.409136744190917      1.4156719868089236
   179   1      23.002821104289328      25.973082403424307    0.050146610391425442
   180   1       24.46241345969921      27.300642138580379      1.5013061364234099
   181   1      25.916052381040643     0.16433712607694287      28.672384668518493
   182   1      27.271490318685025      1.5759016277578892      1.4668456180871776
   183   1      25.631901752092503      2.8509263487948839      28.595965235378657
   184   1      27.181320586923285      4.3535294088801457      1.3983252103414425
   185   1      25.840182515734519      5.7003221061478513      28.602195219546239
   186   1      27.225431245204206      7.3226001182002829      1.3838298483400298
   187   1      25.784717064323122      8.6083348561345137     0.13419343947989545
   188   1      27.186085920653706      10.027992070398804      1.4205787132092491
   189   1      25.890070767510171      11.461095360483956      28.692663621451842
   190   1      27.172278122302462      12.829481752528604      1.3739960113319736
   191   1      25.669069325157203      14.383410327857497      28.535033616518824
   192   1      27.324947721961724      15.693208815507125      1.3945688664274019
   193   1      25.606116032973596      17.187807678070683     0.14995897170439329
   194   1      27.328952346682517      18.607267600340204      1.4383682905724178
   195   1      25.788751922063113      19.918405850826595     0.10589428749535722
   196   1      27.124613551892946      21.621730703832018       1.420957605424382
   197   1      25.611335860086374      22.908478472177499      28.503391045634373
   198   1      27.159598380540327      24.340085426123942      1.3644368777170139
   199   1      25.684163515944558      25.841217510807219      28.527357427123491
   200   1      27.078404996848903      27.412854573433481      1.5595554333681896
   201   1      28.676110328272429      28.652779329902188      2.9072391019916721
   202   1       1.404607972921325      1.5149700106420381      4.4209282642604872
   203   1      28.655584271539652       2.859587848450166      2.7221791939278881
   204   1      1.4573156475565627      4.4414273958914245      4.2407031547657592
   205   1      28.580456025332978      5.8657968548214416       2.796179592481268
   206   1      1.2712007395145863      7.2372897807388785      4.4128128645997116
   207   1      28.646819929125726      8.5967222642019756      2.9875996468317836
   208   1      1.4415631864385114      10.149407441263014      4.4111746663604503
   209   1      28.680577827523905      11.456805632156041      2.8871353563299547
   210   1       1.410808706003263       12.86931338219569      4.2947563333679888
   211   1      28.493776651494489      14.208813682658464      2.8266729803120598
   212   1      1.2650568404716196      15.906485849535658       4.158115879647454
   213   1     0.10478902319633922      17.318218799915272      2.7403495290680331
   214   1      1.4796607242191158      18.721038130732918      4.1629154982551739
   215   1      28.566400440060363       20.16550764172333       2.778221861472296
   216   1      1.4696423107153582      21.461521815709933       4.237039108410019
   217   1    0.097488857844293147      22.956671225572439      2.9591988406397589
   218   1      1.6351855843191199      24.352551250704614      4.2980552954787763
   219   1       28.66798138401569      25.842928946502017       2.830955655050047
   220   1      1.4675201168172078      27.189924959320464      4.4095912890767979
   221   1      2.9072222895000168    0.018947766124483852      3.0549388339410881
   222   1      4.2984603290715269      1.4278878191595259      4.4214937091229194
   223   1      2.8861027520992493      2.8416600866294064      2.8545307783830913
   224   1      4.3959926600551569      4.3655102551603342      4.2268902989315782
   225   1      2.9780232766378698      5.8023260747757242      2.8678652072783377
   226   1      4.2685953217641872      7.1825103139494555      4.2293529703738617
   227   1      2.8685064902371447      8.5893474042550455      2.9112029260839209
   228   1      4.2606681886929172      10.134389528438264      4.3132820573619881
   229   1      2.8525722843235157      11.448222624607759      2.8073929916530336
   230   1      4.1515473533576452       12.93899285633397       4.191393664377939
   231   1       2.727996334857222      14.369987574488016      2.9832706027224609
   232   1      4.2762433962829647      15.666036959028117      4.2236500307116742
   233   1      2.8366955000454488      17.251158563336499      2.7088442320620505
   234   1      4.2802445498935935      18.678854675039354      4.1932987780624771
   235   1      2.8951325033777184      20.106754772399533      2.8792470139720718
   236   1       4.205095033732019      21.531987439585649      4.3229143122274438
   237   1      2.9284335114386537      22.863774360228408      2.8016593469895259
   238   1      4.4015400230968691      24.438495633711334      4.2206942421480313
   239   1      2.8896222433238559      26.056537623831087      2.8457757867648965
   240   1      4.3514878240178998      27.320276871038537      4.4003065146706808
   241   1      5.6446541514366881      28.584214707200449       2.828120544543526
   242   1      7.0516692420366427      1.3677042699332789      4.2824234035345352
   243   1      5.7552466661126447      2.9094205611056618      2.8376346064793427
   244   1      7.2936986308789526      4.3437742207180756      4.3342798261465507
   245   1      5.7895954387154944      5.8740900042382682      2.7985375397751779
   246   1      7.1640689227280454      7.0238588626214762      4.3725184984401029
   247   1      5.6454132173854017       8.714019633046032      2.8938667537072917
   248   1      7.1679581544069046      9.9118900464616466      4.2662867485915159
   249   1      5.7071624427962844      11.485363754504277      2.8362098850854527
   250   1      7.2567464155632049      13.123715936586471       4.253314022887932
   251   1      5.6474643337575001      14.292172566341177      2.7188104961258319
   252   1      7.1249735167169845      15.844717897804504      4.1769338113566157
   253   1      5.8010003579769736      17.320754165623402      2.7803784277400942
   254   1      7.2987374848740725      18.683522937273416      4.2404074444216624
   255   1      5.5528921158427513      20.359041052837519      2.8394015829159116
   256   1      7.3041635031290975      21.492519315043999      4.3208086393474261
   257   1      5.6859790174957894      22.934114099163121      2.9110732565972173
   258   1       7.308697447155355        24.2762015108346         4.1510785001852
   259   1      5.7191659391242506      25.892006279171905      2.9729288397421785
   260   1      7.1433451333054974      27.154161721259435      4.2927434607249086
   261   1      8.5116266490960069      28.586273669812115      2.8442523481904796
   262   1      9.9507342554165596      1.4522719060122413      4.2811465231423069
   263   1       8.597883318795704      2.8582898232041662      2.8569332492656812
   264   1      9.9383498905554291      4.2706697692373838      4.3047742630195405
   265   1      8.7042173456443273      5.7443926838636843      2.8001299919022022
   266   1      9.8592846832458481      7.1973140345703088      4.3644800401401973
   267   1      8.5557390346476829      8.6110742650298793      2.8354366846177865
   268   1      9.9229140709635004      10.043795241185464      4.0782344581609351
   269   1      8.4570034487867201      11.590061743640259      2.7746912064964242
   270   1      9.9595406231099162      12.883210068280414      4.2526656829426193
   271   1      8.7401798570526417       14.36208821573401      2.7374370270141299
   272   1      10.065403107054244      15.708651870538588      4.0861427389086016
   273   1      8.7135122143073396      17.191438414927656      2.6820209390447856
   274   1      10.226542498928408      18.779732688955658      4.0504821766644463
   275   1      8.5312607361796697      20.092797004309617      2.7338830847730273
   276   1      9.8870092601285631      21.267375529073504       4.235413735192644
   277   1      8.6626632754464801      22.798945424227252      2.6554153134462002
   278   1      10.092528245621764      24.413558308786911       4.205473068150571
   279   1      8.5061388785530241      25.747349922026277      2.7874048259336508
   280   1      9.9368787997347319      27.245217032468805      4.1351084105477325
   281   1      11.462182496986445     0.16399843581325541      2.9412393617944894
   282   1      12.839463148856483      1.6320013817817869      4.2882982398754939
   283   1      11.300027040879471      3.0136025758839637      2.8074560328072833
   284   1      12.818560381933814      4.3392934893909505       4.292971250679221
   285   1      11.374643806304432      5.8338950194013863      2.9020628587450155
   286   1      12.737343440901142      7.0271161727479239      4.3958867046225816
   287   1      11.514470388101168      8.5598955601046907       2.802063039194477
   288   1      12.861073668021353      9.9646385479388506      4.3850918392359164
   289   1      11.401818393039493       11.37696696862651      2.6713178130014392
   290   1      12.792941996098369      12.734858042066104      4.2431972327661942
   291   1      11.651937737581278      14.304130388576999      2.6316852905881993
   292   1      12.899601267778117      15.751116454298309      4.1970886273549359
   293   1      11.523059104007991      17.312552037310272       2.670923430040296
   294   1      12.928537423833571      18.462764175654847      4.2759089270052728
   295   1      11.535391250257485      20.065069974679613      2.8471771994503583
   296   1      12.967431691271582      21.432509883662448      4.3624150794893684
   297   1      11.521704625414896      22.771072953038349      2.8420357675521006
   298   1      12.700629120465976      24.246294748447813        4.41319142907839
   299   1      11.542549603361531       25.88082932950871      2.9361763073708449
   300   1      12.750250864027931      27.384025641310423      4.2436354631242796
   301   1      14.182776564867721       28.69402576176596      2.9993953588319999
   302   1      15.764874944792743      1.3789055971369624      4.3150320185296236
   303   1      14.455439881517192      2.8747190489578949       2.896631160087237
   304   1      15.821325974543264      4.4139671136751151      4.3944276642973827
   305   1      14.464910361466249      5.8211139796493052      2.8449626406625268
   306   1      15.725757795518382      7.2436614305106444      4.3074930140325982
   307   1      14.290057681628612      8.6452890069831057       2.997065149370576
   308   1      15.834108142484485      10.025610600212413      4.1473083313441732
   309   1      14.354715477137104      11.524454771527113      2.8568157238030141
   310   1      15.747366287922169       12.91716642598195      4.2150752110340859
   311   1      14.448428681617234      14.323183200631666      2.7538564813630035
   312   1      15.788310288684864      15.776083778144946      4.4070583663830387
   313   1      14.416019766360282      17.207721807894995       2.931355363032075
   314   1      15.852588909001033      18.625853281468501      4.1750755751872779
   315   1      14.341731430000333       20.10771817294378      2.9071165172025712
   316   1      15.678820187513809      21.501631138090168      4.2581057563813092
   317   1      14.396852972589853       22.89940814238641      2.9487014487393606
   318   1      15.611508933845849      24.381940408489143      4.2479234775197625
   319   1       14.25703830658345       25.76534255211741      2.9476110099772517
   320   1      15.592327860455942      27.289520840105109      4.3775468865147094
   321   1      17.150530699984767      28.571492509084283      3.0454489517116503
   322   1      18.618793996323419      1.3918465816059562      4.2629644376168532
   323   1      17.183883408065903      2.8402761212483707       3.007247683442769
   324   1      18.532176253530036      4.3333719741389061      4.2912587299003349
   325   1      17.237348372821856      5.8480794356766763       2.916361435916679
   326   1      18.704712376974413      7.0437530052639117      4.3149808584167246
   327   1      17.327646396514204      8.5358871459132235      2.8307988848993659
   328   1      18.580931529570339      10.080933497405773      4.2114909770627467
   329   1      17.249764738480792      11.525262938855358      2.8837577941717893
   330   1      18.577817452662956      13.096331469594205       4.305653166874043
   331   1      17.310026528587287      14.329428475172698      2.7365014799560061
   332   1      18.587523615782267      15.713023087344499      4.2237845354283499
   333   1      17.083221816567171      17.181436479911266      2.8695278011340277
   334   1      18.621337747961498      18.498089657728265      4.1714458669514451
   335   1      17.189688988799229      19.956113724354484      2.7179065402977707
   336   1      18.579741906242887      21.466676585133051      4.3771776868324839
   337   1      17.198870227676668      23.013768728688433      2.9480964377725387
   338   1      18.507668538816063      24.409826152899431      4.5759299098876483
   339   1      17.048479694593574      25.708290207089597      2.9434850927530758
   340   1      18.575528847372652      27.053152102180011      4.4094786943792563
   341   1       19.88985630875116       28.54966249411865      2.8248832966436574
   342   1      21.556961124676278      1.3949125758947396      4.4613267176870695
   343   1      19.991200168884358      2.8623744735667622       3.006062803696151
   344   1      21.520563777781192      4.4322731024757926      4.2982493523005987
   345   1      20.057567285191471      5.8072811805670046      2.7998239145921286
   346   1      21.524391999621781       7.287373496959221      4.3176618439866674
   347   1      20.062637995882348      8.7537070981405929      2.8118938706793526
   348   1      21.414328867442137       10.00868491425665      4.3317229284519785
   349   1      19.957399347784936      11.603584898447441       2.929024747804053
   350   1      21.567628749606186      12.603534470842895      4.3725353552864616
   351   1      20.092992190335263      14.369179421744565      3.0400409692777468
   352   1      21.653058952818235      15.765953810098809      4.4452819637401344
   353   1      20.172875801687603      17.171267052774486      2.9080997330763911
   354   1      21.526143284815785      18.503704991687663      4.1956851498640102
   355   1      19.962910619506339      20.079089797082911      2.8212627580195666
   356   1      21.285878278467781      21.617453914205626      4.2974554018055313
   357   1      19.869096222992788      23.009461243212929      3.0001220134460693
   358   1      21.476211309352696       24.34356745528499      4.4793253000156312
   359   1      19.951289648391363      25.764858004191627      2.9892744075773052