dump/Fe_750_0/steps_1 (written by ASE) 

2000 	 atoms 
1  atom types
0.0      28.699999999999999  xlo xhi
0.0      28.699999999999999  ylo yhi
0.0      28.699999999999999  zlo zhi


Atoms 

     1   1      28.675642551637171       28.54715661078388      28.630619975967793
     2   1      1.3993516757508009      1.3307171291946813      1.3648677034587877
     3   1      28.616889767319435      2.8497743604698718      28.620049863829578
     4   1       1.316929458988614      4.1172817291036701      1.3579202227744303
     5   1      28.634998405352306      5.8813619037010296      28.460781383115986
     6   1      1.3754981506237183      7.2700177315288332       1.356143371341987
     7   1      28.598201510110275      8.6264649417350991   0.0012079434015163316
     8   1       1.399224395742239      10.129809476737769      1.2724816021300056
     9   1    0.017805491397077912      11.540646858537423      28.676393997713692
    10   1      1.5568714738329965      12.889299677302402      1.3372212034837059
    11   1     0.19697961527223509      14.201640787745147      28.674678612712587
    12   1      1.4085343524027503      15.708373350868914      1.3380061330403021
    13   1       28.67662718820144      17.113032315134184      28.613435381958269
    14   1       1.517011574860476      18.671153829423499      1.2857062939704502
    15   1    0.073268184489009555      20.059546268468821      28.502064489364589
    16   1      1.4410403116896995       21.53620517031688       1.415816179242573
    17   1   0.0035584900891094812      22.804085009279184    0.044940926845367733
    18   1      1.4602609282464201      24.505978344687719      1.3726305177718818
    19   1      28.520865068454501      25.798038747104318      28.537329671106409
    20   1      1.4774798338230895      27.119588878774799      1.2744528991059145
    21   1      2.9955503426768733      28.668453692292562    0.022739736052415086
    22   1       4.369341022549146      1.5347326248594304      1.1908502478199012
    23   1      2.8319684824164959      2.7862107591845082      28.660378392124404
    24   1      4.2077803351868415      4.2886726063090013      1.4622463600512443
    25   1      2.7780641866253513      5.6612936213523186      0.1221773183166191
    26   1       4.359219237512125      7.1390428447949086      1.3542509713848179
    27   1      3.0604537691741807      8.5424555749810374     0.05948596755807798
    28   1      4.4853971789517741       9.944035148568247      1.4723209213429851
    29   1      2.8999581151955081       11.41204954729815    0.043292526503535135
    30   1      4.4125551764559576       12.93265044237789      1.4935002246544502
    31   1      2.9187344371508872       14.29681080474144     0.03482160716971526
    32   1      4.2671726346913106      15.581695791686391      1.6403057901848337
    33   1      2.8227718515518672      17.013859708155731      28.577841347860261
    34   1      4.3254829189218116      18.657068080724169      1.4376899615977321
    35   1       2.949588710845386      20.210428887317882      28.600859167032731
    36   1      4.3540954140261912      21.530280619748932      1.5395756860828782
    37   1      2.6769300175486737      22.952683092856851       28.68997675408696
    38   1      4.1873733962474207      24.391271477492769      1.3404728392142131
    39   1      2.9575629094514149      25.858140838147797      28.531749151386268
    40   1      4.2808919614611547      27.155402680633877      1.4256551824178703
    41   1      5.7648843637894025      28.678749236111575    0.029494154230894676
    42   1      7.0798442546260079      1.5175403747066514       1.348701096330069
    43   1      5.7378091837454264      2.9051299547191025      28.547989185734068
    44   1      7.1209459567688524      4.3790006657052665      1.5071951281881415
    45   1      5.7071364636098121      5.6555421442387672      28.694744015411775
    46   1      7.1591837033666952      6.9703194762309746      1.5341787603767316
    47   1      5.7596000829465508      8.5716969075591614   0.0077252770025211092
    48   1      7.2139353420709886      10.127952578461782      1.5635184422239481
    49   1      5.8951140880179613      11.464051948387631    0.031056546773493159
    50   1      7.0984929889842467       12.96655159387379      1.4655053179109121
    51   1      5.7718040871916463      14.486873976279373      0.1121700039963117
    52   1      7.3144365814678372      15.778508915121837      1.6489525587028981
    53   1      5.7037419030155601      17.034710533871106     0.14499544049663199
    54   1      7.1274253090329456      18.487805041811356      1.5320486182875364
    55   1      5.7058423386871473      19.862518324075783    0.069333083474566584
    56   1      7.1425233329297129       21.45742619401393      1.5342661570474647
    57   1      5.7944983064292535      23.129883156307496     0.13636219050466705
    58   1       7.331436646360963      24.678615004849231      1.3998266110369042
    59   1      5.6089907292918966      25.777279985600693      28.587447456476724
    60   1      7.2160585564038655      27.105181117549339      1.4038532734408804
    61   1      8.6395617767278736    0.077887421021216513      0.0429741290004131
    62   1       9.859106761967027      1.5448381591370435      1.2450089219058438
    63   1      8.5423689219867676      2.9940952973911856      28.678508874150143
    64   1      10.002886458526376      4.3804091773728997       1.263899182005388
    65   1      8.5606195838120946      5.8132751425451019      28.650044430838154
    66   1      9.8509488498628173      7.2796021019523858      1.5695082792242947
    67   1      8.7047691982867761      8.7986472397771447     0.17980255293618924
    68   1      10.124818355920567      10.198421384365764      1.4192600996114728
    69   1      8.5698747327053155      11.546041363605587     0.06574901459824789
    70   1      10.055815253288214      12.928061514444686      1.6158500413678669
    71   1      8.5130965446474249      14.273459538626627     0.14488374255040509
    72   1      10.095852589951647      15.798881396750824      1.5339168907824841
    73   1      8.5343007476635293      17.213997960506696      28.591195622859914
    74   1      9.9377328831024396       18.68387792188112      1.4290679692509569
    75   1      8.5352068243945904      19.943999447436262      28.699257096727795
    76   1      9.9144286267380775        21.5984027319681      1.3731719858716014
    77   1      8.4581963454652858      23.077753521404301     0.11767513354546971
    78   1      10.046753798617228      24.479375105572021      1.2634352287938777
    79   1      8.7696287505407575      25.787123348924219      28.608293489306874
    80   1      9.9057432926733231      27.275080518558489      1.3313603250489439
    81   1      11.499310365025988     0.12343367725777803      28.605317132459394
    82   1      12.843377607281406      1.6338704496361631      1.3759983317890361
    83   1      11.462173064003727      2.8488372737298069       28.61491986935258
    84   1      12.954708418729281      4.3709320436523784      1.3383616208389311
    85   1      11.299106889273643       5.894364595920603    0.029366773721187619
    86   1      12.910506317257481      7.3054448125050948      1.5585249549771096
    87   1      11.543616933699692      8.7586058899917081     0.15763745899398612
    88   1      12.987531423788447      10.149039625577618      1.5393409579736603
    89   1      11.650948442856579      11.644398636785626       28.67977931172317
    90   1      12.931716721235178      13.048637991170695      1.4386752279369606
    91   1      11.418771482213277      14.333778210157909      28.689430181679658
    92   1      12.993350274323715      15.905368003401952      1.5688051151910829
    93   1      11.370696854746134      17.166294269503716    0.058046363798882644
    94   1      13.049549105181399      18.796479127609377      1.3716112481490639
    95   1       11.65018248026902      20.105334462539883      0.0411543466232046
    96   1      12.981096861697825      21.605853599478582      1.5312281128077396
    97   1      11.642714732475392      22.877668820872884      28.537986418418328
    98   1      12.872040598787192        24.3510326663204      1.2839781606773832
    99   1      11.510915390235898         25.959299664724    0.014082091393481742
   100   1      12.990432537028834      27.317034255368785      1.3256945853551643
   101   1      14.267840079797129      28.697720746184075    0.022309194488536847
   102   1      15.768998765128217      1.4486140734866348      1.4522368165678248
   103   1      14.395291724054497      2.9746432067801258      28.610596781644023
   104   1       15.93027625689766       4.337758584074014      1.4396204831992585
   105   1      14.321174159078289      5.6155995596330888      28.687019549594954
   106   1      15.801756526132383        7.13461489521793      1.4168859668405158
   107   1      14.382259657277926      8.8347216484960462     0.13235752682589905
   108   1      15.852376758952177      10.200721415492707      1.5028673061716509
   109   1      14.385148491224635      11.473038472369929      28.665025170863931
   110   1      15.607818688204109      13.040376020887479      1.3271816955692544
   111   1      14.404611737172168      14.287806985792194      28.523286861685097
   112   1      15.945419678604731      15.765368696609373      1.3115502088891267
   113   1      14.344817415295026      17.228437497386139       28.65628117428021
   114   1      15.905692608796901      18.790446382027575      1.3837615125159457
   115   1      14.370455573775942      19.970198383499639   0.0046760033213558974
   116   1      15.707401248176037      21.550728476272415      1.5151835120041584
   117   1      14.375969173957651      23.004729171690105      28.674588797689466
   118   1      15.764117543165408      24.409937354741576       1.499701546099744
   119   1      14.392602181273293      25.655055164871833      28.650811378421437
   120   1      15.767841297852987      27.307480254447871      1.6115238257741467
   121   1      17.072951745621218      0.0924446031607562      28.679093331760473
   122   1      18.733206845180597       1.508471888707912      1.3844324636848453
   123   1      17.206966016279516      2.8120263673373893       28.66702503968466
   124   1      18.564195712189434      4.1789318131357955      1.2280769223888228
   125   1      17.353559755787643      5.8322726497951951    0.038726719592000199
   126   1      18.711633727061493      7.3194317199064862      1.4898375447089953
   127   1      17.269177803801892      8.6159334564714047      28.642747765858818
   128   1      18.629184325059953      10.054112152737678      1.4443455226047266
   129   1      17.242899422818553      11.548580607945853      28.589077563597431
   130   1      18.732214312764068      12.884156594995384      1.4222827552018422
   131   1      17.196454910309409      14.346088131843382      28.606166787507327
   132   1      18.524930673405201      15.804179720528756      1.5130812983609414
   133   1      17.308981354731326      17.287599278370379      28.607715963501992
   134   1      18.542606096544468      18.708175621965506      1.5186195594779277
   135   1      17.351186913892871      19.944971414572365      28.603293389848673
   136   1      18.536654129997579      21.544310723524859      1.4477445615653777
   137   1      17.321320535281028      23.069081767624176      28.639927152144551
   138   1      18.661308843098873      24.360197318202335      1.4779957506867833
   139   1      17.180978778610204      25.817970897257915     0.10921945204403291
   140   1      18.553414182696223       27.25940868282953       1.351678237079613
   141   1      20.183607504027883      0.1559778750858527    0.089204785437334413
   142   1      21.421438985123562      1.4663763351795402        1.50978998580904
   143   1       20.00735950201042      2.9080351421059016    0.048131621132665628
   144   1      21.545636124620426      4.4304501694618246      1.3512891791030941
   145   1      19.993837080931421      5.8550998122066744      28.512467360144203
   146   1       21.57822065159742      7.1622821647320238      1.4278979908102896
   147   1      20.124575288104037      8.5572269019843006   0.0097169858740585296
   148   1      21.731627375716446      9.9886094926601494      1.4673126840411443
   149   1      20.041952909886415      11.402689549858591       0.145205908869218
   150   1      21.519596600221806      12.775454323609914      1.4616125319005961
   151   1      20.241736017405966      14.204537960470883      28.683489686794005
   152   1      21.533291166808134      15.753917618607405      1.3968331269130445
   153   1      20.084419717839992      17.230595198584012     0.13223162472252178
   154   1      21.687055190908019       18.77618472779525      1.5288637367035098
   155   1      19.943975590862497      20.050712354463517     0.20121164705633424
   156   1      21.544929340301273      21.493443575675666      1.3429940927112411
   157   1      20.074950318632236      22.904080489602659       28.68353924911753
   158   1      21.661591792974018      24.275210875309408      1.2354454101450079
   159   1      20.128258672061442      25.715219725806584     0.10672663736207823
   160   1      21.618670119931959      27.240512625942713      1.4804255028137048
   161   1      22.834578019188204      28.644659048974777      28.694077095661115
   162   1      24.228951471930507      1.6247111615173491      1.2918354451967042
   163   1       22.74059796167057       2.963595922162916      28.689400008666826
   164   1      24.290083305963037      4.3859540388295049       1.382871679473761
   165   1       22.93786984748343      5.9164191739747061      28.379620306817419
   166   1      24.292893804558013      7.2668018668050731      1.4542543280293887
   167   1      22.942467644989996      8.5573008927383825      28.575774624695342
   168   1       24.38832752303168      10.034682655691848       1.511907377816623
   169   1      22.917127847137667       11.39144531545362      28.666595031319762
   170   1       24.31972612611612      12.981290084264202      1.4250575323717853
   171   1      22.809687568888151       14.32098477111894      28.555482455564814
   172   1      24.223724266117895      15.669075058066779      1.3487079955726566
   173   1      22.814592916541503      17.275052771020757      28.656247215804825
   174   1      24.524949032733833      18.663284736199348      1.5100198567458618
   175   1      22.960970408159838      20.129788982346824      28.639572545058883
   176   1      24.404348542597162      21.607429274254429      1.3120741153750599
   177   1      22.943941369151403       22.95650319740788      28.541374808323326
   178   1       24.38253099796616      24.348771071549084       1.478134250498442
   179   1      22.979390246610702      25.801252091680876      28.680167598620475
   180   1      24.393142057592087      27.076696941456927      1.3531648911819152
   181   1      25.531235549639756    0.065310559719525166      28.614003553707878
   182   1      27.252160297302837      1.4317547393334604      1.3272637766783633
   183   1      25.772673630961197      3.0055713353814979    0.064030769939609017
   184   1      27.327273327330769      4.5089696535468882      1.4283385868671303
   185   1      25.818926023982474      5.8593242143676809      28.550982042386508
   186   1      27.278200590834423      7.1059925272287163      1.4953607775314013
   187   1      25.694717489022477      8.5782412492679594      28.643361522642127
   188   1      27.084198937734485      10.108911626745915      1.3383117864719103
   189   1      25.601600937146721      11.411609106241196      28.671935595420948
   190   1      27.124781507822124      12.842699752070345       1.397065794853245
   191   1      25.867183698893619      14.353399233114281     0.20452818952903717
   192   1      27.370219871501767      15.835416858690429      1.3284260155848304
   193   1      25.693822053891548      17.194351822314083    0.076514561943088227
   194   1      27.230853822872632      18.619400863735798      1.3186342752661284
   195   1      25.821263457133991      20.145934884735983      28.687341850809844
   196   1      27.215369331636378      21.577066771728809      1.2475908790196975
   197   1       25.82696153287959      23.138704176484701      28.683442931598364
   198   1       27.34757749901306      24.383360358662923        1.27261882902725
   199   1      25.731209667617311      25.575485494549667      28.620317160660093
   200   1      27.183879375052129       27.00201456035246      1.4707420714103598
   201   1      28.674301312989641      28.588443851195052      2.7411838614259976
   202   1      1.3585165161856014      1.3728767034485831      4.1271575663849793
   203   1     0.04757580563181163      2.7112283104230874      2.7554478333088905
   204   1        1.40011407203566      4.1892188325119939       4.157679659122957
   205   1      28.666494575541581      5.7250605954703584      2.9100239069125733
   206   1      1.4304770944382208      7.3872958024862063      4.2197507074514498
   207   1      28.501214938519453      8.6241785452349049      2.9090291616600306
   208   1       1.512330777228067      9.9877759127327916      4.0957784821347278
   209   1      28.695764744444833       11.49816713235319      2.7909547054547255
   210   1      1.5566161421770861      13.008034420706629      4.2229536111756518
   211   1     0.10486948215266328      14.185553182984849      2.8100126132716694
   212   1      1.5115221542056927      15.577577063073823      4.3456136279386097
   213   1     0.10570759609044124      17.102834003668153      2.6866812816700301
   214   1      1.4002915079646547      18.551939683979057      4.2313454524699132
   215   1      28.667113296390283      20.001194799501715      2.7906701575632615
   216   1      1.4728611522560882      21.606173592676363      4.3460056121356621
   217   1      28.691988841659906      22.971330496522807      2.7500289992933271
   218   1      1.4850975493748613      24.396432938477215      4.3248167642467763
   219   1      28.694268963540495      25.813957875458179      2.8097027002908819
   220   1      1.3359989042760523      27.165740855721396      4.1615094686316745
   221   1      3.0104031821724599    0.037778542344301683      2.6981144213828525
   222   1      4.1715157590716991       1.461648268275848      4.2902444250574581
   223   1      2.8041145306823059       2.703922714622534      2.7766808751216794
   224   1      4.1610052517689295      4.3989252807626951      4.1809122579441995
   225   1      2.7738610545644415      5.8621167392067548      2.6756262155229598
   226   1       4.192172716314353      7.1761411229710053      4.3104738720160487
   227   1      2.9549653729605043      8.8122804381672761      2.7918370751760802
   228   1      4.4282949101950324      10.165999831290765      4.2415549007983442
   229   1      3.0555961396180802      11.417065606833434      2.6099046914817121
   230   1      4.4866274549033323      13.006059038428781      4.4671781081052595
   231   1      2.9417610385887203      14.304301963800212       2.911611712732967
   232   1      4.0805465272150547      15.656556583945097      4.3652873986107483
   233   1      2.9315110595837699      17.258505334150481      2.7651752994663847
   234   1      4.2005384953705116      18.701739794275685      4.3435964920201906
   235   1      2.8843805229758708      20.019287828860755      2.8457192777574969
   236   1      4.3199947104507261      21.484709970946646      4.1442887960137691
   237   1      2.8203785466952032      23.058422160099326      2.9851271436585098
   238   1      4.3631452248361375      24.371816234068636      4.3582555990012022
   239   1      2.8132818585727848      25.735895641401143      2.8541896621206218
   240   1      4.2195973982897099      27.251978846297408      4.2738844640863469
   241   1      5.6647133412111579      28.498910135748218      2.7564749552384922
   242   1      6.9803796908492108      1.4296916220899674      4.2034336263197014
   243   1      5.5698704501355314      2.8541138955255176      2.7077330152776211
   244   1      7.2293834120546387      4.2863845552530337      4.4240978673378963
   245   1       5.638811797934931      5.7283115441863863      3.0860314205215831
   246   1      7.1259386671563947      7.0889126174307648      4.2481276955121849
   247   1      5.8019558978518413      8.5974491613082531      2.9053558792029448
   248   1      7.0838624848007559      10.113639100010298      4.4725200139384595
   249   1      5.8615886857484574      11.649186513276016       2.881964506815359
   250   1      7.0728557969581152      13.010064327412453      4.3252734483498436
   251   1      5.7704126909188851       14.49863502881181      3.0252146054218638
   252   1      7.2148388590442547      15.881683600297254      4.5074153332311342
   253   1      5.7817978107210841      17.200317127126443      3.2408598505336377
   254   1      7.1332053499207442       18.76213565965077      4.4018021034035257
   255   1      5.7930508167236718      20.006677222086577      2.9937420289313534
   256   1      7.2523991239740777      21.592228189643158      4.2799628108331946
   257   1      5.7561030676921403      23.094409521062826      2.8304228436121082
   258   1      7.2919096320095749      24.439902418969524       4.433849432626614
   259   1       5.607939848992654      25.809717855914901      2.7321077940154619
   260   1      7.1046096928754494      27.081121353704958      4.1114243285624879
   261   1      8.5005255993529065      28.646580484499058       2.736807075250828
   262   1       9.933432237332978      1.4221553028841629      4.1282374356812195
   263   1      8.3619392008315643      2.9475009378773187      2.8729920394001871
   264   1      9.9945555375943194      4.2601102449640518      4.4098223400814653
   265   1      8.6214477150233577      5.7639576032791027      2.8943083780655017
   266   1       9.956486475925983       7.293821187248966      4.4338895544107571
   267   1      8.4234024852052016      8.7127654199781794      3.0811942710473299
   268   1      9.9988653085751853       10.00826874488803      4.4188753850757569
   269   1      8.6100256953074563      11.536448221143923      3.0330630477558809
   270   1      9.8926795822985554      12.936671433368161      4.4519744429194859
   271   1      8.5994552953989789      14.445965344587368      3.0888271641379834
   272   1      10.160781361674299      15.914553973477835      4.2724008406961325
   273   1       8.693054764251217      17.379597817330499      2.9192480301842112
   274   1      9.8923196945617349      18.740530976821731      4.3122436207075543
   275   1      8.5417712859903556      20.135949566573043      2.9193856302362415
   276   1       10.05295084438854      21.543152057665335      4.2937349220874328
   277   1      8.6801180794052417      23.031532061729003      2.9359899298843648
   278   1      10.223909868082558      24.343889387128314       4.382236942755366
   279   1      8.7111092565478998      25.807113987036299       2.893783321369737
   280   1      10.049170058594626      27.326925864575482      4.1924751224157477
   281   1        11.5174253405137   0.0092185724677848833      2.7112758278964968
   282   1      12.823267066973067      1.5057774424582824       4.371555547661484
   283   1      11.330240915566478      2.8437465533534332       2.886256225383717
   284   1      13.007099413190401      4.3516408799690929      4.1711012046744003
   285   1      11.341592487557365      5.7492913371790344      2.7700076865594618
   286   1      12.893584578550822      7.1443053780838399      4.3453464206543364
   287   1      11.376854416896945      8.5680907563448052      2.9022625371704422
   288   1      12.981719543605479      10.179841032395213      4.4269796609286454
   289   1      11.396129299169985      11.499915821115424      3.0331149512091988
   290   1      12.804036969179933      12.990890609569426      4.4803441672162281
   291   1      11.438116627735145      14.261354763327605      2.9541400362183041
   292   1      12.854185404716732      15.760095781772966      4.2646604522527918
   293   1      11.597075733903775      17.320678713436134      2.7771924660803835
   294   1       12.87269682647344      18.625519641124583      4.3044096802231424
   295   1      11.432384639291465      20.126181606674088      2.8556419662068033
   296   1      12.912792355438894      21.365954587847021      4.3086631785253386
   297   1      11.395582292926122      22.940046427270527      2.9437851398705992
   298   1      12.722819363753828      24.316446549811751      4.2694744536109699
   299   1      11.341860942557346      25.858023174142847      2.7940321234984697
   300   1      12.779976339016484       27.19936481173065      4.2101407223986929
   301   1      14.233318403083091    0.055131773567984592      2.9070765518604613
   302   1      15.690928490395727      1.4133006957745022       4.135462102491247
   303   1      14.307086151266526      2.9946286646655027      2.8319482472413045
   304   1        15.7699576711845      4.3470740803110415      4.4056718044397032
   305   1      14.388311426396113      5.6219172504614114      2.7439791579588122
   306   1      15.558090311875853      7.2747421688932441      4.2592738915940842
   307   1      14.328838681498873      8.6453500364798455      2.8998098392805396
   308   1      15.673777029595222      9.9225393483417808      4.2899858695766309
   309   1      14.322990063958789      11.645523760886325      2.9002237755021651
   310   1      15.702160419365368      13.059688416326274      4.3856710679465669
   311   1      14.328417333521873      14.350121973312008      2.9449573541925043
   312   1      15.960358369832692      15.793333109964539      4.1281732058746901
   313   1      14.456381628766893      17.217380253745862      2.8277177911932201
   314   1      15.620241113783077      18.485589617833408      4.1640778508836931
   315   1      14.335079654736527      20.127818039780831      2.8653861256425994
   316   1      15.633406631675072      21.552212972043982      4.1397523979416064
   317   1      14.256827374757725      22.984765414837437      2.7464600518485649
   318   1      15.659824016877987       24.44069411471774      4.1514246475181711
   319   1      14.093704867225169       25.90538530486354       2.724579955821206
   320   1      15.705595750146106      27.224191732198541      4.2633944359322742
   321   1      17.337985217423217    0.055728363842865815       2.884120944476166
   322   1      18.636230320039925      1.4434703674506633        4.28286059796931
   323   1      17.265855413390792      3.0112283548963421      2.8177475387069073
   324   1      18.714944885851573      4.4562239477287591      4.2207264559977151
   325   1      17.260837552104491      5.7890792888217568       2.981352716393967
   326   1      18.799755491185667      7.3540387722792504      4.4018206625895209
   327   1      17.238357616334913      8.5542082780617719      2.9829770918596608
   328   1      18.690190756202664      10.038465683318355      4.2348611427205602
   329   1      17.041234242423183      11.673840365102135      2.9432760204073269
   330   1      18.755608749418506      12.787420095612708      4.3312808776344136
   331   1      17.229508388868521      14.262036264861898      2.9547764771213467
   332   1      18.749342828711914      15.774558593884398      4.3114765220283413
   333   1      17.229090672218828      17.204530554772774      2.9693842336793845
   334   1      18.628640748217737      18.710331275105922      4.2162986998043515
   335   1      17.118871225135695       20.04844431640478      2.8229343517228926
   336   1      18.569642612478702      21.384126269047293      4.1609018344421216
   337   1      17.151511031620625      23.058279108419875       2.837532909685625
   338   1      18.706680823427035      24.393049244219082      4.2513478798273949
   339   1      17.121457191857505      25.747925395096448      2.9434038757345409
   340   1      18.687130075462349      27.327243750619733      4.3450893485686839
   341   1      19.946863830491218      28.667021201951844      2.7997061584421075
   342   1      21.355342283076439      1.3247277427691291      4.3336110667260979
   343   1      20.067943643094583      2.8370143010409827      2.7480595826695886
   344   1      21.595709340034254      4.2501494973891241      4.3598744249648647
   345   1      20.173278617044385      5.8304869348288966      2.7915822343123846
   346   1      21.655202638566962      7.1740019560149184      4.2980535620380085
   347   1      20.219345604662301      8.6422043560024466      2.9321158360130992
   348   1        21.6495557437445      10.215869039822659       4.484363508124054
   349   1      20.106630790712387      11.404691545023045      2.8816709554349607
   350   1      21.524830148148531      12.859794726174535      4.2251569198684455
   351   1      20.080635597624923      14.241335494211008      2.8758826474651511
   352   1      21.425173638847184       15.87354230974822      4.2688462413181352
   353   1      20.020089917002036      17.279052315520055      2.8791985676314691
   354   1      21.722123637713345      18.725681044358105       4.205385982771686
   355   1      20.162227566939556      20.067846561007148      2.8373547132701451
   356   1      21.566414523620551       21.54694266550295      4.1999349196952247
   357   1      20.100614410453844      22.810872658544504      2.7886951037657588
   358   1      21.547984592883566      24.463844216411534      4.2868407319006963
   359   1      20.172016471923364      25.950744714029693      2.7463779483304624