dump/Mg_700_5/steps_21 (written by ASE) 

3995 	 atoms 
1  atom types
0.0      32.100000000000001  xlo xhi
0.0      55.598830921999998  ylo yhi
0.0      52.130399999999995  zlo zhi


Atoms 

     1   1    0.020180112528930746  0.00039036480186699493    0.091065499993097959
     2   1      1.6325544814407316      3.0202957588546284     0.15448573380644146
     3   1      1.7492000666736991      1.1052992588426052      2.5662189511313924
     4   1     0.12562580446933702      3.6698753172102156       2.586630225005063
     5   1      32.033320145557212      5.5444228388199948     0.11150819841637916
     6   1      1.6918537100599822       8.144796532432121      52.085645657313584
     7   1      1.6651321313297109      6.1791690258729925      2.7346637481268559
     8   1    0.093500912832861091      9.0285780335896728      2.6480266803217352
     9   1      31.948600228753158      11.499264405251507      52.038718370838517
    10   1       1.712232234152413      13.907384727503995      52.097492773161839
    11   1       1.657361554259253      12.065452037303881      3.0501791522298221
    12   1     0.63271461891372505      14.747764496568795      2.6875338661777772
    13   1      32.093565514834559      16.704006381363453     0.13434459871115143
    14   1      1.8555545141120777      19.458348520371946     0.16968386382473055
    15   1      1.6583611407791408      17.484413405305457      2.5984394930659693
    16   1      32.033167293978693      20.385763358267184      2.7747596239659504
    17   1       31.81338014170732      22.646863967550118     0.16570731299549071
    18   1      1.6236335152180816      24.784562702192872     0.10047559426116877
    19   1      1.5602039857741383      22.969732892880366      2.9542165438289021
    20   1     0.12282224400730868      25.848975961651764      2.6594403206423332
    21   1     0.12673488029646643      27.380338678081706    0.019313030182676282
    22   1      1.6493653030398396      30.343167747286913     0.30847141953037366
    23   1      1.4913128909117306      28.804715621468979      2.7533590887512331
    24   1     0.18612638270716597      31.477825487354956       2.784316704885331
    25   1    0.021600111944828533      32.880421623451838     0.13356723464398229
    26   1      1.6607807593072552      36.114474369494289      51.651409677493419
    27   1      1.5466378385369965      34.507259476101829      2.2050558379289815
    28   1      31.692401992893263      37.208693409123526      2.5270295722547105
    29   1   0.0099656740923761769      39.020011161458783      52.099056852881951
    30   1      1.5241801944705302      41.946667567414487      51.961567119086297
    31   1      1.5429373582867483      39.886657563295842      2.2890755769105118
    32   1     0.14119630994354382      42.915910920437099      2.4466801887683078
    33   1    0.031373908444268642       44.61511785753207    0.082886487305730866
    34   1      1.7857129951225219      47.123142210794668      51.778475476379256
    35   1      1.8287410854949184      45.506747205358572      2.6188654666028035
    36   1     0.23138501115931018      48.253368067009724      2.2088226758174674
    37   1      32.067175823205496      50.133106263108104      51.996772274246432
    38   1      1.6709507978736304      52.795623374429773     0.19401633296972304
    39   1      1.4194153418915607      50.978332353735453      2.8053105791448187
    40   1      31.997066806521186      53.874199522807388      2.5261112493611311
    41   1      3.3311237972364296       55.38398007421651      52.082724222945849
    42   1      4.7705140486577395      2.6313750598714281      52.098655453808512
    43   1      4.8846745998161847     0.98885702775915196      2.4199015610129373
    44   1      3.5900945050060855      3.8154616789191085      2.9266459599158363
    45   1      3.6237485397798128      5.6716444554309735     0.09395873947640114
    46   1       4.901967206774831      8.6428468320310774      52.061099072169881
    47   1      4.8418480955272276       6.287859578017196      2.7197963891044901
    48   1      3.2375024763763731      9.1461133921380462      2.5495838023608504
    49   1       2.992449382362159      10.917421098232621    0.049745411350567606
    50   1      4.7506446586020283      13.820165953583647     0.17681084117296192
    51   1      4.7187291326987619      12.050587411236631       2.756706759949517
    52   1      3.5084248393139945      14.642563393023552      2.7651980252330248
    53   1       2.927016654082506      16.794998588576664      52.010901694708096
    54   1      5.0843424565184865      19.348920798690678      52.046492734337733
    55   1       4.958551808742123      17.608974244825969      2.3806685329652577
    56   1      3.1736223797809924      20.261201157740118      2.5530351146205534
    57   1      3.3774255048910016      22.019442816193159     0.11218948646120946
    58   1      4.5721025843173155      25.076515006297758      51.905114438994609
    59   1      4.6937122458100928      22.968506893509559       2.843448942586619
    60   1      3.1798925903884112      25.491897308354723      2.5895368801665657
    61   1      3.1003073888149406      27.551402725796695     0.41683255645809297
    62   1      4.8977173547459136       30.47407051556721     0.16133121001910394
    63   1      5.0590082847648885      28.557651943058026      2.4950766414468468
    64   1      3.3346217969043557      31.811072961156906      2.6006248249566686
    65   1      2.9146086121450412      33.346377135311961      51.956991044750907
    66   1      4.8761079317756275      36.403096300315042      52.021730807803131
    67   1      4.7415462225855229      34.520999435854939      2.6722102623458004
    68   1       2.861119179432889      37.059626685993287       2.277439571653094
    69   1      3.0565587465496229      38.828078681369469      51.751501072144208
    70   1      4.9481610209015248       41.73790442972944      51.894625871461436
    71   1      4.7779300234861326      39.587197693218094      2.2463324093727191
    72   1      3.3959889119375446      42.608027528819711      2.3699284993065048
    73   1      3.4252271154976972      44.241637345098304      52.030324817601773
    74   1      5.0131176828856319      47.352438036275501      52.083860036247231
    75   1      4.8423960354369511      45.537219312677351       2.432641020463004
    76   1      3.2555897926001123       48.27599740312305      2.3806624097764026
    77   1      3.0725412181182308      50.111584071493517     0.18771519821957353
    78   1      5.0331159746387257      52.521328887170675      52.046133051778654
    79   1      4.9703584769436295      51.004192985319449      2.7110172182348067
    80   1      3.3872468779774829      53.715707266616604      2.5651804255424264
    81   1      6.4024233066095437       55.52592598567167      51.988649593339673
    82   1      8.0902544918965607       2.585988619842158      51.916614870855028
    83   1      7.9125226322865991     0.83704834484994606      2.4314339625935588
    84   1      6.6008274983770141      3.6495196187725836      2.4731617402327024
    85   1      6.6163060810102419      5.1509757086054773      52.087380863503107
    86   1      7.8984712004072914      8.0184744566450643       51.64163557498226
    87   1      8.0342242591170372      6.1225531267623339      2.8937168436469407
    88   1      6.6248237763876343      9.1698876569583057      2.8261226911241377
    89   1      6.4760719505522779      11.263460525881843    0.072534000626591488
    90   1      8.5376351877790633      13.618871585112867      51.885649646293658
    91   1       8.012788696305325       12.03416382500061      2.6630574509989131
    92   1      6.5008474919866508      14.794787282650322      2.6307359287528329
    93   1      6.6785149091450542      16.376209619267232     0.22030121752138937
    94   1      8.2746440991477801       19.13547116999262      51.775040259139217
    95   1      8.1162579328611937      17.735311887653243      2.8934198567874581
    96   1       6.545060274308395      20.234495165535488        2.23772285577303
    97   1      6.2080928440038221      22.171251379941577     0.10509853317941339
    98   1      7.9357513226213703      25.467334668167329      51.984630678654909
    99   1       7.934613202965938      23.070319141801825      2.7297879201295978
   100   1      6.2872164912988717      25.774409782427284      2.7161932542017677
   101   1      6.6687747078050972      27.940741578817427     0.10436634098332059
   102   1      7.9583545566323348      30.787628665505405    0.073268217767423746
   103   1      8.2944499901082711      29.131624039889807      2.4094257865897051
   104   1      6.3617299422024365      31.654733723499003      2.4091107327727941
   105   1      6.0566283364508591      33.526862030646029      51.941623492039824
   106   1      8.0934698661657141      36.132092765902762      52.027966230742479
   107   1      7.7931124434417578      34.174828388486517      2.6400348215253362
   108   1      6.6317914294387865      37.105072196993959      2.8069370654560428
   109   1      6.4226828080583083       38.94766482013371      51.873809569341056
   110   1      7.8348933787244768      41.562820015452729      51.736134928918517
   111   1      8.1014532620951343      39.797360287930054      2.3632849174047861
   112   1      6.8749923574066489       42.67691783095097      2.3713609488858149
   113   1      6.5461581738263606      44.552444618344872      51.870403379640649
   114   1       8.124241938264495      47.226049215954539      52.103787637801247
   115   1         8.1468494736701      45.760797168821057      2.5040672630789267
   116   1      6.3288000687306969      48.205887068084877      2.7318709117455877
   117   1      6.3570790721362131      49.996497075165998      51.987018216708158
   118   1      8.3635438928958017      52.922764966528923      52.005264629349583
   119   1       8.182502137263695      51.055672455116884      2.4738266103680999
   120   1      6.4262784218633549      53.756583846693374      2.6135107289574049
   121   1      9.9423582124678731      55.407148031797036       51.98790004138835
   122   1      11.718112577015997      2.6465901183707392   0.0046597287055431483
   123   1      11.217290025756487      1.1494309368094484      2.3974401830867746
   124   1      9.7791781588072659      3.8833248833128171       2.593778386937633
   125   1      9.5637723829022327      5.3566038296953691     0.14518050847819028
   126   1      11.571793508582248      8.1323309303029703      52.080620820630209
   127   1      11.370563575096815      6.4192773023750931      2.8641693460008129
   128   1      9.6019000827449297      8.9664453219235583      2.4550303043789472
   129   1      9.5121515486569859      10.852112454999345    0.098338438499661285
   130   1      11.379232955752325      13.888217446616485       52.00281501758419
   131   1      10.976639655514168      12.216424720867547      2.3718180750786493
   132   1      9.6500324741494943      14.962204305998597      2.7471068177867486
   133   1      9.7183427151444945      16.455098373993064     0.18041684522053453
   134   1       11.74844289224362       19.45188325400219      51.954834969665079
   135   1      11.217773936156592      17.729189434063574      2.4221210852838868
   136   1      9.5051962415965647      20.477017755220633      2.4200842461561911
   137   1      9.4434442021412046       22.22789212833802      52.025954908449712
   138   1      11.224072095488861      25.320935267145646      51.908692663184496
   139   1      11.079907991757388      23.222965494892435      2.2871382293059055
   140   1      9.4361471052488639      26.176522953306314      2.5987507455702805
   141   1      9.9023611976818131      28.209758586384996      52.024063229781049
   142   1      11.401000017495114       30.79766848575262     0.10645377085497397
   143   1      11.188840446057737      28.741114827326101      2.6958090578966836
   144   1      9.8069292513745054      31.634330811869116      2.7041967262300117
   145   1      9.6423425664928679      33.398827525670598      52.097163606530764
   146   1      11.068771629889614      36.010841734801737      51.841868976997489
   147   1      11.029172609999556      34.368654891208188      2.5478417067015453
   148   1      9.5433679595512384       37.24065145919095       2.477321462442275
   149   1      9.6678728423056395      39.035885972462658      52.090190422566167
   150   1      11.522717540963505      41.443042192245642      52.037009735655438
   151   1      11.211542156882349      39.950037874888608      2.9017690519826824
   152   1      9.7959343889268258       42.47916370827221      2.7234142857686621
   153   1      9.9162797154719229       44.18939841760001    0.081763829166672145
   154   1      11.237696106517063      47.072773811650954      51.920226400782127
   155   1      11.020583482564417      45.338929724534431      2.6213429728244408
   156   1       9.300163025256726      48.272001553521761      2.5973798811132269
   157   1      9.4957979060460183      49.794849719158542     0.13438730915372046
   158   1      11.181189473793118      52.497637151968874      0.1144312921353854
   159   1      11.050664683176148       50.98506563000052      2.7445567069004695
   160   1      9.7823695295845319      53.789349559813225      2.5754149541618481
   161   1      12.967627404324471      55.314803148130828      52.005904818668562
   162   1      14.499936691335654       3.134855091701354      51.843425917734535
   163   1      14.272898599009562      1.0827983419718785      2.4629962408909729
   164   1      12.871431821986155       3.952447694710842      2.7742523807790112
   165   1      13.238661845617161      5.7813646094965296      52.043472444249133
   166   1      14.556786613229542      8.2098776265633688     0.11145392314822818
   167   1        14.6387625794258      6.2130765905178214      2.6280914211649744
   168   1      12.813321491846125      9.1347734244568066      2.6433848397876796
   169   1      12.936418388395015      11.089264911690451       51.92571601753626
   170   1      14.741112275818502      14.149079798320248     0.15898230078529976
   171   1      14.096590213815432      11.882135989923233       2.668725263376051
   172   1      12.619088087231511      15.100733822721065      2.6664750809045739
   173   1      12.785126524271661      16.630081041355091    0.015185574322577279
   174   1      14.577410805804281        19.3467585855763       51.95452787020168
   175   1      14.588055596120126      17.670167327059456      2.4982289597945555
   176   1      12.970181604876108      20.463185310141768      2.4627177991244182
   177   1      12.845257563999059      22.283023458765538      52.025407967719211
   178   1      14.307375133263799      24.839543997557104     0.24957689812329542
   179   1      14.676835637847638        23.0469195840199      2.5732707210503443
   180   1      12.597611268323817      25.757483217167287      2.7402003606270586
   181   1      12.502163640281317      27.881163402668054     0.19787027562754084
   182   1      14.426921440919838      30.328150348587709     0.30513029307576217
   183   1      14.317533287098721       28.46159868177617      2.6546597159271581
   184   1      12.621907497897217      31.378385898770357        2.71130556409181
   185   1      12.818817030938055      33.537776792320159    0.097269640942800106
   186   1      14.374563899127642      36.172639807848775      51.999178711811574
   187   1      14.185055907494084      34.265703080280183       2.537569947846201
   188   1      12.783791935903274      37.189195494928654      2.7183762351643046
   189   1      12.908025706851738      38.816432223184584     0.15340966600254716
   190   1      14.813488274596036      41.532325375934619       52.06484069634228
   191   1      14.540546850514165      39.845641658927285      2.6692735982007023
   192   1       12.82934929223727      42.356757570503049      2.3826021000475763
   193   1      13.017691198400648      44.464934163349753     0.22327676034589652
   194   1      14.354028651741675      47.240106701982107     0.12667892078148896
   195   1      14.136521947332804      45.027741413900351      2.8115682252383931
   196   1      12.654053293977773      47.984917015574446      2.8406603150920504
   197   1      12.667659811420885      49.840235528543438     0.28398938285021685
   198   1      14.700191802306156      52.778810950801237      52.013013171952714
   199   1      14.465418635451632      50.768336053039427      2.7245223553316347
   200   1      12.877581117376407      53.677362677721241       2.468123662342554
   201   1      16.016532805165074      0.3878131629959547       52.06958248091447
   202   1      17.801016263904536       2.644740859605649      52.084447266138163
   203   1      17.553315447525158     0.87784820589984858      2.5438373760442441
   204   1      16.251365411974788      3.6589606960866621      2.6489709409205471
   205   1      16.358231192937176      5.3139671647274671      51.599485856033418
   206   1       17.80739298049588      8.4646963776503732      51.858633580429952
   207   1       17.87619146045504      6.3844275872435459      2.6266331635412787
   208   1      16.154151082348974       9.593485101677711      2.5988777039645399
   209   1      16.039331054123945      11.109129195791446      51.816795315878956
   210   1      17.744549510425237      14.190135346391475     0.10475178561758293
   211   1      17.230081507483838      12.479798029665673      2.4151756906890682
   212   1      15.824550114591554      15.030222103399035       2.466599286622968
   213   1      16.324246078560673       16.76004091498795      52.088228217341602
   214   1      17.629595794354433      19.655526774572202      52.032078903419645
   215   1      17.498612639784312      17.700075017563851       2.844207837219078
   216   1       16.08582950945852      20.361225998751287      2.4753887354944615
   217   1      16.115091658763273       22.11438200476892      52.024954758785817
   218   1       17.35616413744361      25.067065545367889     0.22688695403076828
   219   1      17.985286298478815      23.372450558746689      2.4859884678349728
   220   1      15.836824418369682      26.085711293119385      2.8364344010485807
   221   1      15.895860578932377      27.563592555792741    0.062298488148139215
   222   1      17.536492281654184      30.608807628049554     0.19499172532334827
   223   1      17.518634135814857      28.605681269692244       2.451718401748018
   224   1      15.776434516812671       31.67159697072913       2.593140836108482
   225   1      15.982329185779125      33.490737665519326      52.044305281907207
   226   1      17.589459033966321      36.473038531101281      51.975595779988225
   227   1      17.184667540760433      34.407771104275049      2.2124658671513244
   228   1      15.889901561432628      37.150238061449045      2.5694168280984204
   229   1      16.122878597070134      39.019496354629233     0.20654862526591675
   230   1      17.747671856801794      41.799678826028902    0.035675766428004962
   231   1       17.75082924160731      39.683851472133242      2.4940624572968928
   232   1        16.1453983138734      42.572212417958994      2.6541303327264671
   233   1       15.85479210423853      44.467473597015861      52.036499975772031
   234   1      17.612982495042154      47.120369775479766     0.13352263422177685
   235   1      17.767009014881616      45.017120319838334      2.5909210795290027
   236   1      16.064382139000532      47.903681158659644      2.5749633984072378
   237   1      15.839334709669394      49.900332740010256    0.022686510509904185
   238   1      17.764440224745996      53.185192667408295      51.956791468069845
   239   1      17.927100366562154      50.825396500574868      2.7272737386392021
   240   1       15.91902804667138       53.37873464302443      2.3863327844636126
   241   1      19.662135951928331     0.27017683388558023      51.831275083525988
   242   1      21.007449263232552      3.0396110473151978    0.058561514303783174
   243   1      20.839368508942652     0.77459752207220356      2.8046054086004104
   244   1      19.346939323444118      3.7789088900464098      2.6332446548924917
   245   1      19.351170166361307      5.5478939834989216      51.659231786860921
   246   1      20.754340020729448      8.3196045125293647     0.31704237987875966
   247   1      20.797260192287631      6.4532637214339479      2.6086528489778398
   248   1      19.036754738035118      9.2569346847963132      2.4299711639835468
   249   1      19.166577336549746      11.202416324845798     0.03159647746354801
   250   1      20.792096551544223      13.856594691948727     0.10122755043802838
   251   1       20.93268211766528      11.964499941236358      2.4538571410396139
   252   1      19.215910955823343      14.738374103519375      2.8816250503087346
   253   1      19.435646462492549      16.840638344118183      52.063739690243416
   254   1      20.809303413594758      19.779923853405968     0.46801732818440683
   255   1      21.130736697910585      17.503818108907005      2.7245413559740075
   256   1      19.233916561259136      20.115259865590058      2.9111065214003164
   257   1      19.104316346050553      22.345542200909311      52.049883595397183
   258   1      20.507472103273951       25.04804452654928      52.123925037572995
   259   1      20.823984053414716      23.198653151130326      2.6335746231918717
   260   1      19.309496261922629      25.881609647066544      2.7058091959829649
   261   1      19.116511291504949      27.866476891760186      51.903442527251222
   262   1      20.941272286996433      30.676358074261728    0.055964049376501991
   263   1      20.547963532614173      28.682724803086568      2.6292512463867426
   264   1      19.244102237367073       31.53358896374931       2.418879772406489
   265   1      19.037303686442037      33.555527020373404      51.893118024329425
   266   1      20.874419064584394      36.036579484597937    0.071326372244668659
   267   1      20.449197942601138      34.370094635704234      2.7350013351953191
   268   1      19.070320736844035      37.083001273735768      2.7049685440155349
   269   1      19.311261825343827      38.882642638598504    0.036215776152561628
   270   1      20.676215648113867      41.798491324174762     0.16769949296304026
   271   1      21.101314897688983      39.991767267551978      2.5955376585227379
   272   1      19.581562589898173      42.684486045030738      2.5059003801802708
   273   1       19.20401436127683      44.673952650661498    0.021475994877551172
   274   1      21.045067829567749      47.211264395861853     0.05004200638275888
   275   1      20.870035069935334      45.616981547663173      2.7919112795919308
   276   1      19.211848541295623       47.97576760823565      2.5561314273814681
   277   1      19.195514046657671      49.885998211591506      52.093913324412405
   278   1      21.141498076660454      53.138613479859714      51.944694705837264
   279   1      20.673757908979937      50.871933672203795      2.4079622163678498
   280   1      19.302291391380258      53.664232307653279      2.4099006801770604
   281   1      22.787546610894836     0.16942068394583371     0.21063333730517181
   282   1      23.967499904973792      2.9628516904906523      52.095671622118772
   283   1      24.029422898937099     0.98836348008331187      2.7408911096052893
   284   1      22.505537784562865       3.850236357332117      2.9567543243109689
   285   1      22.551051285283034      5.7558818218079892     0.16004460368960621
   286   1      23.928261197113098      8.3504249848296226    0.038531214123836983
   287   1      24.127885311506521      6.7615820519999668       2.799216659488331
   288   1      22.320616161329685      9.5966608106875348      2.6796747090554831
   289   1      22.223260014538734      11.159568249632322       52.01541921296414
   290   1      23.871836334829382      14.022688728406932    0.087589751588272563
   291   1      24.215893766650677      11.852805247429885      2.4513312767736304
   292   1      22.310150630276198      14.680422315692232      2.5916303302889996
   293   1      22.398790876463963      16.677220428917416    0.070452737622400119
   294   1      24.067861095982501      19.348919856478695      52.013038001252689
   295   1      24.317213644416508      17.415491535305954      2.7331585179772637
   296   1      22.435789312125014      20.594399554165296      2.6272684280711909
   297   1      22.121656913439487      22.521448845698767      52.109038265785536
   298   1      23.939098366635676      24.939225893423099      52.055956629063267
   299   1      23.924968089169592       23.27621688163423      2.6392083883771411
   300   1      22.263252280012839      25.745526068181903      2.4560435134826353
   301   1      22.193009533155763      27.570627920111022    0.081245462355447148
   302   1      23.950998518774131      30.293216713508709      51.883224136538011
   303   1      24.122780440157985      28.529526130154533      2.6910748625082781
   304   1      22.467733561473093      31.362747234666486      2.8151699431349559
   305   1      22.536467416017015      33.243278047185697      51.972112979723462
   306   1      23.992970357511215       35.99964326954111    0.047749657536964786
   307   1       23.80781764245377      34.271667038145821      2.4653898687992415
   308   1        22.4177453739104        37.0411474500998      2.5899820341078805
   309   1      22.261801399657919      38.887277529985859    0.052019443927159743
   310   1      23.549914472083458      41.557283622309818    0.012698870252592039
   311   1      24.018295522963506        40.1662388864018      2.3055398934762144
   312   1      22.590544026882927      42.820965565860696      2.8824011352507068
   313   1      22.210164355635175      44.380224146094953     0.24139979188542021
   314   1      24.128605869931796      47.433578156903202    0.090245432352219782
   315   1      23.739052128685426      45.619304142663744      2.8037534372135777
   316   1      22.343433857128556      48.389104014840029      2.6274961340535659
   317   1      22.300772289208599      49.979401489452314      51.932808365247055
   318   1      24.079970163221834       52.69406741826068     0.12122186710685486
   319   1      23.957311182635035      51.087766646223898      2.7256975757731112
   320   1      22.537147222565665      53.775793092693434      2.5469181211942424
   321   1      25.884043430929456      55.499810770700307      0.2614026289634756
   322   1      27.016082755017678      2.9895414145015264     0.11578128970622689
   323   1      27.176719138015962       1.042511088479503       2.734342544504996
   324   1      25.745715079822656      3.8259767870100809       2.637565385740352
   325   1      25.475990720194282      5.6702900732509818     0.14010986591430866
   326   1      27.372970882988522       8.668017318611728     0.24099400868637974
   327   1      27.238482440397746      6.6834094014486354      2.7456794936750906
   328   1      25.794765882157826      9.2416812749438151      2.6760994947183714
   329   1      25.800037314433489      11.279568264536147      52.040303093338643
   330   1      27.597836353934202      13.886691591819677    0.016575810251561053
   331   1      27.314645756032267      12.091031539671926      2.7256739039679698
   332   1      25.889266752630967      14.676784059944632      2.5478566581004327
   333   1      25.759811855767836      16.612929868516826      52.125299724198143
   334   1      27.382966140939669      19.045215884962513     0.16651987876828642
   335   1       27.59752671756516       17.34661140128177      2.8225348566698227
   336   1      25.815371084739763      20.490216304966449      2.4782139250727182
   337   1      25.484179600443753      21.871041709203602      52.079657630288217
   338   1      26.999298626417538      24.840162124271494   0.0022727283821282048
   339   1      27.281018089896211      23.140316827037768      2.6546938759662813
   340   1      25.701656800002269      25.779856716075752      2.9283812240521065
   341   1      25.603098577328787      27.625241833094581     0.11408209554336973
   342   1      27.588676684114759      30.448370469830699    0.079483731499095156
   343   1      27.290352221593178      28.813449502084257      2.4649979350241034
   344   1      25.611928984336579      31.455081602673442      2.5237640198451641
   345   1      25.817793967970506      33.030581928516519      51.985745160207046
   346   1      27.366305275477508      36.071010434079724      52.019110846997037
   347   1       27.45643691756873      34.173620614107243       2.628745147916995
   348   1      25.572310076725234      36.907665708631079      2.6138707631470206
   349   1      25.981037146471134      38.704337679228956      0.1442667806624584
   350   1      27.197389061925257      41.458633328479742       51.90715386574167
   351   1      27.737325739821507      39.854516417064467        2.69235271012829
   352   1      25.909833739023373      42.554727400863072      2.9226796721416677
   353   1      25.138955740493202      44.181604140994907     0.45226873101374498
   354   1      27.173254875937875      47.275527648650723      52.022746703318639
   355   1      27.010311446202145      45.615117411077534      2.6289126977489619
   356   1      25.557613775533465      48.081209602918925       2.667753224661948
   357   1      25.756333355855389      49.931809263006166     0.20068650417015016
   358   1      27.079087958731588      52.769246011252541    0.033104803489643397
   359   1      27.203585916761572      50.739973127188016      2.6832959079760696