dump/Mg_700_5/steps_91 (written by ASE) 

3995 	 atoms 
1  atom types
0.0      32.100000000000001  xlo xhi
0.0      55.598830921999998  ylo yhi
0.0      52.130399999999995  zlo zhi


Atoms 

     1   1      31.857320335306618      55.331997512668941      51.916484581872531
     2   1      1.9148945454907798      2.6097553033274492    0.048085399714913726
     3   1      1.7474599416678194     0.91067015327342715      2.4366725899382038
     4   1     0.20690240400121004      3.6769994083915605       2.573378885205845
     5   1     0.40480504656498262      5.4937319425990809      51.978163579816439
     6   1      1.7119148345374158      8.5579184763803564      51.829900474692607
     7   1      1.6518030085041231      6.6472157996138073      2.0268217933856301
     8   1     0.21677060974062734      9.7214366319643748      2.3679995433570378
     9   1    0.092708701177518102      11.046800387814045      51.778607843968345
    10   1      1.2049376710255619      14.010636262080823     0.07956269701871492
    11   1      1.9485720759423653      11.983539245891031      2.1883716105238378
    12   1    0.066882011917335726      14.884940438531011      2.6891878178903905
    13   1      31.947135511778605      16.920467359527805     0.23383750595431532
    14   1      1.7865206704973753      19.732593792680802     0.27708081118391154
    15   1      1.5884975016821383      17.509949493334222      2.7809260860939622
    16   1      32.060231416395681      20.080070630711209      2.6739654410503082
    17   1     0.19842778025556657      22.288021707141187   0.0023804475137205361
    18   1      1.4739894455691152      25.066918878915963      52.082242986366111
    19   1      1.6669231071609836      23.167262796176239      2.6598150121203434
    20   1     0.16735997306471034      26.076294280331588      2.5577387095981137
    21   1      32.097715551616965      27.754286621308601      52.042073397148926
    22   1      1.5862140177486508      30.374044362239044     0.12859290915854077
    23   1      1.6570650489541228      28.481348291188983      2.8651598329266852
    24   1      0.2229297323456102      31.296657232752722      2.6403328154225481
    25   1      31.927897493055109      33.208542271538384      52.111978301329017
    26   1      1.6638262711575904      35.982601443270326     0.35364695638532007
    27   1      1.7575481470507519      34.093416869675345      2.5542704032803627
    28   1     0.31071512027771442      37.226515236475265      2.6942928871462222
    29   1     0.17725983261292669      38.931467231261315     0.12228469711173127
    30   1      1.4825726527992074      41.563506780833819     0.14371006207089351
    31   1      1.6338338001165673      39.981036689646167      2.8752477080552579
    32   1     0.28812297116341207      42.544327422707219      2.6900786180433065
    33   1      31.970943495154856      44.019210629823327      51.950739402933117
    34   1      1.6484819117404097      47.010750455331987     0.18963828575029698
    35   1      1.4849324925484588      45.172154871112916      2.3284403693617968
    36   1       0.163909108493036      48.004159806979146      2.6628499109767541
    37   1     0.30242103139829934       49.84647133580674     0.19120188762234616
    38   1      1.7457993421622597      52.749099016489161      51.935072307702072
    39   1      1.7955964455293647      51.196851006019685      2.4661769860019502
    40   1      0.3503223332995764      53.645616814056247      2.4999441553140342
    41   1      3.2417548580343927    0.066889858128490395     0.23798827254509158
    42   1      5.0336649470619887      2.8847412436972446      51.978182258558775
    43   1      4.9305359629846688      1.4684572206521151      2.4473325561082859
    44   1      3.2250791413774795      3.7260472797169983      2.2778497888051321
    45   1      3.5397481443695615      5.4310161763878719       51.81026014972327
    46   1      5.0282904680772837      8.2809430950745231      51.887990948303276
    47   1      4.6312402847369638      6.5922889072250843      2.3293477000758274
    48   1      3.1768591120716581      9.2192213300907806      2.2132407485611179
    49   1      3.6073076198303871      10.981496954084307      52.041885589142737
    50   1      4.8112211157296763      13.844788092759156     0.11168955380992621
    51   1      5.0557627127437241      11.914373619813242       2.475431261301591
    52   1      3.2904471574895964      14.712728084041773      2.3945366609434058
    53   1      3.0400330274460776      16.621559146037793    0.083584106027251734
    54   1       4.682392400333967      19.006427693855468    0.014473572747035535
    55   1       4.709694589666138      17.451423660102275      2.8234108515604839
    56   1      2.9806546037931763      20.678889692555817      2.8354146401782732
    57   1      3.1425137069341771      22.578500057118276     0.11794436459919287
    58   1      4.7749746503619059      25.192826186810851      0.2822187714761924
    59   1      4.9725457398711486      22.968581025751696      2.7628941487566121
    60   1      3.2384385909777174      25.849285309270471      2.5412805761445245
    61   1      3.1751493297005156      27.526311872365802     0.21520759744063372
    62   1       4.738738932581577      30.265138468745118      52.061306417668185
    63   1      4.9099210128459285      28.876034985569948      2.4795198673623142
    64   1      3.0978457298329323      31.261875394934499      2.7430872924697871
    65   1      3.1804151291645466      33.226587458295306    0.063517967358627317
    66   1      4.6607042592997452      36.066098491546867     0.09442164382084399
    67   1      4.7824333720520462      34.079825139218258      2.7687297967257147
    68   1      3.4469358931066161      37.319279872634795      2.5083133501411239
    69   1      3.3262831356172722      38.853631409757654     0.20070719909187079
    70   1      4.9072179194604413      41.438813880455371      51.900993968077898
    71   1      5.1179960540273619      39.993356117926638      2.4673046022016769
    72   1      3.2962441095802668      42.425190536209151      2.3145037831814661
    73   1      3.1777726960942871      44.152091209380224      51.972052769763025
    74   1      4.7947386091227404      47.453217578126676      51.791939977103347
    75   1      4.7229134565478059      45.505147984995098       2.189380290500214
    76   1      3.4154563114120999      48.206229534526351      2.4152073362452939
    77   1      3.3707715879004554      50.154580542146704      52.123270866220807
    78   1       5.081632396459276      53.212696626201627      51.808523126575011
    79   1      4.8460637153337105      51.073080236114762      2.4169820995104816
    80   1      3.4160020558634101      53.683852705125048      2.5118956374307388
    81   1      6.5323534672694024      0.1358436979646637       52.05618541017634
    82   1      8.2741500792230713      2.7351901811446928      52.066920153452578
    83   1      7.8757327515321629      1.4338529646900762      2.4238464494427299
    84   1      6.6658435784968901      4.1724064582208475      2.2756564438289089
    85   1      6.7889891209646178      5.5451032792309869      51.794111229329971
    86   1      8.2318502134747984      8.5050289275672739      52.091242136100071
    87   1      8.0988758159663394      6.6558072608925594      2.3731423147554871
    88   1      6.6365094608226238      9.1061101569222878      2.8327593717237356
    89   1      6.8709428488839093       11.04865021313641      52.096262994545839
    90   1       7.917956991666272       13.79875314574746    0.018746865314046117
    91   1      8.2665940232788895       12.08662763411774      2.9493683559533643
    92   1      6.4356015617914046      14.660604950200065      2.8363300941047993
    93   1      6.3370059114465516      16.684031352009747    0.050244206408361872
    94   1      7.9632247801083418      19.445047630695104      51.990051674055117
    95   1      7.9997485478125556      17.586760239634923      2.7218300261283717
    96   1      6.0634253396123645      20.257286631219859      2.8143199852783485
    97   1      6.4565134087591529      22.070683895155355    0.087041184229886923
    98   1      7.7562764723590787      25.147940714654812      52.087258207649704
    99   1       8.066302712084136      23.200951061661392      3.1896308391498085
   100   1      6.3812176148569622      26.098262871288014       2.852618223480889
   101   1      6.3772038088969989      27.742905776460372    0.027623122835284907
   102   1      8.0126315962312677       30.48747805960128     0.14684263000368572
   103   1      7.8798577189595829      28.913170855048573      2.7236044558478727
   104   1      6.4611222062462845      31.483025970572044      2.9404180612456483
   105   1      6.2059218322812164      33.229668331202703     0.18116173416992581
   106   1      8.1660780561553583      36.050287050479824      51.874096930414488
   107   1      7.9697196021236278      34.373194341309123      2.2724358872603343
   108   1      6.3207462603785221      36.991271576726668      2.4227658401072762
   109   1      6.5548609648967631      38.541619179419143      51.860469124363647
   110   1      8.0981803571473634      41.229830985696388      52.114293446354381
   111   1      8.0515163012077835      39.325994897335612      2.1721029277148718
   112   1      6.6105119394171261      42.680146019152438      2.4736302600392954
   113   1      6.5121948269792629      44.250428874953933      52.003493358387189
   114   1      8.0170031126044545      46.881256844903803      51.912588469619337
   115   1      7.8947437574713017      45.254341767849297      2.3591763462224487
   116   1      6.3457033090149331      48.189552282539445      2.2943780395188278
   117   1      6.8880524924012274      49.964362198192745      51.995080934811952
   118   1      8.2540761709062185      53.137968344339342       51.77052672188551
   119   1      8.2018950310066323      51.466826200463103      2.2832847653643822
   120   1      6.6740906176127162      53.812848151959024      2.5167539205809897
   121   1      9.7160457287457458   0.0071135606301458492      51.816408639709614
   122   1      11.385858182156804      3.1330366846389301      51.925651946695574
   123   1      11.283345887327679      1.4226887366896643      2.6675222833160159
   124   1      9.7106558019855029      3.8651549990834182      2.4904198409678329
   125   1      9.9194791615763958      5.7673103632359188      51.984845446460433
   126   1      11.371832304030434       8.478730647372517    0.097301161478654571
   127   1      11.544963289342823      6.6538267410788787      2.7303126840603036
   128   1      9.8757834504944331      9.3963108375679862      2.8239769531158796
   129   1      9.8559337473802504      11.108282695387883     0.33879867703574312
   130   1      11.185275709221285      14.033892208615118      52.124841638898467
   131   1      11.361407764258029      12.070998565445141      2.7410355847488295
   132   1      9.4826832106132208      14.619751788860446      2.5173919330105856
   133   1      9.4306545232195642      16.815434321051615     0.11423661998352369
   134   1      11.367641237858621       19.72497513069834      0.2327129528810328
   135   1      11.257989893038081      17.265379782329752      2.7856486065238846
   136   1      9.0878234347811109      20.483701064164016      2.4013286772968914
   137   1      9.6532859732723377      22.227973381453456    0.094577713600461202
   138   1      11.188803074071776      25.179088307554597      52.057257862461725
   139   1      11.083970309267228      23.011108224315013      2.4021143555356139
   140   1      9.5528254362812337      26.098531130623186      2.3785255200454363
   141   1      9.7093918433913782      27.951851403817052      52.068043274205529
   142   1      11.546468788613113      30.530108469716289      52.014897355408827
   143   1      11.286164204360551      28.934130999512202      2.5711091216110775
   144   1      9.6762431979202415      31.403373709264681      2.7262112015298725
   145   1      9.4750661725871907      33.043803165967304      51.926193281881993
   146   1      11.245607180758103      36.498033021222632      52.001991975237893
   147   1      11.285022835154582      34.100999282216492      2.4971233603839607
   148   1       9.663840943756675      36.813346694056818      2.6203472832732899
   149   1      9.6963586908181654      38.772556953714087      51.814281046853573
   150   1      11.164691953347276      41.687555237269308        52.0901605344988
   151   1      11.308880205858399      39.625383069086155      2.6064321311135239
   152   1      9.8074011217196517      42.588341545888206      2.5783001059089239
   153   1      9.6015794477498329       44.12048214835869    0.056357979151152843
   154   1       11.03282149985862      47.308680397637119      52.107078897815114
   155   1       11.22563098095776      45.545394591671432      2.6278895726602576
   156   1      9.3319854125534683      48.319251130082577      2.3133218344039457
   157   1      9.6398115782217531        50.1099439367649      52.003901807832996
   158   1      11.177384503648272      52.732791878017061      51.932073432639456
   159   1      11.170002875927407      50.820273228994161      2.7132035764837568
   160   1      9.9237137935381323      54.223195473102436       2.710056612320745
   161   1      12.494316652421324     0.39525205363480909     0.05594343307626537
   162   1      14.456131598084006      2.8456868636574959      51.956597702524562
   163   1       14.70969412490771      1.0192595009966121      2.5324587425290654
   164   1      13.143037564606947      3.9291424630774112      2.7869826970056515
   165   1      12.761585221057866      5.7228798323749537      51.940089345357656
   166   1      14.664296298390633      8.4422754004781755    0.086109470727373086
   167   1      14.630517810007055       6.358929516801509      2.8691835366501484
   168   1      13.116323610535019      9.2399467311497503      2.6377471277221267
   169   1      12.724541943809617      11.011877417642358      52.038671783668121
   170   1      14.426408078909683      13.438089415821693     0.34333795254882404
   171   1      14.911853001340598       12.01203042791963      2.8695801491858832
   172   1      12.944334989806404       14.85975261919813      2.6350326434279943
   173   1      12.756639670188729      16.803315511850343    0.055368749066685659
   174   1       14.37876146589309       19.54076258372902     0.35473224312419266
   175   1      14.368004638437872      17.637422069586208      2.5130739086062648
   176   1      12.759183237490594      20.234337042318451      2.6688179209106648
   177   1      12.843048161998464      22.424354897049152      51.905056645906953
   178   1      14.216180386653861      25.101045429250195      51.931604808187942
   179   1      14.169153293173359       23.34599649805881      2.3301742954571334
   180   1      12.746211135767584       26.31672194846843      2.7223232312199968
   181   1      13.020191952404426      27.701532963627415     0.18672042754886667
   182   1      14.325829092014464       30.67126434690843    0.097441829477879105
   183   1      14.401086887750081      29.238079091876919      2.8251809804667105
   184   1      12.985378577742194       31.84156113386485      2.6421329201652304
   185   1      12.814283583678032      33.531585730334356       51.89287875938281
   186   1      14.394807789737117      36.253532361257463      52.039518661735826
   187   1      14.401394055382974      34.393491135803984      2.7889662278454415
   188   1      12.808161358629249      36.762316989918062      2.8187207354439612
   189   1      13.025439645623562      38.998604999382501     0.20239673241912351
   190   1      14.216450949846127      41.868169220997025    0.076405498082077763
   191   1      14.536562844468921      39.831992853915672      2.5207410020604493
   192   1      12.815203027654956      42.365287070852169      2.6536626104425531
   193   1      12.575931714664035      44.601040980334105      51.961486946149655
   194   1       14.40467497230166      47.230238852510944      51.822437129925305
   195   1      14.306263345307295      45.160644597448801       2.776882732274133
   196   1      12.795967798189794      48.240951790761834       2.502860241230993
   197   1       12.78036001494117       50.16110482551408      52.003310586630505
   198   1      14.531163833639814      52.726127824984026      52.005678319356463
   199   1      14.236384556725163      51.036553710901359      2.9908937192632106
   200   1      13.136885973853751      53.726385106592943      2.5853261398265142
   201   1      16.113515000063416      55.463553884901849      51.862024477288656
   202   1      17.786170800600839      2.4987930650842842    0.035985150323784264
   203   1      17.824402501519007     0.85638736132712978      2.4618123640439378
   204   1      16.254755616946493      3.6608098159067142      2.5959334977279265
   205   1      15.856975057987318       5.734225022833515      52.064767307175558
   206   1      17.910387318412386      8.3541064572507722      51.981269772937942
   207   1      17.622254692199522      6.3305879400243663      2.4561221951683856
   208   1      16.337271474252347      9.3810330371404582      2.7127001058301374
   209   1      16.460501705536196      11.174270095447016      52.025582292923204
   210   1      17.785251275542681      13.662730073104479    0.098005855149925894
   211   1      17.867060503314843      11.838079583709685      2.5239035621158341
   212   1      16.094811069224285      14.542556112903295      2.5425581776945774
   213   1      15.856700023815202      16.169442880206013    0.052008022079363121
   214   1      17.504590971462928      19.629919624998063      52.028446820046227
   215   1      17.259248171764757      17.514030033294034      2.2872728207048039
   216   1      15.935767813646539      20.454295786663657      2.6886460070250355
   217   1      16.164772315794679      22.595433291828787      52.008449013723769
   218   1      17.595062046681242      25.189713306527182      52.063325196079099
   219   1      17.872961510155555      23.150799705839908      2.3134305297078459
   220   1      16.100366934241755      26.111468717519429      2.1308795178653188
   221   1      16.060084201629071      28.460403713013548      51.988129335369436
   222   1      17.634602570373861      30.766235002294618      52.086305872735331
   223   1      17.601428194915496      28.919038072534089      2.4766057195722064
   224   1      16.300601491904686      31.735773707190774      2.3803137541767678
   225   1       16.05619564982905      33.633630249533851    0.088616798144251344
   226   1      17.540325946789871      36.440723116722076      51.885237763205964
   227   1        17.5926638416374       34.59564026479098      2.7680360423218424
   228   1      15.838181892266951      37.047200501027284      2.4529704060903592
   229   1      16.036723696636649      39.041902458051482      51.921292577705842
   230   1      17.713313542674168      41.968966785344783       51.87100625466757
   231   1      17.508276882893959      40.120149445141379      2.4732535346971023
   232   1      15.943546367971642      42.576561098447193      2.7939711946585533
   233   1      16.035290843751795      44.785794134852914      52.082158202166234
   234   1      17.787763478359686      47.353472086726249     0.12730894902337142
   235   1       17.47140045797692      45.474389317474099      2.7454114257306461
   236   1       15.87997894410459      48.026900968787928      2.8052090177538194
   237   1      15.982166994168281      50.178146168795699    0.041234403812992759
   238   1      17.716043356257213      52.686523311967093       52.13002890043213
   239   1      17.331457349091924      50.853710152022046      2.6470445711295563
   240   1       16.05740780979658       53.68852160452149      2.9253033835528623
   241   1      19.333523155794641      55.598111521344663      51.945327159462437
   242   1      20.793918088106171      2.8108151577331557      52.034093611207069
   243   1      20.966680270529011     0.78341811116872229      2.4913714213062201
   244   1      19.325882742037475      3.5469666460436895      2.5223379508799213
   245   1      19.279014099772745      5.5456511349873514    0.017958120458151382
   246   1      21.108789851720569      8.4005002683741772      52.021562540157483
   247   1       21.09481655012301      6.2852684725918024      2.5071143670524885
   248   1      19.298882814921768      9.0512114251447766      2.6831287279720741
   249   1      19.509050784857816      10.792709048108851      52.025683978134452
   250   1      21.044071985231078      13.473827030683369     0.14231486942064361
   251   1      21.212893150396596       11.68941091061208      2.7390693654162992
   252   1      19.391865280663414      14.451530991075105      2.7627688366722873
   253   1      19.291205597929419      16.638002687188628      0.2382097906089343
   254   1      20.800170455455291      19.380202416104318      52.109777686846591
   255   1      20.945122303759756      17.550041913333704      2.6645024461751157
   256   1      18.986733195969169       20.35318078142345      2.4274053410565672
   257   1      19.418060808930736      22.288712426508035    0.096123997600144978
   258   1      20.711299728635961      24.821468083466605      51.837471034145132
   259   1      21.244897823542058      22.529083011184216      2.6415458726813505
   260   1      19.110576898229198      25.817188498529305      2.5355724250610647
   261   1       19.07744841702328      28.165689440512864      51.733239507656428
   262   1      20.821221004957692      30.645377652529284       51.87242258210145
   263   1      20.842984543499984      28.428273169289923      2.4618155846326299
   264   1      19.272512249803931      31.498912304362307      2.4543780005537057
   265   1      19.034705297806447      33.532749900002813       51.82113550286234
   266   1      20.420581090359782      36.255946243579487     0.31725359608054282
   267   1        20.5725076471339       34.20236154882214      2.6543483822351757
   268   1      18.871481361464866      37.183874088908489      2.4591513728628023
   269   1      19.143455375907553      39.475231328104002      52.017065530907587
   270   1      20.806107343695036      42.206696972575187      52.092153215801275
   271   1      20.537141187894338      40.047882210141701      2.5538561262822581
   272   1      19.137344380061567      42.557113997241167      2.7316071707267486
   273   1      19.242251251713107      44.887798814630834     0.34962587795920269
   274   1      20.667275924704938      47.549829883382074      52.046675889796404
   275   1      20.978853517696759      45.776743973241246      2.7764623104375166
   276   1      18.989746217321137      48.410022692685267       2.965204378685137
   277   1      19.083926761774865      50.035103786124189      0.1747546956586041
   278   1      20.870323636763743      52.625955401357231    0.058278280514518194
   279   1      20.624661584191511      51.057939112887034      2.6641070382264789
   280   1      19.128093563708603      53.506740575325864      2.6083803969166808
   281   1      22.373134833980536     0.20099939359201824      51.849390515637687
   282   1      24.058291643823626      2.8464026021515081      52.055313892294997
   283   1      24.297861275922045     0.78997944058846103      2.4669707157953722
   284   1       22.79054776364551      3.6648392039217752      2.4835521398081641
   285   1      22.605500372687004      5.5751554238753629    0.010110684313922296
   286   1      24.309935816473082      8.0939455205910562      52.123099044334104
   287   1      24.171796182186352      6.4871873354634859      2.5900047944407536
   288   1      22.922351011097469      9.2400617553433122      2.3548488279272362
   289   1      22.513046987297329      11.028073942683228    0.038869027888397356
   290   1      24.026040085492511      13.827589528233942     0.23523083849469251
   291   1      24.189429399821613      12.076539024977508      2.6567794138551273
   292   1      22.530032241440541      14.564887327337971       2.594613333051317
   293   1      22.435344008398278       16.58652101241772     0.29375519312394266
   294   1      23.906129505962138      19.242091129876449     0.20303582517997643
   295   1      24.339510668726401      17.543816284777495       2.790894893927824
   296   1      22.430238793412595      19.927512624170383      2.5517655182974295
   297   1      22.600697417494636      21.971215842628059      52.039378968216894
   298   1       23.89639728784719      24.874799067392505      52.042622537574132
   299   1      24.221922042397672      23.056303710390093      2.6817139259882015
   300   1      22.130396205418513      25.642149159845367      2.5853067020188192
   301   1      22.616837249773681      27.752773765179967     0.32220363805297841
   302   1      23.983022466050532       30.63231679764732      51.999445740048223
   303   1       23.80955274820916       29.31606793317065      2.7192542380083076
   304   1      22.346583661593371      31.814624735866584      2.4652966982277373
   305   1       22.27688685778147      33.574387722777296   0.0029352709221469927
   306   1      23.601886607407504      36.308540361009015      52.049402182182824
   307   1      23.947628873613109      34.361913164661225      2.4339269884981838
   308   1      22.027700179281592      37.008995781825099       2.557238115355283
   309   1      22.585024433960019      39.227126122195038     0.38220838741567398
   310   1       24.01834838040449       41.96006581999351     0.10300193299411878
   311   1       23.81079187166161       39.87567460254526      2.6869354047639562
   312   1      22.192200671859766      43.191387958563467      2.8344203578011542
   313   1      22.634396245665911      44.701295856856802    0.053507870580674834
   314   1      24.204994393124299      47.580048591279279     0.27017341618477514
   315   1      24.074982216528966      45.717032506378793      2.6667218887131456
   316   1      22.256156581361097      48.230166759275733      2.6925870885534988
   317   1      22.175127026013339      50.004305316910759      52.126650179220846
   318   1      24.239206943857603      52.579952829115179   0.0082527506131948834
   319   1      24.081038520195289      50.517387130532086      2.6319299174926001
   320   1      22.605874408332138      53.565312219575773      2.6676839203098175
   321   1      25.671886797654736      55.391923815971303      52.030306413954605
   322   1      27.413028847165585       2.330210714857984       51.86203084663638
   323   1      27.573182240140106     0.77232242693369813      2.4826045981758726
   324   1      25.835831628865886      3.7589060200811613      1.9755606439457489
   325   1      25.652949935176462      5.5298655117696613      52.118793488825389
   326   1      27.382287525421233      8.1422990326219615      52.029608630531577
   327   1      27.482691448333025      6.3557562530904281      2.5316366829542787
   328   1      25.834010754105798      9.2020074651326933      2.6812932977716741
   329   1      25.497354658098505      10.939194788012426    0.042888846900989833
   330   1       27.43053492671628       13.51526213972938     0.28222716530044689
   331   1       27.08944542340954      11.897783641682812      2.4104597970379928
   332   1      26.102458634330947      14.965860435260215      2.5680038453846263
   333   1      26.009900893576233       16.31679987904413    0.054038796726508104
   334   1      26.892251009432336      19.370896616097642      51.928777828969352
   335   1      27.293197870052818      17.755152916120437      2.5437915510506439
   336   1      25.799294776513801      20.288084482297883      2.6757083199434035
   337   1      25.540893730916729      22.233381346359149     0.15981865847050805
   338   1      27.048896803947805       25.06889199008679       52.00573687306224
   339   1      27.317073888542787      23.180226893061821      2.7298317396708494
   340   1      25.642636377881963      25.613322720810043      2.7786804429849283
   341   1      25.564810911159771      28.073260635161017      51.898832289057047
   342   1      27.174634358768849      30.599422968300313      52.004401913622246
   343   1      27.281894702966937      28.865359083454109      2.4554610920783309
   344   1      25.752276053381095      31.777630629076093      2.5946727829240666
   345   1      25.551913912420549      33.627978491711922      52.069642995019016
   346   1      26.928777717423134      36.284395430679979     0.10124466980685232
   347   1      27.227861142475348      34.574897559872433      2.4649643908532752
   348   1      25.476294426961189      37.332990476850632      2.5297728058048055
   349   1      25.577443173134476       39.15124046626633     0.05542042087679027
   350   1      27.213057928554328      41.751327429114241     0.13011713428473359
   351   1      26.779150291199972       40.09808285132145      2.5933959957221351
   352   1      25.299292678490939      42.901798835310487      2.6405870339727149
   353   1      25.613089651076784      44.574284143808065     0.16606658087751408
   354   1      27.292016729057263      47.154954239636702     0.55922088387035718
   355   1      27.141790139686748       45.00786123868879       2.639497387990815
   356   1      25.927453038806348      48.113672605368684      3.0052876696995736
   357   1      26.009467714627696      50.012428716587678     0.10612324021581925
   358   1      27.496393277663941      52.817105325532872      52.093302452541643
   359   1      27.407358904195142      50.941215065479078      2.9555502261379822