dump/Mg_700_5/steps_61 (written by ASE) 

3995 	 atoms 
1  atom types
0.0      32.100000000000001  xlo xhi
0.0      55.598830921999998  ylo yhi
0.0      52.130399999999995  zlo zhi


Atoms 

     1   1    0.092343187273335264      55.407237344821461    0.030942319662397411
     2   1      1.5996888597238712      2.8591049235151433      52.127423152450596
     3   1      1.3888854824159917      0.8002953612360616      2.5791056425678356
     4   1    0.090878104442572799      3.8165404192388492      2.2719171363855901
     5   1    0.068578841991521908      5.3979600355114057       52.02928853121383
     6   1      1.5725204277174274       8.317911064161386    0.073770269559877949
     7   1      1.5970296082306159      6.6895802151181076      2.6166219060978184
     8   1      31.955729902589173      9.0374994506244217       2.747112544756757
     9   1      32.095160228732226      10.796472709359472     0.34247376164928195
    10   1      1.6117256006948926      13.812271049815973      52.060895528846501
    11   1      1.3903667308963594      12.015782113627308      2.5330763947146018
    12   1     0.20928298147412192      15.139108447827665      2.6119009915410416
    13   1    0.094706099831561905      16.499343250146861      51.917279092955837
    14   1      1.8471331304561238      19.420542580818804       51.77383033653723
    15   1      1.5935190249884861      17.667929802737021      2.7449678111607732
    16   1     0.49405915007810391      20.614523339759412      2.2377902204633364
    17   1      31.658736796389555      22.510124569136156      52.077295885877888
    18   1       1.623338647864188      25.157407349961581       51.84113629641891
    19   1       1.762236277221269       23.43891302152603      2.4947168655121552
    20   1     0.18334326084638125      26.084408610813782      2.6645858592135805
    21   1     0.11930009299051608      28.143783911383132      51.990729981195358
    22   1      1.7395803345349647      30.735147312336142      52.094352909189709
    23   1      1.8956097187145848      28.733750738674527      2.5878937952338394
    24   1      31.895816500698693      30.776835276407482      2.8504861755259396
    25   1     0.13468755878855254      33.752709116977272    0.018148708577736039
    26   1      1.5171138239093753      36.277154685889698      52.106296084877883
    27   1      1.2186455972556491      34.191082296672413      2.7832591021601365
    28   1      32.069662343540635      37.336268946444392       2.555756589369746
    29   1    0.014210418917846412      39.282406316064751     0.22237461392635344
    30   1      1.6863446551023715      41.871491779725638    0.085759474704332997
    31   1      1.6481589941258932      39.775732099611687      2.5586964337615763
    32   1     0.10496134755625516       42.89960387002715      2.7400732318684717
    33   1      32.015318339311158       44.52320110777535     0.13985473625931491
    34   1      1.5949787947232883      47.450882960499129     0.26246326144275905
    35   1      1.6597798250249458      45.455075831392733       2.934794136825742
    36   1     0.24949088470187086      48.488629946946027       2.622001136996484
    37   1     0.18519714759658604      50.247434479046085      52.018739952250435
    38   1      1.7806387293843557      52.767133466849991      52.038589548778468
    39   1      1.6345828822140478        50.9332186891913      2.6832058144761595
    40   1      31.711653584717006      53.412009280495255      2.8878109121782751
    41   1      3.4193479877943767      55.548561553557299     0.26251442842423245
    42   1      5.0480926741346783      2.6709776336563182      51.958374309829807
    43   1      5.1386364865706344      1.1259786261934754      2.5642882551970954
    44   1      3.4962054972709171      3.5125185721007997      2.2191221724876211
    45   1      3.2111590379933364      5.5370502071280123      52.032588626318457
    46   1       4.674593235103667      8.2723026065433363     0.12567252373215268
    47   1      4.8174966474835239      6.4101207427737288      2.6897366110144012
    48   1      3.2003958499225416      9.4449065304504813      2.5313312098342986
    49   1      3.5293003320075313      11.166633023234111      52.085227293681449
    50   1      5.0325770950260349      13.837629155998455       52.05110984004385
    51   1      4.4714636728919599      12.222924505706102      2.8567672747471691
    52   1      3.1692879581638196      14.949464776269373      2.6175687186056331
    53   1      3.3391694273570653       16.69962387438213    0.074471153384333688
    54   1      4.8811427603000084      19.743708715222606       51.86477768848647
    55   1      4.7640420421549416      17.767952043379911      2.8114690887743365
    56   1      3.3516162092238013      20.556326826828915      2.7399543803590976
    57   1      3.1370458083395438      22.427289564939649     0.12516074479796088
    58   1      4.7201974729699527      24.855045934981451    0.055676543179875991
    59   1      4.8977958196509812      23.159568764265011      2.4612556413689908
    60   1      3.1576501336767495      26.210858778385173      2.2969209957019028
    61   1      3.4385784229694312      28.116099116049359      52.035436898894154
    62   1      4.9763725156080447      30.699070173833515      51.937791711303205
    63   1       5.040983917154171      28.594876183270099      2.5996588270643666
    64   1      3.4954816177533257       31.45902758293261      2.4624917670577946
    65   1      3.4090459998948344      33.482955882855784      51.883080817140957
    66   1      5.0141905651886969      36.329347903339333      52.098480829989867
    67   1        5.12386813789883      34.533844645341304      2.7192907571423626
    68   1       3.445817204872669      37.120185738101412      2.3564189425870508
    69   1      3.0443060270197102      38.837607514258686    0.045521252025305235
    70   1       4.528339659250376      41.646124310037926     0.19011091889590845
    71   1        4.83999599608146      39.835564027835836      2.5792302516637271
    72   1      3.1284286245822073      42.622515856699664      2.6918384091015235
    73   1      3.0303218396193112       44.87014001651017     0.11835305739764634
    74   1      4.7136068119331673      47.277280337477478     0.22928122006741339
    75   1      4.9075230921008695      45.332534719812109      2.4697870009245886
    76   1      3.2467562277133912       48.45017534355835      2.5444720959902898
    77   1      3.3977896926604831      50.213583716836666     0.21184239341436545
    78   1      4.9169619636910289      52.753303389032496      52.050330475683396
    79   1      5.2104043896820098      51.127811837121484      2.4024392164610684
    80   1      3.0406795789763388      53.617475180797854        2.64102020636376
    81   1      6.6420759251399719      55.428127830128886      52.126898621376625
    82   1      8.1196856916403348      2.6448350392050703    0.093651414057726187
    83   1      8.3326434524955992     0.75717980370384719      2.8410215830629055
    84   1      6.6034134338661055      3.6950904057746201      2.3985819882656081
    85   1      6.4684261689516402      5.4857930093021974      51.966671178693744
    86   1      7.6495780165154468      8.3974710714673151      51.943774923586467
    87   1      8.0455106159982996      6.6041107829104551      2.3654709450298324
    88   1      6.6364095321416476      9.2134137713593418      2.5404519093721807
    89   1      6.5216099153448335      11.208264147437962    0.018263078093582671
    90   1      8.3762190234964002      13.750757500561658    0.003955253640638509
    91   1      8.0523065188121912      11.876469932582108      2.6691041013994892
    92   1      6.4389194536580181      14.728608714638058      2.8246114893510281
    93   1       6.473011350084243      16.692178197887969     0.21426743368727461
    94   1      8.1434046191686473      19.445669024046524     0.12734598005049388
    95   1      8.0358822520944049       17.67422306030446      2.7566796437221073
    96   1      6.3965101738739376       20.25659791129117      2.2805407704790612
    97   1       6.650797795050142      22.137356910497065      52.091609486654093
    98   1      8.1178840569554858      24.981027510871478      51.831363174643506
    99   1      8.3953913840210959      23.081872072067441      2.8663336418618366
   100   1      6.1021911085807092      25.770167064036233      2.4651015294555001
   101   1      6.4838745281158809      27.841362389348664      51.990329317635215
   102   1      7.9078377176109145      30.619495528071582      51.726831962488127
   103   1      7.9845400968837295      29.025774519491222      2.3802043368661607
   104   1      6.5084451914561585      31.654262826228756      2.6870789369534398
   105   1        6.42008563254248      33.555848773467012      0.2638068581485471
   106   1      7.9712568479435788      36.352197434821072       52.05314736411367
   107   1      8.3295963150726138      34.500333161921859      2.7125038154542187
   108   1      6.4079444149969733      37.200484166258875      2.7229265530725075
   109   1      6.5893091813822577      39.064159126221732     0.15308826326078442
   110   1      8.4343327690023493      41.580827344875559     0.25329231431945615
   111   1      8.2625931625507523      40.054648277663851      2.7899335525419593
   112   1      6.5367143819779248      42.601913116198617      2.8758684496988534
   113   1      6.6695713762625575      44.203315617895747      0.1226624348848083
   114   1      7.8596964281154991      47.097536245502312     0.23997400845496197
   115   1      8.1552868422380698      45.259545111063801      2.9105754767236789
   116   1      6.4661035125025048      48.126293857237741      2.7662976534171784
   117   1       6.586636339937944      49.816219115487144      52.018194648501485
   118   1      8.0621331304238577      52.604024136012008     0.16789271100267425
   119   1       8.635050251022669      50.716520226482274      2.5663765678328589
   120   1      6.3884198965704977      53.848634581995839      2.8819895998049661
   121   1      9.7102492611241935      55.319937487238363    0.077512934471259232
   122   1       11.33159514161542      2.9485562093260187     0.01796929706570936
   123   1      11.276651938352689     0.94587108783416229      2.5390951301086577
   124   1      9.7906682045441915      3.6713697271932446      2.3822015616115149
   125   1      9.3629960685029339      5.6015025820935129      51.754166919108734
   126   1      11.309193697179165      8.4306179504334402    0.065350838016647123
   127   1       11.21545810787382      6.3922341982012627      2.5124709869433888
   128   1       9.647109073637413       9.427243817912581      2.7907785416108633
   129   1      9.6954896594602555      10.982309874716767     0.28837831401278691
   130   1      11.332894497986135      13.786754773806404      52.078737582415812
   131   1      11.459292153368406      12.228999354147177      2.6295708165000011
   132   1      9.7666160559905801      14.818997196895882      2.4964096699518561
   133   1      9.9090260023400578        16.8736549403209     0.23282806856608601
   134   1       11.33381648607649       19.38248625304886     0.33803078197984698
   135   1      11.167403773972103      17.686439166405581      2.8248802322572981
   136   1      9.5128773673758023      20.395798931285242      2.8422323863280385
   137   1      9.8775581015828227      22.390396108818972     0.17003208006029885
   138   1      11.245777275976089      25.174082179322653      51.924741026682042
   139   1      11.346917521435971      23.007941815685196      2.7840571981721238
   140   1      9.2714964230776964      26.070103890979606      2.2677929445675753
   141   1      9.6633288967889008      28.183551852932169      51.835112682142771
   142   1      11.080511989100515      30.780813442145632      52.035880287067243
   143   1      11.050787696946921      28.778870287170129      2.5294185641208844
   144   1      9.7527983343715263      31.821851171340377      2.6217083243712267
   145   1      9.5863576690718677      33.456451525150371    0.015602493289386067
   146   1      10.943301705262025      36.066745906860717      52.010140216267047
   147   1      11.661012067374157      34.494265123412184      2.3134523350854304
   148   1      9.8497074793724639      37.225511231135421      2.2274885452621511
   149   1      9.8417831777028528      39.030594822436143      52.119612669666189
   150   1      11.509583515969826       41.55973677319799      51.972248248235509
   151   1      11.478070176216255      39.832862839185182      2.5721145455580507
   152   1      9.9033357949444341      42.707045738719252      2.6670192921313647
   153   1      9.8345344474192551      44.461266547419022    0.013146870480086373
   154   1      11.554382289859985      47.098330880229156      51.977363545058274
   155   1      11.375806481244268       45.49112878237154      2.6738708396163919
   156   1      9.5242727340801707      48.003768776673425       2.531273278133753
   157   1      9.7830699974176252      49.597765544530205      52.118585491300976
   158   1         11.318806495138      52.702232761717291      51.996390635268916
   159   1      11.567784321594102      51.122902267349232      2.6159315178799512
   160   1      9.9369621873012974      53.747021924594542      2.6996292950336112
   161   1      12.864865067543784     0.13076511360446105     0.12404648291896465
   162   1      14.460931768276842      2.7132724782942179    0.083978015633885766
   163   1      14.355517647841522      0.8655472764430282      2.6999206349787905
   164   1       12.80025662877517       3.785700133124251      2.6006326506449886
   165   1      12.593273429070823      5.6925532351771917      51.997424257128777
   166   1       14.58569916081432      8.0523006110254141       52.12478607596497
   167   1      14.619931621449638      6.2583005461611458      2.4358670775069942
   168   1      13.037452621025574      9.0107511624988561      2.7038087172647192
   169   1      12.885697612435228      11.083289801465753    0.035143767501328034
   170   1      14.469500124385149      14.147928639702549      52.040961505669742
   171   1      14.578543672483095      11.665561297385592      2.6141723155701744
   172   1      12.727847322622045       14.99517753446564      2.4218332829202618
   173   1       12.94785260277563      16.704727717196018    0.096632552739388033
   174   1      14.448402200060871      19.512095617337497     0.37256320742536192
   175   1      14.145473539353997      17.324396280270168      2.8205701561495635
   176   1      12.784452436783342      20.476093058536811      2.9059381774781898
   177   1      12.827020736756591      22.164939433760516      52.070093768959254
   178   1      14.793720092956274      24.923188005933532      52.005646343540832
   179   1      14.787305323516545      23.022380946926429      2.3584504995197428
   180   1      12.466634832421377      26.024001834809145      2.0951124453553933
   181   1      12.886609085237337      28.107220318828755      52.050774384550451
   182   1      14.810329376274726      30.654233885459579       51.91901795750686
   183   1       14.26303505332632      28.850000090066747      2.6247689671883476
   184   1      13.061609863918861      31.554014757393599       2.465613689561061
   185   1      12.990700213478192       33.34932990726977       51.97950227167005
   186   1      14.313832689992754      36.207550379991567      51.914064048132012
   187   1      14.893947864594363       34.27632133279532       2.792687527999735
   188   1      13.189789034965395      37.078453255412093      2.5591429661746821
   189   1      12.798822771856274      38.669167818157113    0.086077048924751348
   190   1      14.639359125848728      41.676701253892816      51.820987881748216
   191   1       14.49592199994184      39.991682859052986      2.5062222555399205
   192   1      12.745955988495659      42.746012302105413      2.2625682403789296
   193   1      12.756791026029264      44.153886695871037      51.634068017849884
   194   1      14.580954119474743      47.059587526848453      51.941452354822609
   195   1      14.519792203229411      45.310184374588324      2.5719112025872906
   196   1      12.758523317557485      48.195658263038446      2.6858224152005641
   197   1      12.954018628672454      50.066997930669785   0.0064912296274890757
   198   1      14.607403189052937      53.044328034412324     0.22863568337926521
   199   1       14.60916437150548      50.677983628764196      3.0341687305945615
   200   1      13.122406139441544      53.579613804897804      2.7862307944995441
   201   1      16.313733628576351     0.25220960503679241    0.084573110375724556
   202   1      17.806295952493176         2.9175466683994     0.26452474308956775
   203   1        17.8499966067331     0.72826078110403358      2.6445887438961031
   204   1      16.001999815536028      3.7266058827414108      2.6160498195189938
   205   1      16.134028860678299      5.3952222040979585     0.17487843637410325
   206   1      17.541846402607934      8.2251454652281506    0.017694791327940315
   207   1       17.73938732348698      6.4559606007214025      2.7167400418082406
   208   1      16.186625430939483      9.0695424838702934       2.773892851649161
   209   1      15.866916409112962      10.810734552108091    0.019586508193160997
   210   1      17.813464787090307       13.85870515004552     0.15519509331252643
   211   1      17.697863412988827      11.859269858421756      2.5871512592039281
   212   1      15.785851695882126      14.898554842458489      2.6599088413616103
   213   1      16.125603041094493      16.463390981050278      51.943725561446918
   214   1      17.919475570249617      19.159201450831759   0.0096597766146425765
   215   1      17.537789101239394       17.41079027784588      2.4640127339499118
   216   1       16.27200535465521      20.106573367976861      2.7508339321141628
   217   1      16.383084398617068      21.917599606537728       52.10390814651057
   218   1      17.546569826139905      25.280824474998802     0.13107962553202404
   219   1      17.911097354699557      22.789278467956059      2.8427747410186597
   220   1      16.024310039422677      25.868637332070449       2.732196150227221
   221   1      15.952792517188701      27.729520840456928      52.058526508653763
   222   1      18.109715008078282      30.401355334809487     0.16151427521953518
   223   1      17.504623266640909      28.712661392813125      2.6151016788912709
   224   1      16.017239215011728      31.700821241430567      2.3891719803116684
   225   1      16.071599382611794      33.829045039498801      51.979117386640475
   226   1      17.680058692585909      36.342167396912778      52.048380392382192
   227   1      17.931556322632371      34.352690184754209      2.3840667223310916
   228   1      16.157492524473117      37.298314138910662      2.4664235483984172
   229   1      16.363235940725929      38.862165978073676      52.078945253058933
   230   1      17.826427731615169      41.793571008272195      52.023532212757637
   231   1      17.546988971905833      39.968854207777092      2.5952349739110945
   232   1      15.986180462746077      42.548726222154464      2.1967795541916879
   233   1      16.349607220652704      44.373882007893585      52.084242416943106
   234   1       17.79659702214586      47.268670383910901      52.123736391050237
   235   1      17.779303420272939      45.451427144565272      2.5405796152335567
   236   1      16.295720391168963      48.016400907733093      2.6909989230623719
   237   1      16.013460560924727      50.065134331432716      52.120527565819323
   238   1      17.706333500110183      52.831335152991493    0.013013493992322149
   239   1      17.724656777340215      50.907759636725189      2.4251401601057627
   240   1      16.282211645551268      53.576832969058813      2.6206539921836076
   241   1      19.209474106218316      55.462445008213784    0.072088580559913865
   242   1      20.952238290188884      2.8534139546467707     0.25670842296518365
   243   1      20.735493690289324     0.91866014027633935      2.4144324445292464
   244   1       19.29807939377741      3.7432205495004656      2.7810719639014332
   245   1      19.435975930780721      5.5337775746544615      52.087052927752225
   246   1      20.660396247973633      8.2110962972691333      52.040796253513008
   247   1      21.009022289185832      6.3413184582297095      2.8771672675105986
   248   1      19.372262542965792      9.2408975254377115      2.4552747660717067
   249   1      19.300161485721667      11.058077132499484      52.045131972785811
   250   1       20.67141366991385      13.992424386817007    0.030696738831396207
   251   1      20.691101271512338      12.284722380822476      2.4111931245754894
   252   1      19.091904431206547      14.893688084458352       2.383894891510133
   253   1      19.316990745502999      16.658498459950795      51.882083848014183
   254   1      20.809622444344022      19.337967683489005     0.19906881597398185
   255   1      20.813173307415997      17.207960140948899      2.7371015555070231
   256   1      19.372976596659061      20.201283587856043       2.777480445219251
   257   1      19.559310971474098      22.197361462138261      52.122774809485414
   258   1      21.105272798283863        25.0406841034881      51.947856989055069
   259   1      21.138624963521792      23.015084243825697       2.575819681909246
   260   1      19.339569142018426      25.819192807779331      2.5558522906747223
   261   1      19.394030757395111      27.805204903553481     0.11855373546991403
   262   1       21.19783329854743      30.364964718793061     0.13345663489968485
   263   1      20.836383481746203      28.492035409264318      2.7083222751546412
   264   1      19.479247902695885      31.141490333311953      2.7521781271279013
   265   1      19.316278274838268      33.187533694229259      51.534779521311883
   266   1      20.640954155016033      35.913242339497842      51.964372696308395
   267   1       20.70771301485961      33.890424294939216      2.2924425153565893
   268   1      19.139370328243494      37.241528630286886      2.3754962334745464
   269   1      19.074223640739476      39.107551208062482      51.922464073373021
   270   1      20.837053393333651      41.855869682735118      51.724004773686318
   271   1      20.675991148423485      39.969061411379677      2.2462638297238664
   272   1      19.024476820326434       42.75084779065751      2.3737817540826378
   273   1      19.170198844825439       44.62096396653407       52.04627267311529
   274   1      20.825457182607838      47.246892032835326      51.992040934668161
   275   1      20.943319326337651      45.816156439908575      2.6661906517736091
   276   1      19.423707103384952      48.240567577884072      2.6347011599374675
   277   1      19.425822000915872      50.023131004879993      52.021636486848649
   278   1       21.00414045230373      52.916663923660863      51.854291236153294
   279   1      21.091142295455978      50.848075283392618      2.7654506813989985
   280   1      19.573959943986296      53.693905032992184      2.4720522452952989
   281   1      22.441520727978062    0.095270513100327123      52.113775042484491
   282   1      24.291724198061829      2.5672530740450199     0.12537467518927012
   283   1       23.84545113326261     0.91995041145618728      2.8838117722813235
   284   1      22.625780690929815      3.6769928483930561      2.6907828578423358
   285   1      22.802770320873197      5.4301710386216131      52.005118348078071
   286   1      23.933605124610924      8.2941439367750522   0.0084289675184839527
   287   1      24.105622989819981      6.4821570183993265      2.3799893157780794
   288   1      22.317467248495298      8.9573115772848908      2.5070914218471123
   289   1      22.691647445310231      10.881218806220511     0.24624477187283844
   290   1      24.070295400842458      13.956414672403506     0.35175086582816417
   291   1      24.294612934925603      11.986908193212114      2.7933061332085138
   292   1      22.483765661233498      14.783385060125948      2.7327396189355504
   293   1      22.505987718603603      16.701330299642958      52.066220232267185
   294   1      24.143198217438552       19.51964084594319    0.082086006169442546
   295   1      24.049582629823814      17.627263670681977      2.6070487020551147
   296   1      22.453071299237937      20.058079616508046      2.6855437412795724
   297   1       22.46289518114861      22.103026917595574      0.1042086772429031
   298   1      23.968988120175275      25.042551405286282     0.13519972729639654
   299   1      24.320759638043711      23.228928570821786      2.8985909212108738
   300   1      22.392856806038687      25.806441179212531      2.4572159220592753
   301   1      22.593010013191851      27.887971173056822      52.037089346213783
   302   1      24.226900395244275      30.880716966115635  0.00045814021203095757
   303   1      23.947011617796417      28.621799781315186      2.5233528175658164
   304   1      22.800825021639575      31.226676693146363      2.5786595740309686
   305   1       22.71105708667519      33.306987783968175     0.31527624298934198
   306   1      23.932038122095477      35.955762475554671      51.745776543422139
   307   1      24.411462234180206      34.154971961663733      2.7905580839828832
   308   1      22.199644509175247      37.199612387402375       2.257014192986817
   309   1      22.224054825843275      39.026960017945051      51.718028211005006
   310   1      24.144146623841465      41.763692571785796       51.96889304986577
   311   1      23.954752188278682      40.088299365426998      2.5917749561800192
   312   1      22.065202008920707      42.767747381313718      2.5857298191155933
   313   1       22.12331790216254      44.274815194624487     0.16089075603762634
   314   1      24.379572455686166      47.100891865192601    0.073212626753981991
   315   1      23.865603630741138      45.186756795008201      2.5939546197141974
   316   1      22.773677876196768      48.326426999428463      2.4940119096033251
   317   1      22.618927935686777      50.013889954760181      52.054796460377723
   318   1      24.206313243291142      52.658145064520561      52.081598076732597
   319   1      24.311920853944159      51.213750385862745      2.5805644816918134
   320   1      22.272358213070056      53.827668662634601      2.5775129768709095
   321   1      25.811610967133838     0.14107312836016439     0.26244790302093507
   322   1      27.188196143948232      2.5416882425084517      51.923986715188413
   323   1      27.589354429168928      1.0752914470147024      2.4644158496072284
   324   1      25.894140073414015      3.4184234426815778      2.4955691149307673
   325   1      25.612020849043454      5.4417549823216529      52.019886369341435
   326   1      27.308281181174021      8.2121579111872514      51.933490605085375
   327   1      27.238893050033347      6.1582235472538089      2.3233355976894079
   328   1      25.579282520037623      9.2132831660868568      2.4695236067268924
   329   1      25.772398480181558      11.098953852924492    0.021765167036515948
   330   1      27.364892892841038      14.033160709264488    0.068554137596200784
   331   1      27.264050074299789      12.129105422985234      2.5332120688390805
   332   1      25.813942632453397       14.72427083915262      2.8712490218290387
   333   1      25.812903786329862      16.819819274741224    0.085980625944962308
   334   1      27.434555833576589      19.616102339479184     0.14128228206507004
   335   1        27.5495809187539       17.73129144301631      2.7884775899176697
   336   1      25.983503807511546      20.210850404351156      2.6655071068548111
   337   1      25.646209795206008      22.210626998728014    0.077979193302717797
   338   1      27.027863316049974      24.955121709261096     0.19329247922621817
   339   1      27.437598635925109      23.059379744625918      2.6831991936653417
   340   1      25.785756193564627      26.138299842096654      2.5468821515393771
   341   1      25.644779818025203      28.055566703678778    0.019319377258449795
   342   1      27.311703640319632      30.729202373114887      51.664679362892272
   343   1      27.231688593597006      28.993582975936746       2.572061435056574
   344   1      25.872039285776943      31.601820000941562      2.5296619003991925
   345   1      25.979870954520297       33.53915548352348      51.992797609402338
   346   1      27.245387567357295      36.417066294246041   0.0058220616006118848
   347   1      27.270911737618302      34.373480534263372      2.5196094859779135
   348   1       25.21478045752977      37.324046669387052      2.4254643512491865
   349   1      25.603907664307762      39.239731324470846      52.129043607582503
   350   1      27.207679692340125      41.752617510674774     0.30749629603425055
   351   1      26.994073072899159      39.930180659027066      2.8826792385229125
   352   1       25.43594109253922      42.606268875469517      2.6238929197589074
   353   1      25.693310999653576      44.560206416948148     0.21493264833838296
   354   1      27.402814140220965      47.469000025670823    0.067621035872733992
   355   1      27.398819185804804      45.503883037961586      2.5885651259501063
   356   1        25.8526801027683      48.646912742780223      2.6502031356596141
   357   1      25.746000827603137      50.105813164481525      52.052464311497751
   358   1      27.387865822455858      52.611233884282463     0.11046403329758595
   359   1      27.414228076856293      51.106063990088941       2.433827907026497