dump/Mg_700_5/steps_41 (written by ASE) 

3995 	 atoms 
1  atom types
0.0      32.100000000000001  xlo xhi
0.0      55.598830921999998  ylo yhi
0.0      52.130399999999995  zlo zhi


Atoms 

     1   1       32.04202416094904     0.14213179761939601      52.055250881421976
     2   1      1.8881759556235467      2.4657158593887596     0.13851872519918346
     3   1      1.2909036586178888     0.84786933581442114      2.8447545639599774
     4   1      31.787950561307103      3.8134547851977887      2.5546662020902526
     5   1      32.021361187736566      5.8511131770708875     0.10690039580507936
     6   1       1.724050002712842      8.4101348251211459    0.088493154831442489
     7   1      1.1191003259138026      6.5406960509233896      2.7436826087753405
     8   1      31.959339000058055      9.2899370412561453      2.6304338204379718
     9   1     0.19404845266940743      11.240929267293973      52.029459489704351
    10   1        1.50365731806237      13.872123172894563     0.14506945311332578
    11   1      1.4881620898867147      12.134692792056041      2.6780381161320697
    12   1     0.15304912008598545      14.754144047438377      2.6436403751262119
    13   1    0.020345111009840953      16.877748146857474     0.12803039661521085
    14   1      1.8570229624185397      19.509682358593182      51.903684499222152
    15   1      1.4801273458280328       17.43743628055778       2.626018410210341
    16   1    0.094242330789701498      20.291933602560999      2.7745082917238886
    17   1    0.028399365432692336      22.285109400540321      52.015641401287098
    18   1       1.606097696828106      25.081003298291154      52.065103822882591
    19   1      1.8779745437773623       23.12476301144665      2.5903949922374041
    20   1     0.20128973836075545      25.757053153943112      2.7108908839822861
    21   1      31.706630400873618      27.897786899371177      52.004664943100629
    22   1      1.5906287580481635      30.936230485773809    0.096931208020719251
    23   1      1.5968995891687339      28.719303744403167      2.4807953080009417
    24   1    0.028474075932833579      31.541767819234998      2.5556946532244393
    25   1      31.769093584669374      33.447399509815114     0.18630314964706962
    26   1      1.5306158639495866      36.076862741887567    0.045894944229351933
    27   1      1.3903705264476602      34.168402291312773      2.8803179792324913
    28   1      31.884109184387864      37.017434212473532      2.6263480338162086
    29   1    0.017385066815702527      38.708645395088531    0.052559102652365533
    30   1      1.6582422611461154       41.82431666642379      52.001114298421761
    31   1      1.2958994975392475      40.023714222546253      2.6498051467204538
    32   1      31.866623230944761      42.674755700330074      2.4192388306845634
    33   1      32.024064479860066      44.635352444015034     0.10442239260154987
    34   1      1.5938356956098296      47.281053942735575      52.072677837161429
    35   1      1.6908332789233924      46.006163023479495      2.4536523456753256
    36   1     0.14391669616721048      48.292181238358026      2.7151898673667159
    37   1    0.085233419839614008      49.992269616153919      51.859234214151954
    38   1      1.8040968305006631      52.704022663858858      51.968004877413428
    39   1      1.8387167283310113      50.887070992981954      2.3991796506810417
    40   1     0.20087796888224507      53.608961692426675       2.667493466841234
    41   1       3.144351860256196      55.363872544503138      51.677563697527354
    42   1      4.7918079824245483      2.6453961834598139      52.003763985109487
    43   1      4.3384631294217328      1.0382546537693023      2.2728764765506555
    44   1      2.9450067336321144      3.7527320635875885      2.5398996862451759
    45   1       2.885195924796621      5.2590869948367169    0.096862646234460503
    46   1      4.9506126182128369      8.3340845022721002      52.078879989934634
    47   1      4.3430059281127855      6.6679037997738888      2.6821074358082053
    48   1      3.0073971738512135      9.4873352926090746      2.7600530017492475
    49   1       3.454323002121876      11.105170285066116    0.090326619346582482
    50   1      5.0248857619853675      13.761470108497202      51.830802073562054
    51   1      4.8622127380893483       12.01147165407412      2.5660744409264415
    52   1      3.2790659591141438       14.84020598645499      2.8012355632752062
    53   1      3.0714935438143649      16.462827400744267      52.112949684787047
    54   1      4.6986671021430952      19.427075286668945      51.964829512916531
    55   1      4.6773418191055329      17.491160224432729      2.2800769944768478
    56   1      3.2048771470434896      20.099356374925353      2.5826578458497789
    57   1      3.2156824295858493      22.134380934003275      51.970987485702246
    58   1      4.6627721788862129      24.893331109076161     0.15269473543595219
    59   1      4.8949987381164126      22.770667060665488      2.3330814699139513
    60   1      3.0932494639240904      25.836535767818503      2.5811108484665088
    61   1      2.8468789230485352      27.972328421849404      52.001036998419984
    62   1       4.836353331965463      30.672721884700568     0.30128359118043974
    63   1       4.655181823775977      28.798058749376342      2.5782377784163755
    64   1      3.0817304982432252       31.60649882403651      2.6928876227199829
    65   1      3.3364826324063181      33.499476604487555      52.050901678289094
    66   1      4.7038658834461371      36.369130162851818      52.078371792076879
    67   1      4.7363988285364105        34.5004410165526      2.6036968305043486
    68   1      2.8961763103083764      37.363845023762821      2.8144933160592482
    69   1      3.3181559327123837      39.151288003244453     0.25121041350099466
    70   1      4.6941056503633698      41.793303212160907    0.092867701178306963
    71   1         4.9632032512377      40.161313366956222       2.624847296144198
    72   1      3.5151210712258667      42.909526402215889      2.4037395440471125
    73   1      3.1867139277019016      44.589984055122166    0.034576985134608357
    74   1      5.0085589014393284      47.127019944621445      51.851539037187855
    75   1      5.1474595657032651      45.606854659341288      2.5536951904278076
    76   1      3.4508008475834662      48.281901148205392      2.5437105259041712
    77   1      3.3043191151052662      50.035130572834248        51.8628320265829
    78   1      4.8612344189959238      52.713925974813471      52.083070908507196
    79   1      5.1314704982236901      51.023523663374959      2.5085649244467936
    80   1      3.1693631332477992      53.503928190157694      2.6471796539749608
    81   1      6.4563185773296166     0.27728012722182555      52.093855106708887
    82   1      7.8396140340548559       3.015307780743715      52.066067729494385
    83   1      8.0916256314031951      1.3266710243592894      2.6244535696913647
    84   1      6.1063908331907211      3.6871952465622018      2.4109157914097894
    85   1      6.0388276294068657      5.5154932762066684       51.94707704296021
    86   1      8.1636688340197612      7.8806620177173592   0.0036296860226624605
    87   1      8.0424028492722321      6.0750048698225232      2.7933598996950315
    88   1      6.0027947209238324      9.0698653959875397       2.530840295812784
    89   1      6.6780834802374818      10.759611634247126      51.868290072147019
    90   1      8.0326675930134162       13.89209115784471      52.013761755113237
    91   1      7.9204254850404334      12.278843799033332      2.3348809290548935
    92   1      6.2052092884069436      14.947706844527017       2.495822401621373
    93   1      6.3653265978231959      16.693720397070159      52.012770846665141
    94   1      7.7778738318237108      19.560406658890777      52.105366054290577
    95   1      8.1636212434666806      17.482851368548801       2.484662167642294
    96   1      6.3964471446468059      20.217495033749849      2.3782888602696435
    97   1      6.2749626892301924      22.072647496321292      52.013600281614899
    98   1      8.0206555978079237      25.036799510364006     0.26813805984783584
    99   1      8.0346469101359741      23.173677814015821      2.5968904194793168
   100   1      6.3384623751644789      25.862488474896715       2.648314523785916
   101   1      6.3585669536048774      27.851312647703573    0.021476978280240352
   102   1      8.0228064853497685      30.539690649277638     0.21099067564790219
   103   1      7.8562705343938006      28.596419607585759      3.0410853984246349
   104   1      6.4355483944222502      31.920352943180866       2.697709583159507
   105   1      6.4060549087030285       33.47963783259727     0.21128835354198239
   106   1      8.0371214315023298      36.004211044127757   0.0058744281375529613
   107   1       8.181393657980788      34.535336095621794      2.8351067445434457
   108   1      6.7076905491494321      37.189479088070847      2.7182830692569846
   109   1      6.7179402708277793      38.946908260747342    0.047914294083209651
   110   1      7.8075543931237554      41.532798488658329      51.851333367309202
   111   1       8.135613024549885      39.802028527328119      2.3671058200981201
   112   1      6.6338529005735163       42.61493516690129      2.8414318307484736
   113   1      6.5993371043034132      44.197347601200356     0.13818053760031232
   114   1      7.9128267539514683      47.411869566699011      52.100349322533368
   115   1       8.486705392179239      45.538640321090156      2.4271866344841873
   116   1      6.3342439043892149      48.197664129766181      2.4845463773569385
   117   1      6.3430774061531521      49.882610839110079      51.973808213629837
   118   1      7.9893657191003165      52.381830070162437     0.44162369245341626
   119   1      7.9626880787838701      50.835623782389973      2.8650857968069796
   120   1      6.6146382264339749       54.08109075642264       2.659141566328513
   121   1      9.5923090780214828      55.263612755822571     0.38398940099401163
   122   1      11.117787034918987      2.2921169538833506      51.812286444380049
   123   1      11.321362847768233     0.68898818381384563      2.6089741878611341
   124   1       9.900141647137783      3.7351443098447974      2.9702228491559399
   125   1      9.4781966211610928      5.4509695219843453      52.089745450480727
   126   1      11.119177703653236      8.2905021367153449    0.046919257613096017
   127   1      11.511469727749635      6.4732311617222633      2.7363929471247301
   128   1      9.4026664022337858      9.0016313643912564       2.679171073134357
   129   1      9.4808413018498765      11.071256974138111      52.068302995275758
   130   1      11.158230954535513      13.531429212188948      51.896018122242246
   131   1      11.102054554021272      12.000874400287122      2.7063852938991229
   132   1      9.8422237471602791       14.84895887059522      2.5896990087846699
   133   1      9.5302294213109491      16.518129143136434      51.884439959040513
   134   1      10.960627604013508      19.481836493721101     0.28797225325015663
   135   1      11.172992364670115      17.639429399971178      2.7227437572985256
   136   1      9.4758750475463582      20.266455989895775      2.5861182216446417
   137   1       9.355746732865601      22.384711479433463     0.18764197611610972
   138   1       11.11636990459818      25.041139305404698     0.42544188910450154
   139   1      11.335451385147248       23.20658641235082      2.7452715086951973
   140   1      9.3817708218164526      25.983580867517222      2.9088684917146321
   141   1      9.4887976699344456      27.752707450590599    0.090041551903520048
   142   1      10.999470135145149      30.385339253094955    0.030574821694575795
   143   1      10.941605362952325      28.810445643172727      2.7133144906606552
   144   1      9.3369642644994091       31.47510050417333      2.5642530572903826
   145   1      9.6804003173252333      33.328651098840524     0.11946672909990358
   146   1      11.222100348547178      36.298099728199276    0.071766089314195591
   147   1      11.421482707376295      34.216887094302486      2.6674656571315589
   148   1      10.093631051225332      37.195366914831382      2.5228624383138105
   149   1      9.7968308863322608      39.059620441879716      51.963075984614242
   150   1      11.358804728156516      41.648733124274813      52.058320098061273
   151   1      11.416385566185081      40.099237130545426      2.6402760984731208
   152   1      10.097035119557239      42.911101586433723       2.519507527526486
   153   1      9.8574350809714595      44.350589994717154      51.960861042364975
   154   1       11.11812522261865      47.196798423443731      52.022388476184503
   155   1      11.503168586692329      45.658230897075853       2.797440208089617
   156   1      9.4470017680098497      48.331954314773895       2.457984134949605
   157   1      9.5757696261824954      50.061127176261188      51.980426673564196
   158   1      11.135523187921686      52.788297150160069      52.094017574734025
   159   1      11.490913875228134      50.846153029248093      2.6235194394108978
   160   1      9.6836145779157299      53.746336394605628       2.956417603216722
   161   1        12.7886129249229      55.385326707018464      51.952569720425707
   162   1      14.245157815473075       2.312727661986798      51.988475647108302
   163   1      14.349142797453494     0.90465798097302752      2.5670453584398674
   164   1      12.779227454858617      3.4816883437943162      2.7262786543656117
   165   1        12.7905109432469      5.1545470841419698     0.32303908410590093
   166   1      13.908490114438587      8.0823516661186723     0.51589278247816661
   167   1      14.420564166975378      6.3050876260706454      2.9281450418547159
   168   1      12.625191443715911      9.0257167624402079        2.95716928305086
   169   1      12.613772800312768      10.947687802077818     0.31459210739597532
   170   1      14.296071471176749      13.977977821181778     0.39572014855921117
   171   1      14.204080650062552      11.734645028136462      2.8920921747804234
   172   1       12.71995485902044      14.485762714625833      2.9820720958739892
   173   1      12.907331979527688      16.508918105455088       0.666841274927085
   174   1      14.537998230365901      19.230187564304508       0.248546285615416
   175   1      14.401107136490367       17.53025256513364      2.7657639607860283
   176   1        12.7462891453034      20.298042993445861      2.6379755598182961
   177   1      12.613129733796246      21.944741814073961      0.1365250338927321
   178   1       14.57316211493935      24.970141695402404    0.094568464552731726
   179   1      14.454478097632222      22.939112743268055      2.6367022329691716
   180   1      12.563990757299134      26.060045525153431      2.6931476976165363
   181   1      12.709352930506167      27.596238738290573      51.950733697737228
   182   1      14.423167722174663      30.726873439870392      51.692552975274864
   183   1      14.028183161368281      28.590270449368646      2.7254204938690152
   184   1      12.560983865588259      31.509044827094584      2.3742482184998539
   185   1      12.571342952273458      33.414639302096944       51.82651160464254
   186   1      14.475534312877963      35.851024483774765     0.11603243314056505
   187   1      14.376822381396053      33.985404221553601      2.8411522910606926
   188   1      13.166198195840835      37.060729405931291      2.6729600966493563
   189   1      12.936912992795556      39.385759760982033      52.086997746885011
   190   1      14.754836396086452      42.040301837947581     0.06406663427696406
   191   1      14.692887736389954      40.008008969237217      2.7715301901215224
   192   1      13.080393327319756      42.537810651543573      2.5970190380516103
   193   1       12.85585887368253      44.544162337864812    0.085324482053470804
   194   1      14.627458687605063      47.119971212421142      51.923108759252962
   195   1      14.780627905209846      45.245216699292499      2.2155750391890536
   196   1      13.107253824775654      48.262122721166428      2.4010506482605343
   197   1      13.086078870801865      50.006089813791938    0.075015539052910807
   198   1      14.553652731604968      52.738083626350452      51.986234019215509
   199   1       14.61646176430512      50.875259860696211      2.5802410085724521
   200   1      12.985047161165946      53.532670951075204       2.455030955753144
   201   1      16.100927365667236      55.216467647361576      52.097728996874643
   202   1      17.592557005792635      2.6622059331832686      51.909095619960148
   203   1      17.911758553196186     0.86796917773700921      2.7292944099574585
   204   1      15.783262620023708      3.3689517830283253      2.5093441089219417
   205   1      15.838024184054667      5.4673454229929659     0.25006039816732106
   206   1      17.487063094830422      8.3124615290954385      51.949550753869865
   207   1      17.399143179622307      6.5240759808128059      2.8802550732503454
   208   1       15.92729641435483      9.0016667061513562      2.8033981766329132
   209   1      15.825415591017919       10.95259217611969      52.128023090473796
   210   1      17.313598497476097      14.074355340057073      52.025649906510431
   211   1      17.332112907868673      12.026972897582354      2.5040112113836543
   212   1      15.677872273623894      14.542485141790413        3.14319806942826
   213   1      16.068227691155776      16.591163852564996     0.16250149409698333
   214   1      17.948377088765415      19.455836043750306      52.086214569587035
   215   1      17.532377625151543      17.749466621840604      2.4988378227489174
   216   1      15.918503653128971      20.421000002303799      2.7526462515512833
   217   1      16.034938047582749      21.888102280647026     0.10920366934490842
   218   1      17.541153160132556      25.410807813182412      52.011053767649663
   219   1      17.608668514285185      23.231743792751828      2.4720419423190489
   220   1      15.777084511790603      25.833422943948523       2.494479008468538
   221   1      15.574579159884086      28.058400634019353      51.889951085085237
   222   1      17.596906997168407      30.587673395961829     0.24081983675160978
   223   1        17.2719610988471      28.454593646229913      2.7592242798304474
   224   1       15.81133966805009      31.159041063036884      2.4824097623092616
   225   1      15.738111251116539      33.313295492154815      0.1472670536299775
   226   1      17.570085203308906      35.962126770268945     0.23997285516799433
   227   1      17.597771868540224      33.889034272913868       2.807405689747545
   228   1      16.266491327841177      36.718185782128081      2.7463217286816937
   229   1      15.971207549999201      39.012016841749791    0.021618136599925477
   230   1      17.977204401748619      41.516066117492407      52.088791579125569
   231   1      17.784629588469326      39.382592412087078      2.8610354968981664
   232   1      16.155578685764258      42.529161175148076      2.7352784660704206
   233   1      16.352846821330498      44.670587063045595      51.848291793855637
   234   1      17.813289314460238      47.252063346784439    0.067517662359055347
   235   1       17.84008377696961      45.161008025060013      2.6233262103538251
   236   1      16.257076293887376       48.09078544809207      2.5983320431652546
   237   1      16.106783756764223      49.919313079473028      52.125102151932282
   238   1       17.77817681716261      52.598509378657319       51.83244826935654
   239   1      17.990277735998784      51.016592552803623      2.6972329806957305
   240   1      16.246076600670662       53.74532129656933      2.6996876779157426
   241   1      19.258181658829326      55.457082524677674     0.10497640602378375
   242   1      20.550449748164944      2.5424340875458284      51.873785758232565
   243   1      20.991063025025674     0.95686444917918489       2.340775477399776
   244   1       19.34942573645742      3.5478191041441316      2.9651256645219446
   245   1      18.959764508479584      5.7128096900369139    0.044074387416787035
   246   1      20.495582741960416        8.38561872157333    0.037237949207753071
   247   1      20.577296209529699       6.432161640123681      2.2687083365261955
   248   1      19.094381461273034      9.4396727442904247      2.6676600517316831
   249   1      19.116003642555597      11.045039231689652     0.19000250948238517
   250   1      20.567649893007541      13.518503972710542      52.009718178307324
   251   1       20.61731953754899      11.877906501720675      2.5147280624079777
   252   1      18.975015947258477      14.784299433734359       2.554696297073876
   253   1       19.11954062571759      16.344661767549766      52.096742128501688
   254   1       20.94433936469499      19.627206985593489      52.091081842984856
   255   1      20.506422986689561      17.746036301663274      2.4112232552487423
   256   1      18.887914557303887      20.515728556752865       2.445241105600561
   257   1      19.001206754496323      22.361558558516535       52.10878022290408
   258   1      20.569001004636025      25.006139928393168      51.819642687534603
   259   1      20.708837844737374      23.179356127368862      2.5501003234222104
   260   1      19.121167446662067      26.026415421555267      2.5852315139041346
   261   1      19.299352833868987      27.825850469290113     0.08128543224723897
   262   1      20.851401924869091      30.487820566173873     0.12088929062005326
   263   1      20.694076848216184      28.534599273471908      2.4248870515254763
   264   1      19.371585766357232      31.558160582224907      2.6275896691724934
   265   1       19.06091878711478      33.153973560488865    0.015227110041882203
   266   1      20.790751328743699      36.178236941319874      51.819252789736453
   267   1      20.863657991627957      34.344580073866396      2.8272713929408995
   268   1      19.312209046810935      36.950692720765652      2.6935139005404727
   269   1      19.100089773194696      38.704029300110641       52.07822950874575
   270   1       20.70076165974324       41.42466661234851     0.37559495388978437
   271   1      20.885331758623241      39.761824812837872      3.0096670246397528
   272   1      19.318504161529038      42.603709846595812      2.8887058750738519
   273   1      19.305651358457133      44.610517525250259      52.006966259284958
   274   1      20.917543825139074       47.36043651222495      52.002998820792975
   275   1      21.125823063212813      45.033231985153328      2.4650773580548591
   276   1      19.543698645597974      48.089177358677418      2.9514053755442138
   277   1      19.089916705148031      49.909548808466589      52.027473272929811
   278   1      20.754487173733256      52.537587947175993    0.083276321669147044
   279   1      20.924888834391218      50.709994546186927       2.324959459372987
   280   1      19.454739099003387      53.457904126154425      2.5464436777513328
   281   1      22.579940034385295     0.19457059000501931      52.116121443378255
   282   1      23.907298167276814      2.9438297128046278      51.899649411171815
   283   1      24.114621282124997      1.2719443893261446      2.4047951107330801
   284   1      22.249574040815876      4.1100726927840157       2.497910380847753
   285   1      22.053565777085524      5.8347512405318716      51.869122381605145
   286   1      23.972920771719501      8.2218454455822219      0.2520203642649167
   287   1      24.076573009534833      6.6506464545499204      2.5882241534462271
   288   1      21.948212310057205      9.1658204964982062      2.8949955500759814
   289   1      22.383331959814051      10.960579374443471     0.14565308608619273
   290   1      23.620313523113804      13.727339014093754      52.043533741717866
   291   1       23.72942537603781      11.745198097577507      2.9402737900225064
   292   1       21.96890488092296      14.570188759114179      2.2065945220474612
   293   1      22.116827264211736      16.439448053239744      52.078144488299166
   294   1      24.172149996475916       19.21161950937098      51.786858922200778
   295   1      23.973190880396487      16.708426507951511      2.4401676374519012
   296   1      22.153946856286282      20.302834268727832      2.5942272391408561
   297   1      22.354657326154697      22.354838948553745     0.18565253962704795
   298   1      24.178988696384849      24.932104168580359      52.015107588320518
   299   1      23.814897928794363      23.040683743363491      2.4271450477018131
   300   1      22.443193979618108      25.961628652051115      2.7081939381641349
   301   1      22.455755521081191      27.591746915947823    0.037121718698978914
   302   1       24.06100531308018      30.490513763266076     0.10686907486325041
   303   1      24.249828894874494      28.251018643149504      2.4104722032841366
   304   1      22.416447359809816      31.199889858226779      2.8593209930296437
   305   1      22.525951554629948      33.184444175801396     0.11625552806713903
   306   1      23.968999575674133      36.137708028168312     0.19177431036639161
   307   1      24.123042092136355      34.157187250475161      2.7017798767499386
   308   1      22.569604967880466       37.08736717469251      2.6892181459589217
   309   1      22.337657439733757       38.92501451915934      52.020289478192112
   310   1      24.069205557638625      41.635226119490937     0.11637418280945343
   311   1      24.135287358665938      39.510239785883783      2.8093413070749982
   312   1       22.82169891393734      42.282086693687503      2.5739620441562407
   313   1      22.441903484684186      44.236814702116924    0.028685081763191029
   314   1      23.956740753949877      47.061863568775259      52.069986869894898
   315   1      24.294974678404277      45.348850770601629      2.5737780691963072
   316   1      22.542506242633408      48.014117640266001      2.5009463061216874
   317   1      22.511959386164985      50.008765397523824      52.055767849895638
   318   1      23.890530211592079       52.67140229445716     0.16877498612365816
   319   1      24.168203932196587       50.75227395473371      2.5545343886030465
   320   1      22.475400216096933      53.946125318928004      2.6936531547397977
   321   1      25.632194876876657      55.504910213440439      52.017982064134145
   322   1      27.436456167937116      2.7960471027735974     0.13090020210172459
   323   1      27.195640207556103        0.87435434175366      2.7285334599711857
   324   1      25.790201449032729      3.7946136777107244      2.4068725092892413
   325   1      25.604726093400991      5.4606326385804138      51.923731500937983
   326   1      27.377381217890651      8.2519419375115373      52.074923116612013
   327   1      27.353324239126351      6.4830001776746524      2.6452097590495316
   328   1      25.622763778480582      9.3013227809115158      2.5410362212717303
   329   1      25.499332232686818      11.114704194152063     0.14624221963522463
   330   1      27.369080308672686      14.069495745646552      52.009883997076876
   331   1      27.382304019417226      11.606372916958788      2.7288987577879555
   332   1      25.539216185706227      14.198677777251001      2.1448276100621704
   333   1      25.519521016634695      16.650490233108677     0.15107360272269366
   334   1      27.415443596489741      19.292993920703701    0.019268362891316594
   335   1      27.142127203836228      17.914917693751999      2.5569752277523272
   336   1      25.729384756279362      20.272989689087304      2.4521299813583424
   337   1      25.684543183692131      22.012676350204249    0.086413636073260969
   338   1      27.218556339387145      24.929353258451364      52.046235263699323
   339   1      27.158370454218446      23.132539019338907       2.402374760303402
   340   1      25.673013366063387      25.642682871329079      2.4859991649794884
   341   1      25.658916161984074      27.680727692582671      51.755514777877117
   342   1      27.659995616886853      30.494614854804166      52.103330982670563
   343   1      27.129375028809928      28.646534590898909      2.4676572390021851
   344   1      25.561866759487103      31.366999324964393      2.8385963946324142
   345   1      25.702820924594089      33.055873337040566     0.13686219532892505
   346   1      27.047384891485738      36.190947659250753      52.083038468753074
   347   1      27.316249526282036       34.40181769912779      2.5036110978449724
   348   1      25.709280867521858      36.686155889194403      2.6930862728783187
   349   1      25.611546508830916      39.055345882161276    0.015300604404682035
   350   1       27.54801010744734      41.615911656711013      52.050199910049976
   351   1      27.254544914622482      39.717090311269558      2.3814764871429386
   352   1      25.744329432229254      42.517648840095028      2.4536434002738918
   353   1      25.720791824906723       44.44017883791328      51.984631089885681
   354   1      27.270000988427064      47.122793545382905    0.025574857385254213
   355   1      27.146902407062019      45.336939980563955      2.4997460804390434
   356   1      26.020398593262911       48.19959693111101      2.3172223457176444
   357   1      25.831473504028786      50.074756995553727    0.079957103547974959
   358   1      27.265680525348717      52.716592121950931     0.02722624539505247
   359   1      27.232327623614065      51.044672088203669      2.7034012150074669