dump/Cu_560_0/steps_1 (written by ASE) 

2000 	 atoms 
1  atom types
0.0      25.526554800834361  xlo xhi
0.0              25.5265548  ylo yhi
0.0      36.100000000000001  zlo zhi


Atoms 

     1   1     0.10552616070842449     0.04713692807706079      36.068600812802508
     2   1      1.0360490885349243      1.2133807965479315      1.8940966318741865
     3   1      25.425168159302025      2.5496182990808252      36.041428730099021
     4   1       1.264164024149526      3.7369738424474672      1.8310163920130191
     5   1     0.15265317726667102      4.9970185533422633    0.010601612897903564
     6   1      1.4199925010382424      6.5319762805212749      1.7907806435362537
     7   1      25.492059910520915      7.7726313753309437      36.039280394473437
     8   1      1.2216887332189634      8.9454455570803884      1.9511824110934168
     9   1      25.394321127477564      10.131421717703454    0.090847615092377584
    10   1      1.2112104275877114      11.521338861792715      1.9639174894388574
    11   1    0.012003989893916068      12.647194167050841      36.062535262948387
    12   1      1.1409559297861691      14.028999565515019      1.9530370390143974
    13   1     0.15303971743926245      15.314641457633643      36.088516661505089
    14   1      1.3986201701169065      16.565854204052297      1.8236054952021172
    15   1     0.13905613492906257      17.816580001510655     0.10439516739006641
    16   1       1.318770509848681      19.294868206544137      1.7899501126214556
    17   1    0.029580834376317956       20.51867330349112      36.034103785141184
    18   1      1.2328948772828034      21.800224216102361      1.8292123372357665
    19   1      25.309852909354014      23.057703086283361    0.017207929765470448
    20   1       1.175392791741277      24.100630779629427      1.6541737078631509
    21   1      2.4524001489467664      25.499112854007198      36.022183643619414
    22   1      3.8305643602671764      1.4441634238801258      1.8077900447522763
    23   1      2.4801169206289813      2.6220962433520039        35.9328499349457
    24   1      3.8696647763374483      3.8841983751618891      1.8434479348200732
    25   1       2.654668871365593      4.9604879499362289     0.13013186514426719
    26   1      4.0912764925802341      6.4120733921410444       1.829404462301466
    27   1      2.6623723754656279      7.6625298583696875     0.12319511599050668
    28   1      3.8419935336630724      9.0297871228866828      1.7972089057594207
    29   1      2.5647630286645309      10.193495077539945    0.086652618711434537
    30   1      3.7401720495278559      11.500471808932494      1.7219050418835207
    31   1      2.5788657975921172      12.652782553092068      36.075977021407759
    32   1      3.7535752964298958      14.070272625046615      1.9605989664703309
    33   1      2.7017253603775115      15.379134277044759    0.096563018515553267
    34   1      3.9744326451750394      16.767674781284935      1.8709672547832839
    35   1      2.6966791076766623      18.190402155242566     0.22313113224173547
    36   1      3.7324480662402846      19.184832693639947      1.9062736165857685
    37   1      2.5285922224762989      20.524632341644338     0.20440740346657546
    38   1       3.823927493001833       21.79904470049226      1.8892166563758799
    39   1      2.5537202909245327      22.942983842303111      35.970578140480782
    40   1      3.5895813554832134      24.329268954718138      1.7856531158170574
    41   1      4.9080297175257366      25.518675905580587    0.026524868221258643
    42   1      6.5542545326594572      1.5873501489566659      1.7308265098219184
    43   1      5.2064769312469164      2.5439424223309275      36.005409062022984
    44   1      6.5315072459272923      3.9074254055547697      1.6229031062540331
    45   1      5.2179337876549514      5.2019669719085835      36.049854324529313
    46   1       6.475744583422701      6.3892484245340659      1.7721629515289903
    47   1      5.1698141861768834      7.7346095759163793    0.020098095398736863
    48   1      6.5657170689241511      8.7973399518776336      1.4817113965382205
    49   1      4.9902946970696771      10.369378011361706      35.989175405617978
    50   1      6.5288754810318963       11.57777777661083      1.7339066666993748
    51   1      5.0009984999917441      12.843510167335713    0.073409875177787881
    52   1      6.3801115554251311      13.997665152210772      1.7425654740043337
    53   1      5.0826698394833159      15.159366181029347    0.022200761067335865
    54   1      6.4289932139532509       16.59865118502719      1.7352808940586999
    55   1      5.2284053170500711      17.862893266445308      36.063793095625257
    56   1      6.3413013839220973      18.986894198071486      1.8366559073859443
    57   1      5.2116974378747027      20.348176670541488     0.12053141457737394
    58   1      6.4195039057685817      21.711227555036405      1.8436252613323854
    59   1      5.3066528012969192      22.882108933910704    0.091727956318686743
    60   1      6.2216635775785605      24.198723171598562      1.7510707332289022
    61   1      7.4911471789783386   0.0034217265683825116      36.096360382371607
    62   1      8.9278225677982768      1.0550198742146919      1.7268891683756009
    63   1      7.5995327395977679      2.4912571909397734      35.973613076169656
    64   1      8.8079194261188469      3.5954056773000396       1.616939619306164
    65   1      7.8494036009630417      5.0496806529046481      35.922202260947998
    66   1      9.0398675333034433      6.3506901358883816      1.5921379954795729
    67   1      7.7430188786324807      7.5158442421760796      35.894858599800209
    68   1      9.0951769880952362      9.0072520699234637      1.8516010831948615
    69   1      7.5982861952980238      10.376348911321443      36.049511739774097
    70   1      8.9174774212681847      11.578160086506891      1.5914871237009509
    71   1      7.7200654884104658      12.758714805040471      36.025218096972488
    72   1      8.8245951498308752      14.009626727808142      1.6857578398359456
    73   1      7.5537384884402572      15.128762013545167      36.068530090239896
    74   1      8.8086346945886476      16.650021299347141      1.8444554277584182
    75   1      7.7910452775386769      17.838046918129624      36.067556415301603
    76   1      8.9232388629637676      19.114065354483724      1.9567941671116711
    77   1       7.769484237772855      20.446430316553037    0.040948501034051767
    78   1      9.0942039148308478      21.732892676222669      2.0651209594569524
    79   1      7.7506257662115807      22.729028139344376     0.36753200668959907
    80   1      8.8753130030334297       24.08262468791596      1.9753900554543311
    81   1      10.346608485808027      25.379921320958779      35.786711875800144
    82   1      11.398361589393394      1.2079018985029426      1.7175575940117034
    83   1      10.176079774241133      2.4859555245052074      35.943472174189097
    84   1      11.493809349321939      3.7772729487572576      1.4998636821876274
    85   1      10.318947670441098      5.0255437584374691      35.847864004976941
    86   1      11.455685273877629      6.3797964768593207      1.7392924038738673
    87   1      10.323736532685173      7.6315849545375389    0.031938304202708434
    88   1      11.514317294707524      8.9157719956458337      1.6694200613915555
    89   1      10.199369994198381       10.16274073671649    0.078190932678216821
    90   1      11.501229625370538      11.264886940007806      1.8239004364211604
    91   1      10.361282258191164      12.733416772205084    0.021269341926472399
    92   1      11.514417867912888      13.987355937180116      1.8264539261184598
    93   1      10.280095193308542      15.459536503057217      35.990630819190322
    94   1      11.280330782749733      16.762525217937348      1.7924081497241664
    95   1      10.124550760914804      17.992468014192475     0.14214464120032064
    96   1      11.190447245154932      19.247725110958534      1.7512067557285269
    97   1      10.199193708885876      20.615098775685592     0.10750221133376973
    98   1      11.615555779597509      21.764928351759639       1.888730750027356
    99   1      10.043524251781559      23.052729342207815     0.16010646505875462
   100   1       11.46396509774344      24.210772289705915          1.725533636892
   101   1      12.796429213566892    0.010837573910791369      35.968224292558396
   102   1      14.120847486343763      1.2614981582467364      1.8571392623920824
   103   1      12.835139327982501      2.6063269450201214       36.07672515041714
   104   1      14.059016661662527      3.9691099182038165      1.7662592168284494
   105   1      12.773743334787889      5.1306948329876487      36.059649787066348
   106   1      14.041204969677338      6.2651562065437281      1.7087885897205077
   107   1        12.8017518128263      7.4584783949893509      36.039682223001201
   108   1      14.235171262435719      8.9840020808022825      1.7084702826500935
   109   1      12.817983000771356      10.267736815766659      35.971197671330934
   110   1      14.033243105716631      11.535664196907696      1.7146863752852248
   111   1      12.804945468992956      12.868940157903019      36.035426240279818
   112   1      14.056212475358121      13.974474250124176       1.705567476884893
   113   1      12.902593328373174       15.29631088846619      36.005492975959029
   114   1      13.955018785136778      16.643612520064362      1.7192211934647061
   115   1      12.679378833736846      18.011737432321709      35.989719785927825
   116   1      14.074558570337551      19.272351306748117      1.5934371039042263
   117   1      12.854737906829969      20.490844521853756      36.092784679236296
   118   1      14.132834604341399      21.633384394360625      1.7088062020782548
   119   1      12.610028925166546       23.11154503153309      35.920594982774439
   120   1      14.046590314497971      24.213454667321344      1.7205599140423027
   121   1      15.368624592523284      25.525463424990054      36.018880250447822
   122   1      16.646256519086066      1.2526111543817675      1.9687622874146549
   123   1      15.157143126075709        2.58668091463224   0.0026537202626855123
   124   1      16.535164776882404      3.8875675189387331      1.8790776388632922
   125   1      15.484632660379143      5.2267194987009367    0.016954954299262692
   126   1      16.416113036342374      6.5310711443757707      2.0132796096797723
   127   1      15.272391462600007      7.7310453202342986      35.938655497224907
   128   1       16.67163024727019      8.9293874764287935      1.8242080305399768
   129   1       15.36887987764778      10.155595931184077      36.063377297667707
   130   1      16.534742505706387      11.423495146243395      1.9266084789150226
   131   1      15.348967813975642      12.675935314474788    0.030125785632742447
   132   1      16.532828323965774      13.985681403813746      1.8827436628637781
   133   1       15.40036776236615      15.454204054598792      0.1143212417502015
   134   1      16.502587911208195       16.65200818992124      1.7929771466616453
   135   1      15.361362114772994      17.926877310549919      36.084301940565261
   136   1      16.627589730683514      19.131486859385952      1.7301841708874011
   137   1      15.489389922797702        20.3404474455523      35.850114484700086
   138   1      16.720038710511112      21.931299181037485      1.6866245629655618
   139   1      15.316582586568604      22.857033096412323      35.862252095345475
   140   1      16.568319952365634      24.266330037501966      1.9070417869285949
   141   1      17.907647518535214    0.036798052577177692     0.09835147763391193
   142   1      19.040666582257806      1.1795020914445749       1.738742762052869
   143   1       17.71385284255064       2.625108292950753    0.073676771409475525
   144   1       19.12894906537133       3.706385430316788      1.8511034961779056
   145   1      18.018432982852691       4.858505921111723    0.048170051698809849
   146   1      19.102161609959097      6.2800818810810064      1.8270057298124587
   147   1      17.942305551728804      7.5233829264615775      36.074111185035505
   148   1      19.125612602418592       8.887091170065851      1.8960215198591179
   149   1      17.780078476171358      10.117686013946141    0.065454136366884061
   150   1      19.167359906434047      11.530783531086708      1.8042442300672874
   151   1      17.800566145381151      12.703845866414028   0.0010499941647481143
   152   1      19.036778675199866      13.924233458516875       1.898363874930816
   153   1      17.916681447467788      15.171623419899522     0.15718390756966311
   154   1      19.088755990995978      16.467456573127823      1.7895645736401091
   155   1      17.744035214932559      17.702358623823923      35.882400883706985
   156   1      19.124005880663873      19.134005923615206      1.6762544792579444
   157   1       17.90926376540164       20.44252678231005      35.896167911156496
   158   1      19.086127602186814      21.605232130228519      1.8868044565992463
   159   1      17.817248455579882      22.999832633913286      35.789792128896053
   160   1      19.178478715669023      23.918822961855497      1.7613830835550062
   161   1      20.471511978166927      25.479746387380683     0.21150204227080863
   162   1      21.607969789724869        1.41821580721973      1.8059856929575733
   163   1      20.406806562512848      2.3086424880941103     0.12404782358288477
   164   1       21.58908488359166      3.9018611989183003      1.9202169913351899
   165   1      20.557435083484823      5.0754289661776575    0.085663403478486166
   166   1      21.584618513543809      6.2986520205318079      1.8401680664781224
   167   1      20.494165604418292      7.5640786247021641     0.15000073209597536
   168   1      21.669760034015081      9.0621437831586835      1.8382653875438675
   169   1      20.428193679128377      10.122848569795458     0.20133930831455024
   170   1       21.63676620329478      11.618921907126223      1.8383191578020974
   171   1       20.40430689607479      12.703702508627618    0.055486840227808747
   172   1      21.659826706741434      14.116919058679622      1.6949418751176035
   173   1      20.297192341327431      15.179766150438322      36.004924252805715
   174   1      21.727855777383933      16.612848864306024      1.8951741047268689
   175   1      20.360937447466078      17.783794125674021    0.040378860500629922
   176   1      21.676368126732331       19.20232710370988      1.7609120799012763
   177   1      20.382609159846851      20.455539973394067      35.978041392759664
   178   1      21.849716540646753      21.845609474924807      1.8147972869922908
   179   1      20.434099276213932      23.029564658410429      36.074490413677587
   180   1      21.882434100751837      24.382522888368509      1.9280898105173156
   181   1      22.864396640418914    0.064997293239742099      36.096118533568223
   182   1      24.142312511722185      1.3597892761073449      1.7775370615196155
   183   1      22.813582647099022      2.5691736698644623     0.13646219310056709
   184   1      24.373061552852612       4.009603214968136      1.8183359305636364
   185   1      22.943465933916769      5.0529876878583018     0.14169462495598301
   186   1      24.379462147142249      6.5136048469843377      1.7136939603973367
   187   1      22.900698212105461      7.5937502370469785    0.092358246106823652
   188   1      24.182874028572321      8.7795352028103526      2.0308019886008428
   189   1      22.947097533829545      10.073892174610609      36.064084468758608
   190   1      24.002549021399048      11.449497565794324      1.8268867887074163
   191   1      23.009640431946412      12.878892780267535     0.08018134219255442
   192   1      24.069077099433116      13.978515686029182      1.7801253946661078
   193   1      23.052024476217539      15.412980392369379      36.087349953511158
   194   1      24.480904220965368      16.643666595537017      1.7276532441286694
   195   1      23.001400949738752      18.070506853279436      36.081065422482276
   196   1      24.187314518165365      19.044295080371459      1.9077808460976819
   197   1      22.901617405305576      20.483976779281658      35.913731756712956
   198   1      24.254363896391503      21.717248698283708      1.7394356580594699
   199   1      22.848017932190821      23.058019264952332    0.075104423503285167
   200   1      24.244636127077673      24.316489642745807      1.7504983689883156
   201   1   0.0074982859712124615      25.281393642292983      3.6211367404816253
   202   1      1.2447611452956586      1.3171599148434652      5.3783418514739116
   203   1      25.485411591244514      2.4678205536934352      3.5829095781940725
   204   1       1.196440973297991      3.7671242047801372      5.4301624598206093
   205   1       25.52393574862953       5.278403516228793      3.4120742099588264
   206   1      1.2415419434585748      6.2234924064714106      5.3294378408960048
   207   1      25.519487852066625      7.7353205315206912      3.6964980037313522
   208   1      1.3086088351712177      8.7836801019163584      5.2395593062282453
   209   1      25.294638914067857      10.239675803993586      3.6666444355724499
   210   1      1.2152262362114401      11.457878957786718      5.3451044916498196
   211   1      25.342063996006178        12.9305210558417      3.6977830140567085
   212   1      1.1411743983262173      13.994489198743313      5.3003169961974486
   213   1      25.247827766430081      15.426438398108623      3.6425748946349978
   214   1       1.151871119044968      16.686495440854376      5.3790193502833192
   215   1    0.069227079822540782      17.966137449693644      3.6549261659640457
   216   1      1.2419179779165936      19.085744479521292      5.3923110096246081
   217   1    0.014076363579131035      20.519955778692079      3.4567605662936094
   218   1      1.3285225231926459      21.645519604875442      5.5267052754245221
   219   1    0.096957682052753819      22.969875208969086      3.6293793881248861
   220   1       1.167250264817584       24.21511988337322      5.5894528590520531
   221   1      2.4747331750579571      25.450045103343012      3.5322409455156851
   222   1      3.7617432019829686      1.4920988426045212      5.3111213253975231
   223   1      2.5534536216545076      2.5517974354337287      3.5562866741090837
   224   1      3.8429222107660199      3.9642836698252979      5.2874148862564008
   225   1      2.7925951595472913      5.0750245517174601       3.507055125436251
   226   1      3.9655319387908063      6.5379287743601724      5.2522993773774598
   227   1      2.5056377000231045      7.6266751005096971       3.688351897876625
   228   1      3.8663339479319387      9.0445542694442196       5.430166714921544
   229   1      2.4967272205280784      10.196230578920744      3.5527914849401685
   230   1      3.7932945829663485      11.377392821507193      5.3909632523349664
   231   1      2.3840061344888634      12.798793674163116      3.5784949678895499
   232   1      3.7354440998714269      13.924485229647591      5.5255373780885222
   233   1      2.2642159864154676      15.439187424922933      3.8022815671705037
   234   1      3.5249887746039672      16.687401717562793      5.5342085607004732
   235   1      2.5014898953344789      17.924517687448397      3.6920481258481916
   236   1      3.8643301589572019      19.176083514347376      5.5063406723779798
   237   1      2.6106776319600788      20.412591476025188      3.8860690624586103
   238   1      3.7837955959985861      21.805629866818336      5.5301398682322729
   239   1      2.6278969875762228      23.089704099679292      3.7137595682419486
   240   1      3.5691762696553724      24.525785806871824      5.4734159221967627
   241   1      4.9293497919833893     0.21015940287104481      3.5002014120079021
   242   1      6.3773378795461966       1.150884385936096      5.3302885694979674
   243   1      5.4556659180513485      2.6697375852117071      3.5065312262669659
   244   1       6.376139523753082      3.8044557178465852      5.4284156871016815
   245   1      5.2786210227838284      5.1359777351941736      3.6793294348948806
   246   1      6.6831040161021038        6.73038352430983      5.3324085395448275
   247   1      5.0898371153146496      7.8359595706110641      3.5311796464246994
   248   1      6.3030221867799385      8.9571577543315488      5.5723098907958448
   249   1      5.0906861815796214      10.241203695330862      3.7086765178215755
   250   1       6.441371739782257      11.519586582809293      5.2215776464955939
   251   1      5.0015785639986055       12.65871986403835      3.5428426726592748
   252   1      6.5144166725569947      14.093010462008905      5.2977957569781209
   253   1      4.9534881065381224      15.254185498657055      3.7159854298415351
   254   1      6.2562178792955754      16.504951614867799      5.3726146011787774
   255   1      5.0694718060465433      17.861062708802304      3.8294719527313239
   256   1      6.3583433828095552      19.370373876341809      5.2761734047730569
   257   1      5.0262709477972276      20.422214567622241      3.6881840228115474
   258   1      6.3255855411038961      21.737378789243973      5.4465630102971314
   259   1      5.0217404976910593      23.160667693886499       3.752507945854699
   260   1      6.1484465695667785      24.260456597130727      5.4140340116324337
   261   1      7.5391944658785937    0.018963419145888057      3.4016577403512889
   262   1       8.816220057502429      1.1532213580815538      5.2176822610015297
   263   1      7.6774958277044609      2.6416164173994678      3.6964923358532711
   264   1      9.0666730277401175      4.0057298897570295      5.3511670670796638
   265   1      7.5813279744697128       5.189268702826074      3.6362164868845057
   266   1      9.1948522417427654      6.4688181318321325      5.2174528232128123
   267   1      7.8609806471026324      7.5771298081409926      3.4317154740995774
   268   1       8.933410700056875      8.8995609310241139      5.2795253664411925
   269   1      7.6072318665812872      10.202137804017749      3.4579303620074042
   270   1      8.8231416841003156      11.348352177337652      5.3971149260427218
   271   1      7.6922090049984178      12.743684127819972      3.4514374864335653
   272   1       9.008229172589818      13.927028780426987      5.3014488189460778
   273   1       7.641674902821177      15.217988161666641       3.449194427868099
   274   1       8.760945999382443      16.405363156930036      5.4459803338615949
   275   1      7.5343549116859991      17.808099654567947      3.6577553986265401
   276   1      8.9467029984795836      19.065308618768661       5.315956758559417
   277   1      7.3721483614177998      20.306189906422635       3.514075652188025
   278   1      8.9499793009617168      21.662599088879475      5.2253692801067819
   279   1      7.5885300207981912      22.899919174739338      3.6360166190088812
   280   1      8.6851517768598505      24.379520354174169      5.2411083297325369
   281   1      10.247608301578071      25.492688720475435      3.5436316652996553
   282   1      11.537350964619456      1.3912718286983559      5.3786311034735634
   283   1      10.281855689744638      2.5611133755049056      3.3353370866505219
   284   1      11.349466791567071      3.9898967310449436      5.3812889384853273
   285   1      9.9981413747201966      5.0210302457208345      3.3507039468401887
   286   1      11.507702705138719      6.5811870245679192      5.3600036475825252
   287   1      10.345570352082685      7.7119276982265523      3.4601329403464112
   288   1      11.280592094462905      8.9292014069371675      5.3373195350436831
   289   1      10.141982350960804      10.251561303734242      3.6655211104096419
   290   1      11.560446622052465       11.47149515928094      5.4098347722207238
   291   1      10.159217567280054      12.793512668742961      3.6091746764231183
   292   1       11.39817073424571      14.035872617197443      5.3324791110192793
   293   1      10.180024166669485      15.270600679618735      3.4561826067558408
   294   1      11.362444399451553      16.479646651100499      5.4493479050686853
   295   1      10.212393141627963      17.904618030424849       3.666339703292345
   296   1      11.379320364726089      19.187932175416247      5.3810597181274513
   297   1      10.022867938742413      20.349001433447125      3.7872341676548409
   298   1      11.619430598018056      21.729123973038003      5.2719009879467373
   299   1      10.362877028272912      22.976549675172009      3.6902103595516063
   300   1      11.532515239845484      24.095382237833721      5.3475048862315981
   301   1      12.617171106172826      25.210872650902669      3.5107634653263164
   302   1      13.877988702800115      1.2636250416125825      5.3416346263302747
   303   1      12.647498839202665      2.5223273614308077      3.4089764280173429
   304   1       13.90788225507206      3.7029292794232065      5.4339595450815663
   305   1      12.828809642380639      5.1723964925655288      3.6506195975075739
   306   1      13.969679376359904       6.257448814148832      5.6020516837429417
   307   1      12.863463479100584      7.7304272627988615      3.6729149345225598
   308   1      13.808062970418602      8.9351738356611303      5.6635641404710961
   309   1      12.895652864709099      10.071558241985185      3.6599195111683636
   310   1      14.120625554145745      11.559674162570619      5.5967399344720414
   311   1      12.811144697060298      12.638491876789503      3.5364271526450928
   312   1      13.809452281775561      14.121081524567993       5.523911001909755
   313   1      12.661191309623407       15.10756652588196      3.5643571629890385
   314   1      13.788729153529095      16.562340681632087      5.5011544394850871
   315   1      12.757025777511396      17.970539965231946      3.3238800834981266
   316   1        13.8080269247332      19.201856959356398      5.4432488989145389
   317   1      12.793738265466429      20.194672453135961      3.6158605719933781
   318   1      14.196795984644703      21.731415732685893       5.537237446692937
   319   1      13.059923443584296      22.722643942965068      3.6435349538282433
   320   1      14.081305905337198      24.334634122531071      5.2804862074029657
   321   1      15.318916927385404      25.491511234454542      3.5365661580500944
   322   1       16.42564137318346      1.2936627524047963      5.3421453780399357
   323   1      15.277079657705718      2.5673170403485335       3.581233164472394
   324   1      16.438856299080335      3.8214860893395293      5.2998324121185103
   325   1      15.184224980820744      5.1411510823036304      3.7691488414742609
   326   1      16.628957453138625      6.3804983658702721      5.4524528486597488
   327   1      15.219411406796072      7.7755223868206143      3.7975298810270259
   328   1       16.61918869027711      8.8875378020207716      5.6876377053627367
   329   1      15.184185813110517      10.263282871636404      3.6768220160630944
   330   1      16.433513573294306      11.495674824489388      5.6216215800383313
   331   1      15.145854273526131      12.710711298485908      3.4774848048138667
   332   1      16.351106688109489      14.073424173290487       5.431265259424257
   333   1      15.198696101314077      15.270445364041862      3.5000608752666151
   334   1      16.487556466190455      16.467867600419368      5.3985634675524272
   335   1        15.2418403362477      17.766720016168911      3.6141258653707222
   336   1      16.392656906831235      19.101751243587781      5.2989898936639221
   337   1      15.201744499193355       20.47752766581344      3.6205921890474304
   338   1      16.702037522536841      21.756052855141558      5.2990601985199453
   339   1      15.511950428744056      22.849621715653189      3.5520765599664639
   340   1      16.601632222258957      24.173556234951082       5.241506000619343
   341   1      17.998559404016227    0.060615559765475092      3.8062401498726732
   342   1       19.21916249759051      1.3912543932649173      5.6192347562494893
   343   1      17.702787481830153      2.4229570498580553      3.6864111972698232
   344   1      18.981179513892368       3.789981675145488      5.5063277093194474
   345   1      17.878443156043279       5.109698120988674      3.7987353852264829
   346   1      19.062687352308735      6.4496722100924204      5.6303066061151466
   347   1      17.724956229324373      7.7125860833062161      3.7870393886926452
   348   1      19.145863772761281        8.85595038703954      5.6875068026352427
   349   1      17.743831256785356      10.217421366595957      3.7821401223643951
   350   1      19.135754451878821      11.444688466465008      5.3486499680219763
   351   1      17.971566076739965      12.794441583148084      3.6380586481536414
   352   1      19.028912690002279      14.104260131609292      5.4946273261566736
   353   1      17.730379309983306      15.409121339387001      3.6315511385760129
   354   1      19.095661187706256      16.556285195943342       5.373912937188142
   355   1      17.734821264737519      17.878828472055897      3.5274598259859675
   356   1      19.090940974133471      18.978695242349826      5.4191279043654728
   357   1      17.901508912741932      20.391967110127588      3.4657372069989845
   358   1      19.122018823756775      21.811524154714753      5.3761266904479923
   359   1       18.00802532992957      23.059127426659259      3.5986120696962418