dump/Cu_560_0/steps_91 (written by ASE) 

2000 	 atoms 
1  atom types
0.0      25.526554800834361  xlo xhi
0.0              25.5265548  ylo yhi
0.0      36.100000000000001  zlo zhi


Atoms 

     1   1     0.02249482951723851       0.154120616442108      35.921174233376313
     2   1      1.2347526903205133      1.1864740211502125      1.7933861436559155
     3   1      25.193271292249868      2.6744639690091758     0.03313285943639814
     4   1      1.0973010419159717      4.0013069613746026      1.7560647750048148
     5   1      25.468967872341299      5.3016873221054954    0.037393140536369142
     6   1      1.5191080018212988      6.3171664585035909      1.6456251358889862
     7   1    0.002385052455631251      7.6813756835512406     0.31856831910063182
     8   1      1.4065600697339247      8.9970212488850141      1.8841164927336644
     9   1    0.010838250256121333      10.177226254927827     0.11950133292674549
    10   1      1.2952287344398203       11.48672009695011      1.8296632120772631
    11   1     0.19507830383836242      12.888267399367743        36.0868089639429
    12   1       1.229079765083392      13.968233468559134      1.7192384760789523
    13   1     0.04367933546056315      15.357427546171381    0.062226177650723004
    14   1      1.3123399908625775      16.548671504373289       1.935766042440207
    15   1      25.332045139341307      17.746001808668819      36.015170664484799
    16   1      1.2252305345201402      19.082255187517767      1.7035585614815891
    17   1      25.341890752441007      20.394171563607088      36.061669930382557
    18   1       1.155021255957601      21.561767794485792      1.6794561640924599
    19   1      25.323835172181983      22.968936157349606     0.12231486507480441
    20   1      1.3150397009793213      24.133718203566126      1.7951573272601093
    21   1       2.552431392931819    0.022949875026052051     0.03954226960250945
    22   1      3.7366498933030932      1.2077486853302044      1.7545248932774036
    23   1        2.31308921879707      2.6393361562865714      35.943445842550524
    24   1      3.6474832980941252      3.7081741485042321       1.855389899123328
    25   1      2.5289848708050311       4.930847345701082    0.023158705982768864
    26   1       3.911803444723406      6.3327090347008834      1.9174154564208166
    27   1      2.7686327389861991      7.5922939007963679      36.012138111684685
    28   1      3.8721149152823431      9.0088380904879557      1.6117523440593466
    29   1      2.5430779162117929       10.37676002251656      35.964053792860852
    30   1      3.8073049944725161      11.578965118058679      2.0024087431457942
    31   1       2.538486950745368       12.71627305100632    0.064492868874765324
    32   1      3.8288959756156924      14.061737478826407      1.8704080559331029
    33   1      2.5723380558822764      15.433823773489127    0.043189518062683861
    34   1       3.824036230761517      16.608538860060726      1.7657588054965467
    35   1      2.6643951944656301      17.941463726480649    0.082378516259473303
    36   1      3.8826699805561269       19.12720582115044      1.8746622382824754
    37   1      2.5620765654794821      20.521102495133036      35.966262570180668
    38   1      3.7729963737023775      21.637332093864757      1.7933697658755599
    39   1      2.6937170995820221      23.025443035761828      36.074246224622883
    40   1      3.7638280813160989      24.358192597530152      1.8364247235224083
    41   1       5.013164947502859      25.442873151916945      36.034474807703091
    42   1       6.376293524122671      1.2691196341554312      1.9836996172941341
    43   1       5.017635573005264       2.522197896200129     0.07744100053066634
    44   1      6.3613812186341505      3.7874784519755016      1.9389492534264277
    45   1       5.214263155295713      5.1740610080346263      36.078490626854737
    46   1      6.4238968099497784      6.5384427229763462      1.6882406581856333
    47   1      5.2545235332644271      7.7209831805571962      35.983597498965324
    48   1       6.343232818595979       8.908683743472718        1.75311888504706
    49   1      5.1146108765988432      10.259728696149539      36.078865113137248
    50   1      6.2406560411100509      11.482834997708213      1.6440144492297792
    51   1      5.0489618004900922      12.745841786352148     0.01461887533662321
    52   1      6.2062943959285599      13.994362236954561      1.7591758883596538
    53   1      5.0148282087248397      15.147905416798809      36.092451089955176
    54   1      6.4215570012263097      16.525983686917801        1.72558464571822
    55   1      5.2012190901378448      17.668123322690974    0.025068907218064845
    56   1      6.4595205919078946       19.09307688631975      1.8327288325052451
    57   1      5.2475461000381536       20.39405677541269      36.049432463118428
    58   1      6.5780984098589395      21.717460850841391      1.8061362919257036
    59   1      5.2377045747889728      22.901746758654344     0.04626086882077516
    60   1      6.2740939768543482      24.179946065488746      1.8366210047474953
    61   1      7.5644218664399023    0.074794049325933434    0.068011526403029265
    62   1      8.8990066907524774      1.2852152098578042      1.5999786126202582
    63   1      7.6382916534298912       2.422047269472599      35.904343206952824
    64   1      8.8960059111709153       3.748291662306555       1.716754491394761
    65   1      7.6629502287931421      5.1358597200693374    0.036462107295335382
    66   1      9.0172780666841668      6.2522964673914503      1.7221007981579413
    67   1      7.8441034178764975      7.6261916088867352    0.031699668423357245
    68   1      9.0099921086259958      8.6946515777030573       2.066648460993485
    69   1       7.784476019851291      10.031964085777194      35.988254220640904
    70   1      9.0261481088061704      11.521194843471601      1.9805495363919019
    71   1      7.6428452103667555      12.591546888120714     0.21616120320900337
    72   1      8.8179555224271216      14.182661998624084      1.9340413300928951
    73   1      7.7065662682347984      15.227383908994121     0.16244752819833355
    74   1       8.861212682670315      16.804572446543784      1.8013205198118256
    75   1      7.5666969455777604      17.645958465091635      36.079762705858506
    76   1      8.9606883656938141      19.120704175783651      1.7203510702814029
    77   1      7.6082087861454761      20.410964181579477    0.064765573274826155
    78   1      9.1427073627764663      21.521174075767206      1.8112598242634252
    79   1      7.8373520735495426      23.019471905837062     0.26515047318478069
    80   1      8.9688092615520407      24.347204176413424      1.8458393612569006
    81   1      10.092882063926753      25.503613080044456      36.045759408230957
    82   1       11.55516445587687      1.2700528464137981      1.7490901831539774
    83   1      10.226969858029472      2.4876740824711816      36.080440863422346
    84   1      11.491267780274233      3.8632954624479474       2.008356904508831
    85   1      10.306129420297315      4.8729781846197353       0.119780116459833
    86   1      11.615189948761101      6.3456088916745976      1.9857074678366771
    87   1      10.227712234940748      7.4036386822642957     0.13630672688526604
    88   1      11.499347973168254      8.8247477601776065      1.6599472249286447
    89   1      10.373984514630079      10.236570653690157      36.098699179511144
    90   1      11.539259473447983      11.364815594068448      1.7595588269208418
    91   1      10.217985769049072      12.749602412313362    0.076654440067182014
    92   1      11.361248097975858      14.164583470662171      1.9712772139779628
    93   1      10.089491927549034      15.185414217644512    0.099647514254388711
    94   1      11.535243296773864      16.663203126709412      1.8571476850043027
    95   1      10.312436254308148      17.850985567859258    0.074652466256020553
    96   1      11.414393366813785      19.158894963043267      1.8747569777208131
    97   1      10.264360613973819      20.476726287950584      35.971678157497848
    98   1      11.477605076331086      21.697120146982698      1.9639920853517865
    99   1      10.286693316009138      23.003077139304047      36.093383365062479
   100   1      11.389360045556254      24.082022977976507      1.9231100932143816
   101   1      12.718253757124728     0.12885780276403011      36.070799883486565
   102   1      14.088154620098507      1.2627943691949721      1.7905691992238635
   103   1      12.571972276695567      2.7228905783173674     0.12748981275755097
   104   1      13.996409329279647      3.9185305383393807      1.8842954671878041
   105   1      12.879778780190957      5.2419854404986452    0.022283367446971177
   106   1      13.924591277758811      6.5080304251413521      1.9321502090366622
   107   1      12.765220640608938      7.5661880897710709      36.036169402663418
   108   1      14.010190366639725      8.9269693058706281      1.6474547024174737
   109   1       12.76187516425423       10.28958572135163      35.799814727001056
   110   1      14.133035904925517      11.541291493475152      1.4308725848297865
   111   1      12.509857520428755      12.801703376334622      36.025547489521138
   112   1      14.051083784252166      13.990107788863186      1.8223265160452455
   113   1      12.677940502217286      15.139102588527972     0.30153416293667318
   114   1       14.14066392769389      16.565201085631998      2.0112325565647424
   115   1      12.742196040163407      17.616984644684564      36.030332389745077
   116   1      14.031695067001554      19.099559941406376      1.7617537354863673
   117   1      12.748697852699124      20.139968729586528    0.029662568243122672
   118   1      14.219131782798433      21.629471202171153      1.8357449626590339
   119   1      12.752465468634254      22.764960550777616      36.067424932722965
   120   1      13.907336688135647      24.289666357252713      1.7733148420948071
   121   1      15.271055788485485      25.497618617673353      36.024005710602019
   122   1      16.536290410475239      1.3584915003450291      1.6083592023878528
   123   1      15.239779230501886      2.5839672465625192    0.009185404514403233
   124   1      16.489966504842204      3.9164304914828629      1.7663980698525172
   125   1      15.552999183582543      5.1652949554121683    0.013433238690913653
   126   1      16.443375036368295      6.4889829353504469       1.963457979360191
   127   1      15.338121832862429      7.7532670974730671      0.0619203515144022
   128   1      16.440264443072092      9.1522259536840647      1.8707181585198329
   129   1      15.365452746553029      10.231097230003044      36.038010102737296
   130   1      16.590146510849735      11.652002048906642      1.6084479011608424
   131   1      15.294293246578327      13.100706161330093      35.997262687302829
   132   1      16.672341642808259      14.168247644702912      1.6630605690519231
   133   1      15.221027010653174      15.512301329571835      36.075780426558005
   134   1       16.62528251882847       16.62500854537209      1.5990331279912184
   135   1      15.236659816147537      18.057626785581267      35.948192723712118
   136   1      16.568569629185994      18.994648509951556       1.522275177575364
   137   1      15.225628549210677      20.452277077484577       36.00676661185323
   138   1      16.663092245994534      21.998202931371036      1.7723817143782186
   139   1      15.415356909769807       22.92429715093267   0.0039684894412857722
   140   1      16.687231376801286      24.326232228297417      1.6800914025981555
   141   1      17.917587544920554      25.401284405162656    0.038638124051544619
   142   1       19.20364599005595      1.2416820207691925      1.8084809404189508
   143   1      17.911814502462949      2.5278611075538926      36.083360328714015
   144   1      19.116394232510977      3.8604259760589206      1.9979020363291957
   145   1      18.077539016054686      5.2760504098374632     0.20256917984661432
   146   1      19.229207249958929      6.5280179021266553      1.9808054365345913
   147   1       17.71196222593559      7.6861565989629508     0.22949036980326129
   148   1      19.111299375326077      8.8949735116916226      1.8769543360780052
   149   1      17.873349851678359      10.196364086440035     0.10618075450799994
   150   1      19.155522810060319      11.597470784730605      1.7196043962105823
   151   1      17.968140823484209      12.848068273583959      35.942108768055597
   152   1      19.142875211035907      13.900839714701068      1.6253769388152919
   153   1      17.738805735090157      15.479566390905545      35.657440365594908
   154   1      19.032187863964925      16.432864700342403      1.7283374213592531
   155   1      17.908204020333041      17.903585323310274      35.842609481589555
   156   1      19.002467870829594      19.033049515769708      1.7514958092992992
   157   1      17.750351806249689      20.301165611887214      36.035603921964601
   158   1      19.102788843484529      21.596552924008172      1.7966159658896919
   159   1      17.874691749368697      22.750983151273253      36.014715774746847
   160   1      19.051509671074026      24.143465800502639      1.8897977946459161
   161   1      20.231233418211744      25.511271987846989     0.13577935167077151
   162   1      21.699124769489245      1.2842638544123164      1.8653794707953129
   163   1      20.430944785273386      2.3273841834369748  0.00062435598110823648
   164   1      21.642167355365959      3.8075457301228259      1.9067212325625507
   165   1      20.585980428970586      5.2088333116348844     0.01071148637886382
   166   1      21.754511734897182      6.3905277271248506      1.7244112111908174
   167   1      20.510853532045111      7.6643012886166417     0.01577436319491882
   168   1      21.785113492501981      8.8600089482521867      1.7408360311993298
   169   1      20.817642388594425         10.173872690264      36.097157202001021
   170   1      21.881809948051082      11.415416316710392      1.6354442554762834
   171   1      20.574448378587324       12.80043702787775      36.081797481013609
   172   1      21.806797773321964      13.917052195570175      1.7454620872526794
   173   1      20.486350975688417      15.298286192234148    0.014201956167039488
   174   1      21.556033860786119      16.479989929118897      1.7842335294392806
   175   1      20.372620607387486      17.678107438753674      36.066474674356506
   176   1      21.680302660892682      19.156964438426765      1.7006065652791573
   177   1      20.346871495558229      20.391361604099338      36.096407367315464
   178   1      21.551906836092382      21.733020048533056      1.9456555389770853
   179   1      20.308613595402388      23.140384684428856      36.089438740711081
   180   1      21.594526769858742      24.254756437109393      1.8827179393207314
   181   1      22.741130672317546    0.099825077648418872    0.039472013400507128
   182   1      24.295105019449533      1.3918713452984559      1.8599481340572634
   183   1      22.899956062774525      2.5684222204890235    0.085005664092238795
   184   1      24.198195764340248      3.9528178801379084      2.0309890324113429
   185   1      22.965939200427005      5.0869538995270256    0.046940084270465698
   186   1      24.183383878841354      6.4236421231539031      2.0291143871987076
   187   1      23.155304484115462      7.4608568565413309    0.035881225982677747
   188   1      24.228318950739858      8.7880083360992529      2.0554308228893667
   189   1      23.212607018470781      9.9079048137437518      0.1346984810502817
   190   1       24.45473210633428      11.192624957979138      1.9210872635136527
   191   1      23.201812836028431      12.812497668418333     0.10456929747325593
   192   1       24.54218070797916      13.955167597854341      1.7014654856708267
   193   1      22.988728436784641      15.367498000144842    0.010117387003845119
   194   1      24.311485017138089      16.695155014865904      1.7700589362739485
   195   1      22.952315684354542      17.887115304352161      36.030610569933131
   196   1       24.11440717908307       19.28195567324234      1.6840049211241641
   197   1      22.864581476964286        20.6469492551849    0.058584614248388851
   198   1      24.244777303460815      21.825715470162489      1.8866528816363248
   199   1      22.759775618697123      23.159062613330331      36.069211421042674
   200   1      24.247969587337174       24.57667910258251      1.4889861226998846
   201   1    0.027494354632768347     0.13678046726019616      3.7226091515104565
   202   1      1.2172419465386941        1.70856090831828      5.4535841362138946
   203   1      25.377690041085927      2.6901628080592643      3.6920609044358685
   204   1      1.5588419482546252      4.0370110464843814      5.4238440134487131
   205   1        25.4764721821109      5.2039954627874883      3.6333898934382107
   206   1      1.3022610307883336      6.5595112613556736      5.5728172884545044
   207   1    0.080328839008304051      7.6384054272474806      3.7381269059209346
   208   1      1.4326340224155891      8.8357616111155899      5.5973598433626641
   209   1     0.13765685798687693      10.369948658331451      3.6752109058202351
   210   1      1.2747787041955438      11.489832389601471      5.5499586923344779
   211   1    0.080234747012579141      12.615900725517413      3.5511346042721024
   212   1      1.2130813069026358      13.997388902458258      5.4340471443716662
   213   1     0.13591155991414089      15.324018093838509      3.6455617877301374
   214   1      1.3136590219061262      16.554895541206246      5.4142061716926406
   215   1     0.10346246760550809      17.900115935575364      3.6179364661629156
   216   1      1.2558499892521402        19.1617783539009      5.4688531883745801
   217   1     0.15218753074846944      20.396497991020141      3.6249613622038273
   218   1       1.343607560300085      21.709408209988148      5.3367240115313326
   219   1      25.518423603904264      23.045451372330291      3.5812672330848963
   220   1      1.4552821421632594      24.510280034678619      5.4017268571190122
   221   1      2.4240676255467815     0.16241626744294996      3.6554876524531328
   222   1      3.5947660783398927      1.4000517437302413      5.5266460556506631
   223   1      2.4732557679619176      2.7099596577268237      3.5430306471840938
   224   1      3.9252377128987233      3.8754169927400968       5.561993653383011
   225   1      2.6913395941193343      5.2885041965737889      3.6767684330459769
   226   1      3.9549195316114574      6.4141451021805151      5.4764139972430392
   227   1      2.4927724692744526      7.6575963053397018       3.688654874851808
   228   1      3.8844740187514915      8.8570456742878267      5.3794872320505966
   229   1      2.7048510871969444      10.148962147155176      3.7420770941280512
   230   1      3.9222208018601479      11.442245791979317      5.5388578407266609
   231   1      2.5776544051399588      12.779220282330236      3.6535178484046944
   232   1      3.8688436148492915      14.227767762155741      5.5326644186394471
   233   1      2.6489156904847952      15.379622579574335       3.589237369951094
   234   1      3.8021948741741087      16.635082291635559       5.463380064005511
   235   1       2.456613139652803      17.889964297917025      3.7244823228318271
   236   1      3.7802550839576088      19.231521379844583      5.4479490555247807
   237   1       2.677060785031403      20.381783986693598      3.6652788093411663
   238   1      3.9869139399690403       21.82383678254109      5.4985512461334825
   239   1      2.5671514942102416      22.889543850896946      3.7105814284682084
   240   1      3.8032870451726337      24.206511198828384      5.3519854991885616
   241   1      5.0182596651957256      25.455319962818184      3.5591448352268915
   242   1       6.298967152869638      1.5336638518423007      5.5486901421709689
   243   1      5.0833796198309011      2.6973819700081783      3.6371588146561349
   244   1      6.3861958993713444      3.9458104681911252      5.4889381259138998
   245   1      5.2386409874503297      5.1976797634540315      3.5595095786570727
   246   1      6.4457301701585719      6.3119468266503818      5.4274296734813161
   247   1       5.136649713580181      7.6324914199477751      3.5797679219109679
   248   1      6.3630778265315975      9.1232615188212396      5.7222782136961641
   249   1       5.213576144028548      10.218910268677741       3.558403575232842
   250   1      6.5138273807952523      11.498619526357727      5.4769371781957323
   251   1      4.9994892075071782      12.855046940243813       3.900968426354031
   252   1      6.5922267111569397       14.15657969476497       5.416445707775047
   253   1      5.2861110414135881      15.374817409815758       3.549013755206103
   254   1      6.2732304038995368      16.612927560989004      5.6724803973335609
   255   1      5.1517057458167308      17.815463670318852      3.7118414805698077
   256   1      6.1617254908696886      19.201507056631566      5.3547021248828326
   257   1      5.1160623555132503      20.250305667675143      3.4777703052891518
   258   1       6.514072816662515      21.729448200243848       5.582223073016185
   259   1      5.0966193503495161      22.915777420638339       3.676797152881937
   260   1      6.3124207793540457      24.427561055816636      5.4419949298366532
   261   1      7.6357104536177189    0.025408523272277692      3.5966635951253014
   262   1      8.8099744625260765      1.2081269850660636      5.4228415166220278
   263   1      7.6657760973229712      2.4903416956962312       3.619613424699077
   264   1      8.9818837916604881      3.7859412073878103      5.2406702857977141
   265   1      7.7417580584009853      5.1600888530064823      3.4910438734561344
   266   1      8.8911869266686487       6.420632915925542      5.2312851167980172
   267   1      7.4157649382057409      7.7566263307742993      3.5699572679129701
   268   1      8.8613741587734172      8.7642068491562419      5.4280492484258573
   269   1      7.8586029189321165      10.197272896356534      3.6663075422672065
   270   1      8.8942692040860081      11.305335631655588         5.4978672224412
   271   1      7.4695369933309417      12.689502221126055      3.5733007103092409
   272   1      9.0972291246486208      13.820968369902916      5.2775398843893164
   273   1      7.6666865632209573      15.417132940283279      3.5900739078653485
   274   1      8.7873814541231798      16.507805544747754       5.445433532369707
   275   1      7.5021115084945853      17.850587073732711      3.6444167239116028
   276   1      8.8736059973248267      19.135317466817902      5.2091348829372794
   277   1      7.5265797544947404      20.474902761498942      3.6461891901726622
   278   1      8.8846980154614652      21.628305586470532      5.4380938422938012
   279   1      7.5887865153885734      23.058658522643498      3.6400578911575479
   280   1      8.7688227599399138      24.322869626849929      5.5079833106262361
   281   1       10.08632926229169     0.13532467361725117      3.5908031323796532
   282   1      11.432898858595268      1.2273886952033404      5.3843754122172909
   283   1      10.194344004216594       2.529054791749541      3.4820602882488161
   284   1      11.584638315844376      3.7033307536274314      5.4221737787660302
   285   1      10.137661944649825      5.1773707267364264      3.6885858319023277
   286   1      11.520341217769188      6.3891919462648801      5.5762830857583339
   287   1      10.425779106346297      7.6921402160699976      3.6952593514925032
   288   1       11.48332199859269      9.0585606511197714      5.4831334704405945
   289   1      10.425632682489161      10.156737735805992      3.5587618523004392
   290   1      11.775500077378396      11.404958654089674      5.3575863821339285
   291   1       10.39198073820628      12.621316119113663      3.7119605581195763
   292   1      11.492033089052626      13.961103211555162      5.4134988170501961
   293   1      10.125654551817158      15.387070711381291      3.6935368934054487
   294   1      11.416574796974492      16.513776182104614      5.4161038604005229
   295   1      10.108003781118564      17.820852975355518      3.6865120263681805
   296   1      11.652314390638514      19.114017220201625      5.3650187088002905
   297   1      10.293854508583786      20.385488276379231      3.7369052108580121
   298   1      11.323678874343535      21.662084508966561       5.373731917253127
   299   1      9.9955631457137226      23.004037070916674      3.5663100493059798
   300   1      11.314591880040313      24.211334146457439      5.5108679637542268
   301   1      12.637178389051353      25.497628455495111      3.6603139542954017
   302   1      14.174567903097721      1.3663439703960578      5.4353559465493113
   303   1      12.828802311963521      2.5442863344435924      3.5505333728338999
   304   1      14.248037017221936      3.7885728221000092       5.309388810964804
   305   1      12.677178155187352      5.1426928533145437      3.7277091795451707
   306   1      14.176974531291577      6.2770806882616093      5.3808816625391005
   307   1       12.81764076150675      7.8193851786790294      3.7136507620349697
   308   1      14.013031746221163      9.0004399026354456      5.3671397455999141
   309   1      12.967752209852707      10.305812308618608      3.4777849072933353
   310   1      14.319101203825063      11.554694301444224      5.5640064039234121
   311   1      12.857577827173319      12.816091645367264      3.4255160896900971
   312   1      14.197882954120027      13.903046017669617      5.3590821284213126
   313   1      12.845071790099098      15.489894085361589      3.6436453838819203
   314   1      14.228750055613039      16.479930526636181      5.3886532557569078
   315   1      12.812773171835534      17.911816290032046      3.6717907733802471
   316   1       14.25798342071808      19.102821823635612      5.2853132633439124
   317   1      12.855436966718322      20.224204611396363      3.5340500298037116
   318   1      14.273539806235506      21.548571060852762       5.191412755458896
   319   1      12.682376704404396      22.875201427988916      3.6751220673233398
   320   1      13.894297368664125      24.242920164840989      5.3284334984537534
   321   1      15.176012675098535      25.457427073998563      3.5779285216593273
   322   1      16.682886629633813      1.3824362646939325       5.405283106354327
   323   1      15.392674667656372      2.5349507123298971      3.2908564891803969
   324   1      16.712186454632796      3.8139490250241321      5.3808861757137008
   325   1      15.425373717063735      5.1370413075745267      3.5218737414790429
   326   1      16.758351473136234      6.5618916606039761      5.3723667552934735
   327   1      15.386208683136148      7.7375655048635057      3.7996254870245778
   328   1      16.597106139785438      9.1801483336406662      5.4020877038342618
   329   1      15.355262585882407      10.345571282551408      3.5640087479587454
   330   1       16.56677679662339      11.607132765909915      5.5726288069056915
   331   1      15.428324551329004      12.694128294070699      3.4388217252554809
   332   1      16.708292593763364      13.972333393253278       5.509836095316154
   333   1      15.609246344547353      15.128327923763131      3.5457429582311661
   334   1      16.601274361369466      16.619013156518136      5.4540638225727633
   335   1       15.27967578563519      17.856442169596967      3.5418144843753465
   336   1      16.619381950847625      19.131412641219431       5.337472923536331
   337   1      15.435046853879907      20.264608551421393      3.3371683096163105
   338   1      16.686110168614803      21.954868670854804      5.1699914094822725
   339   1      15.225709752939899      22.958614180200964      3.4777261659009833
   340   1      16.604133569357383      24.322137987148409      5.0432708585885209
   341   1      17.690197950982881     0.27023759534878233      3.5366281113809483
   342   1      19.194930568497067      1.4251214731131054      5.4345239814175343
   343   1       17.82833599796281      2.6749799893811099      3.5418023707208035
   344   1      19.154643956106767      3.7930942402484549      5.3435286560939579
   345   1      17.956545825209957      5.3205718345685753      3.6621352347548792
   346   1      19.135381521493667      6.6658842348677361      5.3700875404814994
   347   1      17.881646917780557      8.0294751089886134       3.544011486213924
   348   1      19.284148836739146      8.9975020530336103      5.5173576570622069
   349   1       17.81315704327185      10.451269063225327      3.6363895075610944
   350   1      19.206829303442696      11.331845281862313      5.3542661182371081
   351   1      18.084117526184556      12.819164452152691      3.4765563495723195
   352   1      19.187297778251001      14.027605530237024      5.3684143171353753
   353   1      17.986392973078615      15.277804004710532      3.5619892291010964
   354   1      19.119047232335618      16.545829423187662       5.426959435483429
   355   1      17.973104177024126      17.769060977545085      3.6906571987709742
   356   1       19.17230735544144      19.177625469756382      5.3723996682667412
   357   1      17.818063183303746      20.358777757593785      3.3903004514568349
   358   1      19.215834811953574      21.670427696279773      5.1142376520960049
   359   1      17.894456748066489       22.99585935641587      3.4931163315010152