dump/Cu_560_0/steps_71 (written by ASE) 

2000 	 atoms 
1  atom types
0.0      25.526554800834361  xlo xhi
0.0              25.5265548  ylo yhi
0.0      36.100000000000001  zlo zhi


Atoms 

     1   1      25.398305911061172     0.10556254601243191       0.411752418726406
     2   1      1.2188687773033791      1.6565392051498045      1.8846696730149459
     3   1      25.469300403612408      2.6261653551707975     0.24809567001736915
     4   1      1.4298771564455173      4.0745490763424472      1.8027813806199791
     5   1    0.023317372579289005      5.2071566649236933      36.043980256828284
     6   1      1.1995457882918765      6.5722578385404455      1.8015494769740816
     7   1      25.284754668948594       7.632506532854948     0.17109233882026717
     8   1      1.2630773052067374      8.9705857417547445      1.8357340582308876
     9   1      25.413423290830522      10.201239595696103     0.19361035129043092
    10   1      1.3163612523169013      11.589519580240252      1.8141540996839114
    11   1      25.404636292580779      12.868743733323956      36.082026783129145
    12   1      1.1726093412396057       14.03861633328553      1.9420982976548191
    13   1    0.066719283155371276      15.256580931160416    0.042530028665771602
    14   1      1.1985347372873025      16.781010747496001      1.7963062222101585
    15   1    0.042561749719728849      17.806297148919018      36.046177062415204
    16   1      1.2164365353167716      19.249935473860042      1.8196316728753668
    17   1    0.025482713223180881        20.5695074617473      35.942760988919964
    18   1      1.3901196973785985      21.625365275558494      1.9234147241972428
    19   1    0.073491860795139141      23.158170717862632     0.10717043563369094
    20   1      1.2032606009476834      24.243861361626067      1.9866341518370738
    21   1      2.4064463556127369    0.089641438769794898     0.18635345071886614
    22   1      4.0551510247507538       1.191410134693524      1.8427785800533332
    23   1       2.547419910060654      2.4825453200305141     0.16849157590132802
    24   1      3.7413735340698238      3.7671928148079763      1.8649885113142906
    25   1      2.7360749597701837      5.1376672833818997     0.16122498337846294
    26   1      3.9724938213062653      6.3624140672499925      1.7158268808498076
    27   1      2.4660843199266624       7.566225413027305      36.026143605656571
    28   1      3.8688041779058149      8.8851125787526843      1.6521832494485251
    29   1      2.3910535549812222      10.095726858351924    0.030354073142154919
    30   1      3.7313733501188229       11.62004477672383      1.6292227474674843
    31   1      2.2414238616989293      12.680847650536245      35.790831068679289
    32   1      3.7159934718875158      13.916573147334571      1.7410092880665724
    33   1      2.4227801495736121      15.284852945882612    0.043836364491733004
    34   1      3.7850455300240919      16.512587569664841      1.7680486435282077
    35   1      2.6235894945501852      17.850622739637714      36.095236478184624
    36   1       3.890563624835679      18.977961817596061      1.8733392335686052
    37   1      2.6244557738048329      20.686595522545975     0.23979070484997467
    38   1      3.9203954474466833      21.484684783257816       1.848409266882119
    39   1      2.5589994408166583      23.127919406749264     0.20043407250258263
    40   1      3.9254597944470242      24.317468018109139      1.7755944981257241
    41   1      4.9786653582577216     0.18172395981892239      36.042375964851594
    42   1      6.3930636070670426      1.4437640130970311      2.0018939822525792
    43   1      5.1926012088664208      2.5953280526794935    0.095464054118781491
    44   1      6.5362128171895195      3.9858374992565402      2.0483897962987725
    45   1      5.3356941865277205       5.089005837766992    0.081034681569292444
    46   1       6.406047866301531      6.5496818789425122      1.9893962249684374
    47   1      5.1453410469190954      7.5942343334739739      35.901611843778177
    48   1      6.4500153314783502      9.0683153627507576      1.8630927328204168
    49   1      5.1061577198476353       10.26007042612761      35.910212044879664
    50   1      6.4637074662789624      11.569137038823898      1.5981198503162191
    51   1      5.1546007536994534      12.890403228393424      35.985743552474091
    52   1      6.4235121818891914      14.018072520106942      1.8258705928800072
    53   1      4.9535751378201134      15.267515326873243      35.979872444521085
    54   1      6.4464429240136338      16.489738049016328      1.9207343013637916
    55   1      5.0849763026747308      17.730920692980796      35.876863028224349
    56   1      6.1822649873875868      19.062528046985431      1.8009384665982893
    57   1      4.9407446960980872      20.367348525181512      36.013166352632361
    58   1      6.3965633373623065      21.708117109070706      1.6358480371879307
    59   1      5.2499176573047475      22.947197712438292     0.10282831086317389
    60   1      6.2390414424766325      24.462770481164974      1.7576755303214202
    61   1       7.496888527491639     0.14698652592761766    0.079903359212414579
    62   1      8.9801189861780095      1.2900352650070608      1.6320292271512826
    63   1      7.7599496841786344      2.5520465380867878     0.15880870900311944
    64   1      8.9591905562415803      3.7652269751538983       1.968286280676419
    65   1      7.7401832670801642      5.0517557705986595     0.19619171863472487
    66   1      8.9250140932782553      6.3871655142218797       1.752455793929347
    67   1      7.4150888956116194      7.6566753884188774      36.045487798561261
    68   1      8.8405446247832025      8.8134761771032561        1.53218204780046
    69   1      7.4964388715251458      10.102667204698168      35.765873665505225
    70   1       9.034326006204985       11.52964178364936      1.6771791941628853
    71   1      7.5971350082108939      12.837353652494455       35.96201202650947
    72   1      8.9532910575178235      13.853905757688141      1.6679870730017787
    73   1      7.5789253199168689      15.190474164416385       36.09725253211711
    74   1      8.9699756144823191      16.502414760863964      1.6788567692982621
    75   1      7.6840654339173344      17.978622228685833   0.0080976297229085684
    76   1      8.9730630420511179      19.225547426389429      1.8477581049480938
    77   1      7.4838869575356926      20.442772707848992    0.063526925751557287
    78   1      8.8146098494045315      21.688868468420306      1.6783058951242866
    79   1      7.6672217504925815       23.12529888736935    0.076347792282865534
    80   1       8.973357596918401      24.177349239692916      1.8904586060169226
    81   1      10.272846558370222      25.507487200148596      36.071909625581135
    82   1      11.486324689877087       1.330356967212631       1.870717789192339
    83   1      10.245836975409585      2.5953054577529966    0.012095058076761242
    84   1      11.455508513502258      3.9262660777176874       1.847541642883165
    85   1      10.101489687563923      4.9732160873315872      35.972740567409303
    86   1      11.504547725266475      6.3535366598054841      1.5632571196442528
    87   1      10.044364848923804      7.7655573822780886      35.998602573747064
    88   1      11.282263539058915      8.8459818184025458      1.6331267903362006
    89   1      10.156826236240569      10.275843198585131     0.01779829072460188
    90   1      11.429109573551912      11.377980803021208      1.7219602194030372
    91   1      10.160824299418257      12.774802712102437      35.961417101062239
    92   1      11.566163476360034      13.844956093988001      1.6821440865272053
    93   1      10.138826344209894      15.121917158424514      35.947813656871922
    94   1      11.558263688510806      16.514739535443734      1.6991666435587838
    95   1      10.254478472638612      18.067221105526411    0.055558640542142275
    96   1      11.595247855826438      19.205032643901149       1.816675608640778
    97   1      10.411864149006734      20.332111285939323      36.009992900978467
    98   1       11.49141552005258       21.66834146777402      1.8244416993057142
    99   1      10.433780584628558       23.01057660936263    0.025885829352466787
   100   1      11.165835339580106      24.105016279844236      1.9182454464733714
   101   1      12.666680816852251      25.484092145346509    0.077821957815444973
   102   1       14.26191554239492      1.1769199503260699      1.7868618561445615
   103   1      12.814337039871159      2.4799416119147151     0.18327564949335062
   104   1      14.144466319137967      3.8101905514342476      1.7099069192600627
   105   1      12.768993504258946      5.0211821706287401      36.085041784917458
   106   1      13.881617533064537      6.1902098008123545      1.5613045744104286
   107   1      12.667377771773978      7.7180061010168313     0.13316766909339325
   108   1      14.013589300252752       8.871457463116295      1.6908927039981465
   109   1      12.659782915633121      10.252380975939527    0.015133351865313218
   110   1      13.927788382446446      11.441566475517293      1.8737631800812902
   111   1      12.797773260125833      12.717316283131089       35.97905817788174
   112   1       14.06672320698318      14.017634130840701      1.9157986655361461
   113   1      12.701290955178568      15.361259614936694      35.953848493367026
   114   1      13.976932754514953      16.736965868632357      1.6322415184093071
   115   1      12.668005139913115      17.797303509756528      35.986301681341601
   116   1      14.131326271077501      19.176180462651974      1.7750733271411712
   117   1      12.837878878349903      20.277583357874018     0.15221745706111289
   118   1      14.035336173276006      21.786113524850716      1.6653216724851752
   119   1      12.838448337520347      22.979698694615998      36.019237672482667
   120   1      13.877569515768672        24.2906192030316      1.8338188166623239
   121   1      15.215604507139032  0.00057167643414791892      35.851022077930807
   122   1      16.651704980820821      1.1946289805206665       1.846101629703037
   123   1      15.444577190018785      2.4153525579802246    0.041740604980520818
   124   1       16.45911657961075      3.7805993469128265      1.8101493776763491
   125   1      15.377402878618067      5.0520259027576282       36.05473143587627
   126   1      16.614197135392878      6.3485152473402691      1.7469182715596736
   127   1       15.15528542674546      7.6296434560968898      36.005740078843097
   128   1       16.47408610389769      8.8499271306708795      1.7411667590788527
   129   1      15.348563965339375      10.284008181654011      36.090726335001207
   130   1      16.444553409317358      11.627562559834269      1.7735381111950239
   131   1      15.324145533280467      12.774375603785431      36.094114392058302
   132   1      16.582802868605683      14.209690052900971      1.8358603041815076
   133   1      15.203054024383073      15.169200076971959    0.016876197568797116
   134   1       16.47482346486499       16.60974058927598       1.982644881791737
   135   1      15.423714752258517      17.751312611685076     0.08273428324214363
   136   1      16.534111787407777      19.150849378344656      1.7839839485971429
   137   1      15.520241378024631      20.620457290143207       36.01285255801217
   138   1      16.612962154369594      21.705622165572933      1.6481575676110871
   139   1      15.325395385216176      23.003168618018787      35.909506528477728
   140   1      16.625387656688407      24.411816198809628      1.9162631809935062
   141   1      17.849519691873699    0.083236211273942068       35.96174366994439
   142   1      19.207809683310121      1.1346287873469976      2.0343065732330383
   143   1      17.960583090748152      2.6129080567645731      35.970139317026501
   144   1      19.240293633911126      3.7964145740076352       1.855861077705889
   145   1      17.984114240243137      4.9334698578463172     0.16230792276645606
   146   1      19.166117949378346      6.2731825579035077      1.9233712663719988
   147   1      17.689372520510894      7.5561638206417596    0.052012691887182549
   148   1      19.116518748672142      8.8268025764423275      1.7674315198035508
   149   1      17.700969465181782      10.213552838634504    0.023788932793570423
   150   1      19.102683486071228       11.26164852615033      1.9048186586931255
   151   1      17.829340961064535      12.817235348418102    0.096733325650814092
   152   1      19.315249828087161      14.117377528408536      1.7051366737389351
   153   1      17.904247518819609      15.649413773485403    0.082718638723997581
   154   1      19.101546333690155      16.600458897396912      2.0461893952969956
   155   1      17.846170934439503      17.965408602450459     0.11403389705885719
   156   1       19.09249180740505      19.306377361875132      1.8709969898820416
   157   1       17.91880219758368      20.387676914833634     0.20031753221915088
   158   1      19.022714600765372      21.789797907597833      1.9021228263255805
   159   1      17.903859177006705      23.017961986664293      35.927294637382161
   160   1      19.047430722160318      24.326223766696753      1.7168922162195708
   161   1      20.399420368056411    0.020227324941004765      36.065665246172053
   162   1      21.655201214017609      1.2398616421994912      1.6750944827518657
   163   1      20.350225271324781      2.3197138779973452     0.01056080292383966
   164   1      21.538444746776829      3.8543959717402432      1.6680848782071735
   165   1      20.283039033478452      4.9983617508649001     0.07011298425293272
   166   1      21.569796504011563      6.2848126231346422      1.9103232846782832
   167   1      20.275882113471663      7.6295019382808329    0.097167717019203736
   168   1      21.706608437434113      8.9763660580541114      2.0035309780722277
   169   1      20.311116919212068      10.138866534332013    0.015125631874127519
   170   1      21.671372691005391      11.588545032449872      1.8464828611864967
   171   1      20.286697602860116      12.528698664323258    0.062774350222184624
   172   1      21.607354961175801      14.023138327503117       1.875242634277708
   173   1      20.543552557795099      15.181029512853817     0.11802239104038119
   174   1      21.605033799667517      16.731272268959088      1.8910134246569685
   175   1      20.294294937282281      17.785916951939285    0.001554400984832684
   176   1      21.655409799166691      19.179781542057491      1.8101756308815671
   177   1      20.302332598191079      20.622692306174468      36.023924485984935
   178   1      21.628988684144399      21.823035170019832      1.7585068678221896
   179   1      20.452407718242927      23.103251701029993      36.039207901884488
   180   1      21.547920568043285      24.416321019704412      1.8099938267361149
   181   1      22.914066278833193     0.23375053152550815    0.075316657849828036
   182   1      24.396275941611975       1.460246452598025      1.9276346596563381
   183   1       22.98264900621583      2.7796287277113811     0.10828111880541673
   184   1      24.491449371305993      3.8676202849134431       2.089126912263044
   185   1      23.076597377205395      5.0715702806101453     0.12579079368558732
   186   1      24.033935427231008       6.321923156586764      1.9064507550853929
   187   1      22.800792715620076      7.8245807482767535    0.022297248447875985
   188   1      24.069422495468611      8.8374085176734969      1.9746135461489407
   189   1      23.060954534506514      10.345135049104112      36.022333332488095
   190   1      24.129925359628235      11.636001404053022      1.6623367151602348
   191   1      22.809401073108919      12.999782426476251       36.00549229816982
   192   1      24.288427152411625      14.228595717106494      1.7479938819618048
   193   1      23.197813630357967      15.655715802033589    0.076599549378749895
   194   1      24.248329075341623      16.887370182337875      1.9397990908405984
   195   1      23.107382908863173      18.178464493612587     0.11566348284497974
   196   1      24.309438132144795      19.279107391621686      1.6421920987547782
   197   1      22.992009951620354      20.590317749881532    0.046409097518176137
   198   1      24.454880756042261       21.83166887766594        1.90089255534607
   199   1      23.073157007319157      23.148297553488902     0.17059448755705928
   200   1      24.171108236575744      24.290590163757102       2.032559777953884
   201   1      25.366482877317235      25.505012657558886      3.6543204206412452
   202   1      1.2276399691920321      1.2525852989366968      5.5160968521998344
   203   1     0.17310358160625497      2.5550071538670096       3.889068667445811
   204   1      1.6094918768576982      3.8834208777653632      5.4371592518778078
   205   1     0.13888835044110842      5.3321495539910941       3.655749285462246
   206   1      1.4095664809171364      6.5361744260006507      5.3591422873393073
   207   1      25.474572914682607      7.7571631156413714       3.687907644138499
   208   1      1.2229318647420431      9.0281055968708497      5.3233516281124871
   209   1      25.452679770608775      10.332048964260307      3.5425599151393627
   210   1      1.2045458863790599      11.319470722416728      5.3032409921184405
   211   1      25.429026717109107       12.83581339354447      3.6205867076716975
   212   1        1.15342326742226      14.111986407067592      5.4360641490567154
   213   1      25.387153008292145      15.520277001081691      3.7243598976868215
   214   1      1.2589445713980396      16.707436376481557      5.5029724829382829
   215   1     0.13048706723028314      17.968498749729306      3.6240297623063449
   216   1      1.2434904043734099      19.337648454252339      5.5725531085303208
   217   1     0.23210458856340571       20.47244970704957      3.6245734317623421
   218   1      1.5903343799513059      21.828775332907259      5.5365165127990759
   219   1     0.21687888057220633      23.068871716696886      3.9086135569331959
   220   1      1.3558903475225723      24.366256459211218      5.4901182243586213
   221   1      2.5870354817172641     0.23065142380969442      3.6258374292903404
   222   1      3.7278876793883979       1.363547153265527      5.5449695471048788
   223   1      2.6381338141088162      2.6580299843953235      3.7393665040100355
   224   1      3.9516671208700291      3.8502278700132586      5.5739031406170954
   225   1      2.6397731114977696      5.2513543290523801      3.7084070925399546
   226   1      4.0337417708157988      6.5497097088701066      5.4360321805095539
   227   1      2.6310685888122167      7.6298549022329016      3.5831355520692671
   228   1      3.7941524268256912      9.1218521172334306      5.2978224944870549
   229   1      2.5951127374865814      10.356861358226396      3.5888990153664619
   230   1      3.9172785848270153      11.646861772265801      5.4744032365689339
   231   1      2.4996294448070264      12.860774984350465        3.76467801791209
   232   1      3.8837562161652572      13.875399523971369       5.420676487069449
   233   1      2.4293321362799882      15.410011888697227      3.6307593511660525
   234   1      3.9915597334140798      16.544934995582736      5.4892433286464248
   235   1      2.5649804383135701      17.922241461842045      3.7798526110015414
   236   1      3.9050711926210209      19.110473694317935      5.6588664367798289
   237   1      2.7815926281436165      20.390103015174542      3.7676262643467364
   238   1      3.9987253228477369      21.732426135239791      5.3943695564090968
   239   1      2.6334048645045871      23.030438767472781      3.6391679190611943
   240   1       3.775474858347458      24.272454436109548      5.4882712656529442
   241   1      5.2625031265736126      25.458101005241559       3.731696026561659
   242   1      6.3851206413618939      1.2719588486487361      5.5631468402887476
   243   1      5.1761521321233985      2.5997638622126309      3.6572040029739599
   244   1      6.4464488741744006      4.0792031435016538      5.4318470360575102
   245   1      5.0468066335217445      5.1842730218833246      3.6949112230306413
   246   1       6.407378511624767      6.5672593808132449      5.3188790604741927
   247   1      5.1320851125551581      7.8608137114375367      3.5799685867238611
   248   1      6.3050884543752481      8.9550949545819289      5.3787251133269738
   249   1      5.1110842815168196      10.208104761187206      3.4867527430366962
   250   1      6.4640341158439263      11.299932792838677      5.2332849031471396
   251   1      5.0523829005995591      12.698978756687053      3.5404032469864317
   252   1      6.2951381954495353      13.866980899774045      5.3184390366911876
   253   1      5.0633962712920262      15.383692783158367      3.5387320051342601
   254   1      6.4930057615204237      16.659623209577802      5.4747307299087105
   255   1      5.2039719676694496       17.74950094509477      3.5802537056086186
   256   1      6.4429527181742445      18.991478111756464      5.4710523908000663
   257   1      5.3151572092417005       20.24821615355695      3.6609181432182147
   258   1      6.5157847895435452      21.729628512185581      5.1314624684592962
   259   1      5.0297469411607487      22.881122502929536      3.2631407202823648
   260   1      6.2317286034296666      24.100006621481562      5.3841348058280811
   261   1       7.754203197960738    0.085718854547144716      3.5267951936575175
   262   1      8.9504149925123269      1.2623234872491118      5.7325953519413968
   263   1      7.6855263992593548      2.5902556720183036      3.7136984872118357
   264   1      9.0410245425049087      3.7653155569835346      5.3723111882994514
   265   1      7.8601343556138845      5.2217832438895417      3.5840407050482885
   266   1      8.9541431536593894      6.3919621935916373      5.4448748614415647
   267   1      7.6619187908885928      7.7391420237618229      3.7351916705873869
   268   1      8.9523501522274422      8.8504501584781536      5.4013450737086712
   269   1      7.7275156166685575      10.135323752143696      3.5038283314088536
   270   1      8.8302018898485954      11.432087254562676      5.2810491571249445
   271   1      7.5038781553055873      12.832436534128812      3.4902664452316015
   272   1      8.8985859234420381       13.88547805143337      5.3713992019532908
   273   1      7.8954088870994097      15.291683762608743      3.5496430228447933
   274   1        8.98598458395535      16.511377232664799      5.2910015702483584
   275   1      7.7528694183312625      17.852304993265882       3.503579369131784
   276   1      8.9118238453815763      19.021659222237567      5.2798974583188576
   277   1      7.8212858645024079      20.395074859790935       3.593117205715179
   278   1      9.1371001131936271      21.571984541550783      5.4246771628457919
   279   1      7.4533261379510884      22.932284015236668      3.3674132422195955
   280   1      8.7482582588850306      24.354671765979216      5.4436006141870266
   281   1      10.139419398417184     0.10326964245848365      3.7762106886345852
   282   1       11.49608597752453      1.2662692815828955      5.3531385087973806
   283   1      10.292612278586036      2.5960705939822417      3.5926482670244582
   284   1      11.544346062652975      3.8124382280501168      5.2887807771977213
   285   1       10.32092574670434      5.1197089024858666      3.6163428555383725
   286   1      11.432276802900867      6.4522104323179139      5.2939818456424312
   287   1      10.115870287399467       7.601586646766914      3.3701280531857511
   288   1      11.443625524983496      8.9678014294711517       5.288615398136427
   289   1      10.233383949951659      10.188428881410614      3.5594031973463083
   290   1      11.406964379157248       11.55511481584824      5.4471564144630999
   291   1      10.243523833092796      12.660669921686649      3.4916712820876112
   292   1      11.538868443696387      13.881662458401999      5.4755415789923294
   293   1      10.234597203675111      15.111461044032788      3.4573557776854398
   294   1      11.600717769896223      16.416562581744607      5.3993388598381209
   295   1      10.354516832777852      17.780208327406523      3.6561404415417247
   296   1      11.540919561711549      19.248797329386981      5.4057400502656359
   297   1       10.21781248386438       20.40941933618933      3.5012441418878435
   298   1      11.555189831052841      21.729968870778798      5.3162955821230691
   299   1      10.004517571833592      22.910054163487835      3.7940665394863102
   300   1      11.270947161985941      24.226788545928642      5.3912210029073089
   301   1      12.804488985366282      25.502770529505902       3.494336083143708
   302   1      13.936065380309339      1.3239748012263923      5.5176635706608774
   303   1      12.875366864949244      2.4856778235183858      3.5781823961644488
   304   1      13.954636795427836         4.0581270584631      5.5276192543497826
   305   1      12.897984817077063      4.9979606814449804      3.5105577633977654
   306   1      14.099285075982447       6.390483175272256      5.4990274076822887
   307   1      12.773183679301132      7.6561593820405482      3.4825490433480697
   308   1       14.05456032974493      8.8445096438118807      5.4684343071685779
   309   1      12.746561821511945      10.228718027846369      3.7265277101439982
   310   1      14.006591210449269      11.450350323628451      5.3959310929045561
   311   1      12.866799106337378      12.674091651609285      3.6148142818357685
   312   1      14.027280149670259      14.093845002569894      5.3517106168725723
   313   1      12.621324894859896      15.380322469206241      3.6194671876081261
   314   1      14.072822394437914      16.589881248497505      5.3003300190403255
   315   1      12.826993104112184      17.962430218042758      3.4878882151587853
   316   1      14.103948920744932      19.104484838947954      5.4711273971758354
   317   1      12.971414951847494      20.514230932541956      3.5667606214622767
   318   1      14.208194982399489      21.695940638555129      5.5177865541105415
   319   1      12.878408848327934      22.972231915599696       3.707190638406118
   320   1      13.973517173486583      24.294346064186591      5.5223691565084172
   321   1      15.275307431538355      25.471554653792584      3.6048950741844705
   322   1      16.416167112325823      1.2172299716502981      5.4466774230054789
   323   1      15.209891335131514      2.5392732862912872      3.6355500087927703
   324   1      16.405421734047707       3.872359069261686      5.4168326424892923
   325   1      15.380537757620536      5.0308921404023117      3.5693346226211919
   326   1      16.535626813213149      6.3155126003135367      5.3110868983046258
   327   1      15.093155574246568      7.6769464757578643      3.4966572566453915
   328   1      16.453022063730227      8.9584187473239112      5.3287425616415067
   329   1      15.245852234906819      10.090388905009144      3.6449596790088519
   330   1       16.46880980264433      11.458581154874622      5.2729541910293714
   331   1      15.246941766178146      12.739732573858419      3.6476468225684795
   332   1      16.703591600458669      13.946437114615261      5.3624997121117364
   333   1      15.229823403558093      15.402330098643683      3.5212946836649737
   334   1      16.542243554488746      16.599140083376142      5.2760460799338915
   335   1      15.309869869079602      18.072978000675892        3.67326076367759
   336   1      16.537953720007373      19.120374227390389       5.527255549148884
   337   1      15.482308946843078      20.539652492215001      3.4995356403950395
   338   1      16.579242715403165      21.740613727066297        5.39579330417076
   339   1      15.201125707990396      23.060476415508525      3.6180661098772422
   340   1      16.652797622880282      24.145529410764048      5.5757836442568642
   341   1      17.875843490694841      25.452270030960506      3.8648443113871762
   342   1       19.05080061157118      1.2237069353690297      5.3613217457689357
   343   1      17.903686769951168       2.567587161038674      3.6649367433291942
   344   1      19.170385245534479      3.7045789577160315      5.5123435645257404
   345   1      18.051139079200738      5.1757631571092046      3.6942210974809138
   346   1      19.232408614509318      6.3403090120190164       5.371331153475241
   347   1      17.740083139812157      7.5840413715522166      3.6941019904924985
   348   1      19.090812336934157      8.8234504360035722      5.4431118783236556
   349   1      17.672136775920002      10.033342555372762      3.5327299962493042
   350   1      19.092802735462929      11.453056570862422      5.4008936494191708
   351   1      17.866998438442948      12.675163064032809      3.4990373479785708
   352   1       19.31796101381283      13.931368591087679      5.3468340882311596
   353   1      17.882342795371766      15.148791227088633      3.4875398404512241
   354   1      19.119914871419255      16.552103285575789      5.3788262741839343
   355   1      17.820782322040053      17.922587411353298      3.6241995260922679
   356   1      19.203153306248328      19.049768726624201      5.4026421738437778
   357   1      17.790685311983644      20.498670015973058      3.6418243206726757
   358   1      19.228710174661021      21.555868772371856      5.5200510522991886
   359   1       17.97942932245585      22.959344731973712      3.8399981724507462