dump/Cu_560_0/steps_61 (written by ASE) 

2000 	 atoms 
1  atom types
0.0      25.526554800834361  xlo xhi
0.0              25.5265548  ylo yhi
0.0      36.100000000000001  zlo zhi


Atoms 

     1   1      25.466248317229972      25.420297046015904    0.093675671599248597
     2   1      1.2093237955630387      1.1481612822417624       1.802157083167367
     3   1      25.461273341067027       2.400201533291054     0.10128601833299636
     4   1      1.2518997795442193      3.7654772967596073      1.7833854592237239
     5   1      25.370708403559227      5.0051927544993768     0.15793545664029107
     6   1      1.2571655255859395      6.4559237622783412      1.6360163461214934
     7   1      25.481522570905685      7.6062888550570484         36.039974664492
     8   1       1.355402239049027      9.0113919388597008      1.9116722559099213
     9   1     0.10105806723296794      10.134832589988234    0.091227410672070186
    10   1       1.380808476703927      11.362538425228742      1.7866426891692189
    11   1      25.449127560914167       12.95452340336543     0.23513980000035412
    12   1      1.4262310494453454       13.84529666372736      1.9637013627359361
    13   1    0.098367525202392461      15.388493533262446    0.053621656312236705
    14   1      1.3650135378800621       16.58865900330564      1.8372209807184634
    15   1     0.18482046282950024      17.772327891827519     0.01664073944233449
    16   1      1.2024100183615987      19.057409267553801      1.8755501810886228
    17   1    0.038943922636416689      20.265827503632536    0.042797941736205158
    18   1      1.1300159853708098      21.553276442762964      1.6754697053151506
    19   1      25.384935315860023      22.932723388608526      36.021724406198338
    20   1      1.3662006008110981      24.194449641465848      1.6867609450988093
    21   1      2.5611256499096613    0.020787617302162234      0.1040348035174701
    22   1      3.6339193641431264      1.3734521151135715      1.9578323457966798
    23   1      2.5713448904832448      2.7555458235451051     0.02377612525150424
    24   1      3.7863115244387178      3.8469618242600614      1.7061354264901969
    25   1      2.5154614233787824      5.1952961073321013     0.17054937251062927
    26   1       3.925335769513032      6.6168668780624564      1.8288087838595395
    27   1      2.5370593221538611       7.673675878731343     0.06664682386805236
    28   1      3.9156040308561182      9.1823911009187054      1.9065848911008847
    29   1      2.4783855484302273      10.210937326788509    0.022710796349792856
    30   1      4.0115629656577614      11.590641496354488      1.7427680983008955
    31   1      2.6120675503150284      12.533244579057104      35.987577589831126
    32   1      3.9725464369836372      14.072133866508658      1.7837043898867264
    33   1      2.6483198238996426      15.377593378431502      36.003497622452997
    34   1      3.9895424324011062      16.505301463411705      1.8275524989927938
    35   1      2.5854699526854859      18.018901571324694    0.059169261252748191
    36   1      3.9598752125932464      19.118025075335737       1.883066084576559
    37   1      2.5043286311752095      20.360787590383623   0.0076521667050315125
    38   1      3.8615353152788576       21.56768136837265      1.8514004810843292
    39   1      2.5892645770638336      22.808089315138634      36.037399425973113
    40   1      3.8709086857824548       24.17940288963046      1.7389944354949882
    41   1       5.092788143621453      25.439397522484473    0.024476371605783222
    42   1      6.2930749313251786      1.2304392913814204      1.7462083553341241
    43   1      5.0231657842517432      2.6160385619239195    0.037190865280763388
    44   1      6.2542883053299763       3.821295241510771       1.878711612649022
    45   1      5.1201424156416397      5.2728020565566052      36.004676828486893
    46   1      6.4394240893414656      6.4713767548089782      1.8360513829985161
    47   1      5.0371308014073204      7.8151665814972713     0.05048277422076821
    48   1      6.2333610978083316      8.9720685884451434       1.663710993094321
    49   1      5.1767661571197525       10.26718468064092    0.035235571128316684
    50   1       6.291876371527847      11.406459386937033      1.7859956793643625
    51   1      5.1496103272679683      12.696358952902136      35.846619677378207
    52   1      6.4901411549205905       14.04594532443433      1.7692959216428104
    53   1      5.2918857163519641      15.160783103439581      35.990691683458572
    54   1      6.3836552614004107      16.742611334972466      1.6753535368052566
    55   1      4.9910340461329303      17.732095378321905      35.971268858319078
    56   1      6.4082168205572767      18.988631494071747       1.821080610803723
    57   1      5.1163166686742274      20.417094224723087      36.064872526241992
    58   1      6.2347334644163377      21.621688261976423       1.753364473085093
    59   1      4.9426556715910746      22.885406582658472      36.087760187518597
    60   1      6.2910835928481328      24.139350625765726      1.8513398735066982
    61   1      7.5766867828630131      25.421729784847123     0.12882865906819926
    62   1      8.7502466889588284      1.3113550985517093       1.662267117714701
    63   1      7.5118394301941711      2.6214264508002691     0.10912653135279711
    64   1       8.828837166177653      3.8792656177591365      1.8735448771615562
    65   1      7.5355695913873584      5.1267357049194668      0.1117905617789007
    66   1      8.8882870192715071      6.4488022838119203      1.7606427411175445
    67   1       7.580985014836263      7.8618285208915157      35.920205737674387
    68   1      8.8278770038156082      9.0908628095465716      1.8072568825957906
    69   1      7.7611922960868585      10.159775895613494      36.063841103061257
    70   1       8.803422697270987      11.665245341479132      1.7452400985069281
    71   1      7.6356896079208028      12.943980505891028      36.011883188390435
    72   1      9.0970453942045264       14.06568946412003      1.5386320789101329
    73   1       7.768921571324988      15.496437624832135    0.015165766416782843
    74   1      9.0169901438103341      16.588654686963537      1.7589065618923072
    75   1      7.4682080047204762      17.937975756985956      35.975941899716439
    76   1        8.89967381544764      19.273504288977843      1.8129621034928953
    77   1      7.8392173770282891      20.613101833321352    0.085173592576211474
    78   1      9.0165939242916675      21.803169679293024      1.9071451018238568
    79   1      7.5920318910382774       22.82068206362942     0.20102857015127695
    80   1      8.8243690295808896      24.296680647143166      1.7816504948721221
    81   1      10.179033436523309      25.477448422359995    0.063372366828503071
    82   1       11.61196916690618      1.2874411680105375      1.7903362798207021
    83   1      10.105389398047338       2.645494106081689     0.14323846889557204
    84   1      11.416311205162792      3.9081696245955135      1.7822687525376628
    85   1       10.24637384791227      5.2211387993159306      35.947576692577535
    86   1      11.561244931929275      6.4171958159257683      1.8778049637438465
    87   1      10.325876071676067      7.6917715201489978    0.043430043962393999
    88   1      11.536931935676286      9.0824795053347867      1.6987379585607989
    89   1      10.200065437720854      10.403838237475437    0.093245635923130857
    90   1      11.507809618953083      11.593996586454729      1.6918925055631564
    91   1      10.349954304945102      12.761308350572316      35.962768327173876
    92   1      11.588607005099584      14.083822091032065      1.7573226263758348
    93   1       10.29975418977577      15.453172612213553      35.927584571256652
    94   1      11.521015268636921      16.479236642556135      1.7767851823566383
    95   1       10.22951034284851      17.944950187768367     0.11399439127174001
    96   1      11.351828378492034      18.925264674025705      1.9047868919278828
    97   1       10.17625862233632      20.538892920518496    0.081140967188980534
    98   1      11.593978750852903      21.775331087927032      1.8135092210780486
    99   1      10.200257170185113      23.003711238140593     0.13594001811077305
   100   1      11.470804935208124      24.164031502162874      1.8752553784074053
   101   1      12.719185527365676      25.340243107453659    0.096876491426007641
   102   1      14.037506907903037      1.2307774244198129      1.7845434427615727
   103   1      12.661688963517113      2.6430941903431835       36.03314517671469
   104   1       13.89630220677031      3.7756129400645912      1.8518432453315197
   105   1      12.693569826209062       5.369773483056651      36.088612893454972
   106   1       14.10501991990156      6.3629768990411701      1.9245243382686812
   107   1      12.921725415282081      7.8671177583005658      0.1984193315870014
   108   1      14.185915027463023      9.2032228616587144      1.8581687507260332
   109   1      12.781873898346323      10.286510703538962      35.918012664133798
   110   1      14.229410445571132      11.745880066625494      1.7101224851794656
   111   1      12.905263461248063      12.886584563278296    0.037119020157922518
   112   1      14.011855814894925       14.16969433857934      1.9122249276076666
   113   1       12.83432343105555      15.382424863561015       36.03862997983147
   114   1       14.09884567692178      16.495785221877131      1.7833279376093953
   115   1      12.659951008081951      17.834997964049663      36.000988289580114
   116   1      13.886646958125089      18.967580349423656      1.9454256955847999
   117   1      12.769433953202718      20.444717355770607      36.094667342639546
   118   1      14.044353118267667      21.575214700060883      1.8821465030652358
   119   1       12.81777947652744      22.884130575779199      36.070435230570148
   120   1      13.942042525751752      24.286797871687895      1.9037841703075962
   121   1      15.235680870554937      25.407058300949888      35.993786731131003
   122   1      16.415188432135771      1.2765200921923106      1.7195724650845483
   123   1       15.08677363563152      2.7316745637991717    0.030639095149751952
   124   1       16.27333429344047      3.7914148882821479      1.9343854208888038
   125   1      15.192585629813657      5.0984532641870564     0.18345816725470729
   126   1      16.594947446028254      6.2448110649827786      1.8268265659091982
   127   1       15.45874594192018      7.5094871491799786     0.13939664943998206
   128   1      16.595484470553959      8.9532978320654273      1.8780788932367405
   129   1      15.238546373984631      10.151321446610334    0.012433191713341785
   130   1      16.720132752919813      11.474544650176101      1.9575833522628285
   131   1      15.479959602615716      12.826412973981105      35.962899348745701
   132   1       16.67031445250452      13.813350001082267      1.9042807027445519
   133   1      15.350579874235356      15.204662560212574     0.14237365517145709
   134   1      16.639648956338153      16.537295296553314      1.9563664244138641
   135   1      15.134286310814611       17.75439625059126    0.080864936908437754
   136   1       16.60058765559933      18.994315789434516      1.7516852017067999
   137   1      15.302061119869181      20.323205478517949      36.053318647617637
   138   1      16.584481567933778      21.810115922643465      1.5912660582534166
   139   1      15.023627448735567      22.872215486283128        35.9992788654991
   140   1      16.551634596776097      24.340973802128872      1.7777493079363029
   141   1      17.947478007310579       25.51099067892034    0.025236827190144587
   142   1      19.144989843482787      1.1353455145296261      1.9184276510635643
   143   1        17.6171044295982      2.5722211003624382    0.014342693422088347
   144   1       18.94324948263721       3.653901249647586      1.8402234269951234
   145   1      17.816264174674529      4.9928911047835074      35.998923119722285
   146   1      19.147729328301953      6.2520802858887103      1.8016563835966748
   147   1      17.989901763693052      7.4468358953639253      36.012786068285749
   148   1      19.222302614110124      8.7214967255014599      1.7626246399827192
   149   1      17.725985060335308      9.8849925682080748     0.10449668944432929
   150   1       19.00995918810473      11.162039667173881      1.9229870025862728
   151   1      17.990828959583723      12.619274835854352    0.085913167018509318
   152   1      19.117830117747069      13.926593945217073      1.8366089869933384
   153   1       17.71121922026688      15.069228248709067      35.925545903320391
   154   1      19.062281786916643      16.764912534054325      1.8528221143383701
   155   1      17.737444569802502      17.872710490145742      36.028686614665311
   156   1      19.162000634502036      19.243459037571352       1.685271356521457
   157   1      17.665231096636411      20.342313323897656      36.048037184210919
   158   1      19.097969483493966      21.610886801165265      1.8640008494278841
   159   1       17.68035815175865      23.091528486058529    0.018673830915099637
   160   1      18.930638147815511      24.081946561859287      1.8366372529903079
   161   1      20.523368090243633      25.477516540319058      36.040337508151055
   162   1      21.700443403665215      1.3752150671137751      1.7555654260260656
   163   1      20.199025795700759      2.4398459799570813      35.919442551317658
   164   1       21.41319545444777      3.7856599695566215      1.7883054709757158
   165   1      20.335607977112165      4.9902827729712316      35.892323663394173
   166   1      21.729846381164808      6.3251306541026908      1.8390867744779025
   167   1       20.51721197607722      7.4800143809902853      35.986966320464376
   168   1      21.784573149997474      8.8540833512065973      1.6510626307638847
   169   1       20.48943647682076      9.9270037837276721      35.946023888153313
   170   1      21.849520898252734      11.466121902067586      1.7915655599732201
   171   1       20.34916374540893      12.363257416250704     0.17847113572423734
   172   1      21.774812968242347       14.04169566205703      1.5189024798572299
   173   1      20.232032771236018      15.450883100878242      35.999451501753335
   174   1        21.4891528692721      16.646061659995826      1.8580731622489681
   175   1      20.384130977936607      18.064764653324257      36.094516250112981
   176   1      21.623870407414426        18.9965422741728         1.7113237873686
   177   1      20.323964711204461      20.475332550368961      35.980105823287381
   178   1      21.631129651873056      21.566742738224153      1.7898968575174201
   179   1      20.338696056225146      22.781825592618347    0.079557982406595326
   180   1      21.653333058522108      24.280017535108307      1.6478300506768719
   181   1      22.916331436450299       25.50124152342363      0.0201202685837302
   182   1      24.216631702886662      1.2198649422012449       1.803473618223062
   183   1      23.042527530243962      2.6272809518637628    0.044907945505860865
   184   1      23.889517461934485      3.7870591474784923      1.9062301703463864
   185   1      22.787793683837581      4.9641655327666472      36.079302687756517
   186   1      24.314314797454987      6.3445368705495726      1.7300475037658085
   187   1       23.09527355499738       7.439753072877707      35.972906778239292
   188   1      24.374046080532381      8.8505935009621339      1.7348964062837913
   189   1      22.915186755370677      10.114232243120325      35.722575835462962
   190   1      24.188381079642966      11.403629964574426      1.5603701279414617
   191   1      22.919268607278244      12.644773549953813      36.065542199314116
   192   1      24.109334616098579      14.211541077867995      1.7587022722812877
   193   1      22.946175262364342      15.441849350719915      36.081041904853272
   194   1      24.235887473203771      16.742233636854227      1.7430853746935564
   195   1      22.784519285539108      17.862091711265347      36.050296914528957
   196   1      24.192558052502786      19.165742857405363      1.7998914587042807
   197   1      22.904705113271735      20.323862515188171      35.956473620979637
   198   1      24.066958981002923      21.743770574173375        1.63668524118857
   199   1      22.783804642541625      22.968819794935637    0.062751185073363899
   200   1      24.381396875748713      24.076399042831298      1.8584609066026136
   201   1    0.093260923854404057      25.405847676535366      3.5010076009616236
   202   1      1.0867833668773663      1.4643311007335369      5.1403600226291406
   203   1      25.310799610080338      2.5720375005330571      3.4691691309097772
   204   1      1.1424452201774677      3.8082220900716841       5.350656764600136
   205   1      25.514316063338722      5.0351892357795798      3.6182707445072246
   206   1      1.2674876261293802      6.2879526079395562      5.2504265718581484
   207   1    0.063760681484822515      7.4985396638488782       3.451671765511036
   208   1       1.136366540657799      8.8375147976257491      5.2538279584961236
   209   1       25.33018921973521      10.097505566004536      3.4685545401955218
   210   1      1.3236168382459979      11.292181584242114      5.4540161397172993
   211   1      25.480864209650239      12.557429235739589      3.3406176559924905
   212   1       1.084006028765907      14.157882424074659      5.3463940456226888
   213   1      25.425135673825256      15.217665772150152      3.4522314062983592
   214   1      1.1813533294072234      16.612500824219303      5.4739953728917081
   215   1      25.467509677683651      17.860194179232696      3.8105033550704777
   216   1      1.3111420367631041      19.051918569673116      5.4585141297853186
   217   1      25.225183790958624      20.421847798285675      3.4260472860056792
   218   1      1.1790349248537704      21.653384274758093       5.345020868829554
   219   1    0.025411135071151135      22.770808159674552      3.6601780422369656
   220   1      1.1955536423252573       24.30080157516397      5.3276256949655521
   221   1      2.4642055870392778      25.451430774975567      3.6400097366267041
   222   1      3.8604363280077498      1.2670144074335896      5.1409919686657863
   223   1      2.3513129372231707      2.5101180024214815      3.5443538050874039
   224   1      3.6342974704845998      3.9096663177660731      5.3344175742213285
   225   1      2.5385662920279892      5.0670489935407375       3.347357176823301
   226   1      4.0037894733078492      6.4209527747238919      5.2601470954558591
   227   1      2.6351212272855737       7.714790632999736      3.5248108746076117
   228   1      3.7010939007126402      8.8778259398255166       5.233093487326502
   229   1      2.6121939570347941      10.332720228926492      3.6527085330418161
   230   1      3.8426510133925182      11.538398390353695       5.527749583575166
   231   1       2.588691487835701      12.708623030599496       3.633451764929303
   232   1       3.767644394374003      14.026734467293936      5.5642525488173291
   233   1       2.602547595854908      15.348322196342453      3.8953789808232573
   234   1      3.9531633353908826       16.55154382815283      5.4729925348834199
   235   1      2.7008672635566207      17.681710368840967      3.5144929216667276
   236   1       3.819059345658482      19.218688125771234      5.4292284694766471
   237   1      2.3540467342515163      20.347153721856294      3.5493935254101761
   238   1      3.9981603109185224      21.725152834118589      5.3513758626010608
   239   1       2.589070926036324      22.948812222727955      3.5687561051973944
   240   1      3.6566268556293791      24.335110149279917      5.4144197583302285
   241   1      5.1252920541956062      25.509918552882471      3.6360465673892124
   242   1      6.2547772704663407      1.1710483694762064      5.5122883530571531
   243   1      4.9871570202256228       2.482143553153334      3.5726815250279742
   244   1      6.2725523872698226      3.7361662307153001      5.4266121685408111
   245   1      5.1179446290989006       5.282182984619137      3.5839551850937474
   246   1      6.3302781634529266      6.3746574637870026      5.3761341929672781
   247   1      5.2078266201131065      7.8805498870471506      3.5932196882959055
   248   1      6.5068890508889057      9.0841280461611635      5.3973166487927688
   249   1       5.221356611093352      10.396283926440034      3.6598104797984288
   250   1      6.1898960721812459      11.756767048845852      5.5693582042227083
   251   1      5.3029071491453932      12.922641237780557        3.71819272530812
   252   1       6.322686210857337      14.213500451597469        5.62239862446435
   253   1      5.2340604152127463       15.34965079409543      3.8311857160143563
   254   1       6.391715759578716      16.791222669454694      5.4357936812898346
   255   1      5.2302706053976209      17.813900939340581      3.7010269496118955
   256   1      6.2396478168832337      19.239184356753441      5.4463947953637319
   257   1      5.1910036903676051      20.243505353774054      3.5227160589520277
   258   1      6.4887790163722077      21.901924972909729      5.4781933754277468
   259   1      5.1566984937007323      22.889477139170349      3.5195300592169487
   260   1      6.3236858578084281      24.300561916002962      5.2917458442404079
   261   1      7.5950784560194293     0.16467859739127508      3.4941431573116453
   262   1      8.8174215091991766      1.4054738078299478      5.2131255247886203
   263   1       7.439238989702325      2.5902875141287853      3.5461369896518034
   264   1      8.7815765798776209      4.0720647140614261      5.3096090396571674
   265   1      7.4831697713442322      5.1057918991871611      3.5038296803222226
   266   1      8.8755034075272512      6.4249100779297086      5.3224557544713802
   267   1      7.7094142201497151      7.6671325973066695      3.6860578939752684
   268   1      9.0073714746911371      8.8362268849256314      5.4047024887051496
   269   1      7.6671980584175765      10.290550863086207      3.6851344584439314
   270   1      9.0764092561008152      11.591166325871713      5.5363434241176313
   271   1       7.773092886366225      12.704127022149596       3.768250341865004
   272   1      8.8906843722912559       14.09092792485758      5.4705878990520596
   273   1      7.8448139064072926      15.271978896229557      3.4688547513391081
   274   1       8.816628297399717      16.434425791401974      5.5606954137952291
   275   1      7.7040166222799806      17.758439207977183      3.6098029314174478
   276   1      8.9825457109495055      19.093740010968272      5.2928641448707427
   277   1      7.6802988632888063      20.648356963488503      3.6254643632647512
   278   1      8.9682872305641723      21.672365901255066      5.4604016842846379
   279   1      7.7784662617244074      23.115987925390936       3.632483142509352
   280   1      8.6921278570363327          24.21889550134      5.3714766749023548
   281   1      10.134982248495664      25.335618916230949      3.3876696683687091
   282   1      11.202581221400544      1.2854593611835432      5.1463066047405839
   283   1      10.192367253486045       2.627753649037269      3.4804812769279341
   284   1      11.403615445427452       3.732040299191524      5.3919735701176643
   285   1      10.090260477158582      5.2002366686825567      3.4913013601516014
   286   1      11.294128050917932      6.3809480615568885       5.565832377731363
   287   1      10.162710115402772      7.6648221578886364      3.4763492002321206
   288   1      11.339388153670761      8.8667638442062753      5.2704679011202344
   289   1      10.198677990104809      10.232103005198121      3.4511040181309007
   290   1      11.496959254260538      11.314427305147678      5.3134875844946601
   291   1      10.233742867520821      12.755512153296223      3.4289387420894846
   292   1      11.357706504770801      13.868906477805165      5.3743121427396678
   293   1      10.334097928764711      15.407055787285165      3.7194342975981742
   294   1      11.484611450006032      16.455043957743882      5.6307783111176519
   295   1      10.115437209048576      17.670402571188671      3.6780022896171838
   296   1      11.458932296187459      19.010561371104295      5.4254355305868209
   297   1      10.157540393307098      20.370613725903254      3.6733105799236356
   298   1      11.426056675109452      21.766460804132684      5.4433464617279643
   299   1       10.03209762072936      22.798600835078499      3.7689516608203641
   300   1      11.462754662172902      24.219767985060546       5.325603503554162
   301   1      12.624824881288635    0.077831902257931393      3.6787150646854201
   302   1      13.962113361133779      1.3434911485250491      5.4926475034997404
   303   1      12.684315592210783      2.6098642915898052      3.7153240599688946
   304   1      13.945226708134937      3.7940957558622794      5.4931773792407164
   305   1      12.628171455975867       5.192239903148816      3.6382111671363822
   306   1      13.844808678990546      6.5022290119102406      5.2239948238866889
   307   1      12.802462315965919      7.7655748673275875      3.4525497155029017
   308   1      13.813126900785594      8.9507314640492552      5.6175778962783669
   309   1      12.766045855442444      10.401503953347033      3.5421872192538566
   310   1      13.967625515670811      11.633422475531809      5.4803902026781355
   311   1       12.61108769960658      12.835893583874977      3.5974369177364784
   312   1      13.858980958612296      14.084859562675879      5.5672457688548551
   313   1      12.873734669993674      15.073395172158305      3.7848488493875103
   314   1       13.98301426033064      16.464240161447854       5.564628973272991
   315   1       12.86193271777133      17.682898393598673      3.6820073883396063
   316   1      13.859853511055949       19.09357932838552      5.2016244124090587
   317   1      12.750451273203202      20.393305041330368      3.4690676195466823
   318   1      14.173601728834189       21.70062304915961      5.4706061495391127
   319   1      12.835445286711757      22.861843576973097      3.6384645428913438
   320   1      14.003074189598761      24.456093894086479      5.2855174319826395
   321   1       15.26356012763555      0.1011559681063573      3.6215989508822974
   322   1      16.581600780481434      1.1275664018788432      5.4701752186655144
   323   1      15.040607923814909      2.5265846592202172      3.6397538739872184
   324   1      16.273745312298693       3.641686709792018       5.421271843783158
   325   1      15.120551375303412      5.0990761053573666      3.5952538206081628
   326   1      16.543485522853683      6.3116208970595569      5.1417779867608528
   327   1      15.297305639589265      7.8320139147449135      3.5569731297648546
   328   1      16.573335961770283      9.0028460409485955      5.4410563114034165
   329   1      15.247005624503721      10.564751545964844       3.778326997812429
   330   1      16.647625270375823      11.599133368417705        5.54695253269331
   331   1      15.250156114210736      12.882632372378504      3.7094696541079637
   332   1      16.510985011164141      14.004339947602944       5.471862755879612
   333   1       15.32048622053717      15.433646105926551      3.8602894824210185
   334   1      16.438319550421927      16.719653258150284      5.6149880415756535
   335   1      15.315584660616095      17.865400001574734      3.6456332546935015
   336   1       16.69313557575683       19.31326059579116      5.4003994898795646
   337   1      15.385618977567692      20.448541946010636      3.5413475061943149
   338   1      16.698727406622023      21.616220704549374      5.4344540032720685
   339   1      15.564870586609825      23.025779967564493      3.4980889795785637
   340   1      16.592723132031107      24.209384816920576      5.3251557740376052
   341   1      17.861793109327394      25.461471535913173      3.4520020571170669
   342   1      18.855451105794433      1.1067628334781341      5.2501192122678422
   343   1      17.718013151627709      2.4933381271350941      3.5837778283424653
   344   1      19.032026162190984      3.9559375870229037      5.3642636439240006
   345   1      17.521567059272353      4.9564801272381489      3.5298209627500099
   346   1       19.16231218302044      6.3703140345548821      5.4860129171877769
   347   1       17.96194773556795      7.4211842234271259      3.5745016201058664
   348   1      19.134649256435896       8.891674602149692      5.5838318361682333
   349   1      17.745176089731451      10.017376132682918      3.6968463702225347
   350   1      19.138225905283186      11.441186826721914      5.4455128740650167
   351   1      17.891770047434164      12.592978435382873      3.6641621849668224
   352   1      18.846585772993386      14.065459333599591      5.5048704590805411
   353   1      18.035296342031241      15.422869564602514       3.606243389807481
   354   1      19.075987046815776      16.550909875245036      5.3722649987066244
   355   1      18.014996869378688      17.952336428700612      3.6402400995891817
   356   1      19.203307431515622      19.245722121235762      5.5196825604227238
   357   1      17.960154979389749        20.4763196331294      3.6125093816652445
   358   1       19.21934630411431      21.787089104737596       5.501230474954423
   359   1       17.84859473407754      23.029563976429692       3.688201388948237