dump/Cu_560_0/steps_31 (written by ASE) 

2000 	 atoms 
1  atom types
0.0      25.526554800834361  xlo xhi
0.0              25.5265548  ylo yhi
0.0      36.100000000000001  zlo zhi


Atoms 

     1   1    0.042629064265383286      25.369037008047524   0.0085302629093803421
     2   1      1.3273783475920731      1.1960809389670017      1.6908563858820114
     3   1    0.025304616249641254      2.3969914898358469      35.942264194432447
     4   1      1.1569181165265441      3.6611621548438547       1.891385095832073
     5   1      25.488538793476547      5.0474147705686594      36.070057076314427
     6   1      1.2960722782631333      6.3210873529796254      1.6847123467223013
     7   1      25.365334796612981      7.6363589262890255      36.053318511113389
     8   1      1.1317246494811666      8.9251816542965159      1.7873825792820772
     9   1      25.354244826280162       10.23008768048731    0.054736641531610543
    10   1      1.0733790231692646      11.479404959742576       1.718212162906708
    11   1      25.420618711727027      12.855967542906331      35.855301350602431
    12   1      1.1775314660945826       13.97973336416065      1.6808632989789196
    13   1      25.453599468012516      15.254146983408047    0.020572118012319153
    14   1      1.1367274208372586      16.678783840453168      1.9331555750032297
    15   1      25.292327310629666      17.833705670837674      36.093848291001144
    16   1      1.1672354776520379      19.251613759599032      1.6380683733912651
    17   1      25.290375838666659      20.437774460504691      35.942790452600576
    18   1       1.307218734400265      21.715304100047796      1.7389911801885205
    19   1     0.19589499156360446      22.836727444809181      35.983618657577033
    20   1       1.129777937427364      24.127394080187212      1.7275603093141836
    21   1      2.6035848404436774     0.12485683557690096      36.019372239276258
    22   1      3.8268421278812799      1.2397716527443892      1.7328337673391736
    23   1      2.5380125236524078      2.5945302650758428      36.010812654767989
    24   1      3.6540696861009869      3.5387290388407102      1.7925309270867169
    25   1      2.5508051913801908      5.0618388030784907      36.046238216845005
    26   1      3.7285992436071669      6.1433769021666729      1.8996345933861114
    27   1       2.425803688821409      7.5969377978408232      36.068211945866061
    28   1       3.761542571301312       8.888280331880809      1.7795723742844658
    29   1      2.3245868161569123      10.121373320602101    0.052837059695070979
    30   1      3.7251163044852404      11.629776221863004      1.6819081504501718
    31   1      2.3798124804108243      12.687809609102151      35.969277070943136
    32   1       3.763083835263207       14.21871711947926      1.8077081235553794
    33   1      2.4179063858265746      15.339550568005713    0.042128436579014425
    34   1      3.7449032752258269      16.758750221159502       1.841875441655453
    35   1      2.4400144362961567      17.817132031948443      36.094320763011773
    36   1      3.7843980657106906      19.214953653494149      1.7316474693391017
    37   1      2.6363207869988279      20.412661202920827      36.092102030224936
    38   1      3.8692086755557149      21.702966975830524      1.7610695853920564
    39   1      2.7272317073187127      22.979638316075025      36.086082295171579
    40   1      3.8393656563140475      24.262281071601205      1.8199937471992589
    41   1        5.01207124770447      25.447779672962437    0.037667527106407403
    42   1      6.5155292794969606      1.1272595897312536      1.7045933869405296
    43   1      5.0987711404974325      2.4850905138483035      36.038384933985405
    44   1      6.2657277022467168      3.8666592690170276      1.7881062951366395
    45   1      5.1343128609665136      5.0191083508197689    0.036803339983180118
    46   1      6.2432288368920812      6.1496583783612975      1.8685926987043779
    47   1      4.9783843292742498      7.4412779551343853     0.18299600162147281
    48   1      6.2580722171687295      8.8344390255572218      2.0513267380739189
    49   1      5.0678356306243693      10.411119167992837      36.070895244598823
    50   1      6.3173583401937403      11.544022987127651      1.9693657013899741
    51   1       5.033628503462662      12.994728580074371    0.063297079231949618
    52   1      6.3418803798530039      14.058636220645869      1.7783092707555279
    53   1      4.9350809374351776      15.440418723532918      35.881433795652121
    54   1      6.3974587631216195      16.571426580672814      1.8776044785343522
    55   1       5.104724121663347      17.841291502232259       36.02150956568385
    56   1      6.2030738138960464      18.931142123013228      1.8509127608572162
    57   1      5.1092086703901769       20.31113440279092      35.988435099261665
    58   1      6.3004198561721898      21.348879830072221       1.707613174232709
    59   1      5.0929492907007434         22.932778416218      36.005394371191827
    60   1      6.4150179400340299      24.241779838941412      1.9258531600650157
    61   1       7.715321016114566      25.225373179408184     0.15938254948251818
    62   1      8.8620781619301621       1.162421470644452      1.9641754502393605
    63   1      7.6453437186729731      2.4453477405482795   0.0027039264798077072
    64   1      8.6861058157662256      3.7609009495083066      1.7122488887684655
    65   1      7.5539382366658234      5.0947743943077697    0.031185189087466363
    66   1       8.994605196225848      6.3080004802599072      1.7418655506587362
    67   1      7.4998166338011929      7.4422044926320314     0.19868145380013413
    68   1      8.8086493211150376      8.9657364941036128      2.1296932266389144
    69   1      7.5964473365686418      10.150008601343671     0.40457290470041118
    70   1      8.8971757248281484      11.421711095430938      1.8315902101538322
    71   1         7.7821859761495      12.844706455154377      36.098827606833311
    72   1      9.0737707993865282      14.086036534917904      1.7101805295857055
    73   1      7.6489932062111219      15.458684229041364      36.005393809737285
    74   1      9.0077589947700911      16.808553111422306      1.8609052512383308
    75   1      7.6837032771740708      17.837597916124736      36.049296194598838
    76   1      8.9027211067728995      19.289758777823621      1.9174556640204621
    77   1        7.69992432433523      20.195702529377414    0.046070971338735875
    78   1      8.8116085324737785      21.707049082347861      1.6947945173953161
    79   1      7.5665877663462409      22.863023055077317       35.99470887996911
    80   1      8.8699952351080587      24.193378108448343      1.9581952865196186
    81   1      10.046630697863277      25.511134598762414      35.980930988494215
    82   1      11.242937276107336      1.0500639510525853      1.8375404062901561
    83   1      9.9819984340439021      2.5372839745827402      36.071913156498091
    84   1      11.230656554804607      3.7366948466981804       1.714286467190665
    85   1       10.18145926059946       5.160449223124572      35.956237668127102
    86   1      11.309612052202985      6.2566205877709322      1.9023785703608163
    87   1      10.292524567848112      7.6971644230481662      36.081546481525429
    88   1      11.344400243838843      8.8903305235958872       1.928750319925439
    89   1      10.043756980297983      10.057328362653276     0.16214584651652342
    90   1      11.358470317136012      11.526054473622754      1.7461309186406195
    91   1      10.295221955839075      12.623656398451104    0.068536144851873315
    92   1      11.507736026012196      13.991642841780191      2.0301611172865384
    93   1      10.308031972487768       15.19619541313638    0.034008063558985668
    94   1      11.435282395295705      16.551972448316008      1.8550676885210799
    95   1       10.35547632692931      17.832226305162319     0.12380275144188331
    96   1      11.526896049417173      18.895865087016077      1.9093150884047867
    97   1      10.113630914751564      20.376555303186706      36.054271440453505
    98   1      11.425967111762795      21.449328510587641       1.886128414144298
    99   1      10.203003104288628      22.878052125639325    0.071557568811931538
   100   1      11.589771880372556      24.105042349424519      1.7423736767655211
   101   1      12.817459221975916      25.372227029117013    0.064139955871439849
   102   1      13.991746807925592      1.2387331060423441       1.960715574984339
   103   1       12.69564353523298      2.5605119902565669    0.056661885554979086
   104   1       14.03817013271528      3.8363045216712321      1.8583963269465595
   105   1      12.612871805244311      4.9945576176321493    0.055566028614657717
   106   1      13.912179695007874      6.3540558913672411      1.7640753318247342
   107   1      12.651589648334664      7.5061350305326053   0.0057630704450275655
   108   1      14.102262869330234      8.9327053908556984      1.7782806198355041
   109   1      12.546451295453403      10.275784523261992     0.13169463663983852
   110   1      14.042659752652426      11.306295665036725      1.8907799780828214
   111   1      12.755666619475996      12.785330219215005     0.18908432169351946
   112   1      13.895083658269691      13.863464435330528      1.8856873308194406
   113   1      12.786270955554807      15.298649308192298    0.017212179838861637
   114   1      13.871281440161514      16.570892654235994        1.82892325126727
   115   1      12.769981315815732      17.938166600569009    0.092373473053839819
   116   1      14.182287274793209      19.151764310550206      2.0059311679458331
   117   1      12.621132513138235      20.569569896288897      36.024960418459834
   118   1       14.04498178856077       21.77913863688488      1.7503497848434681
   119   1      12.813987653888127      22.955607309271926      35.889408597995882
   120   1      13.963515401310815      24.159708331627595      1.7450183538604271
   121   1      15.387279972661501      25.520912657136609       36.09433156399826
   122   1      16.551217224087161      1.1327582612124867      1.8173159341638219
   123   1      15.151864415313428      2.5153789811014056     0.07139665148040425
   124   1      16.483427265288046       3.743305519508525      1.8072485257968305
   125   1      15.166436470886959      5.0592318925776629     0.15078797767653226
   126   1       16.45340522274963      6.3017356194769842      1.6833486616088507
   127   1      15.165083192492887       7.591673253371666      35.945967146193887
   128   1      16.540803985933984      8.9683866616133248      1.6989844575273085
   129   1      15.174615711387405      10.247517880412369      36.010525778930493
   130   1      16.574170031882691      11.452334155018365       1.765968545731299
   131   1      15.248801311102888      12.650812871502847     0.11960515740283871
   132   1      16.463763147300856      14.077730296283878      1.9974852267266314
   133   1      15.020931655252292      15.306865826601532     0.28872049005049139
   134   1      16.588305551248492      16.533992680247167        1.94319034391025
   135   1      15.268906453225574      17.805683015026784     0.11774567386158893
   136   1      16.657719688612154      19.207960479938428      1.8646006485492985
   137   1        15.4530059276399      20.254793084112794      36.042232877659551
   138   1      16.536810007481346       21.74054842059709      1.7849486313733438
   139   1       15.38328860164517      22.945049013089402      36.088751077456173
   140   1      16.616717186525364      24.172368739884099      1.7961833507366118
   141   1      17.712773002233533      25.417858476314098      36.012952200144746
   142   1      19.119022452735244      1.3977558547037399       1.974011907215163
   143   1      17.891905501094705      2.4041429336939539     0.13333516117664901
   144   1      19.193703061175892      3.8126180103765641      1.6939558742938186
   145   1      17.752046036531578      5.0087468250284042     0.12668532542311384
   146   1      18.979935468182369      6.2368132194805694      1.6984671843945205
   147   1      17.955189646262653      7.6492604666828967      35.933507712594427
   148   1      18.865793875347389      8.7164044905620663      1.8991214842802617
   149   1      17.987695667891899      10.108663894823845       36.07042941652881
   150   1      19.225713602104875      11.552051115620083      1.8214710142907036
   151   1      17.828409136895086      12.802694497590695    0.031833772340723938
   152   1      18.946023308467115      13.986858772746293      1.7583287975822259
   153   1      17.659441227002866      15.264038817130761     0.11257974455378408
   154   1      18.996868346659618      16.593109108228674      1.8313098492283093
   155   1      17.853127997014312      17.767615201628203     0.20317840359500661
   156   1      19.100039711584081      19.154009094213244      1.7633159527321369
   157   1      17.935829005351277      20.554970965066779      36.082979874985263
   158   1       19.15109307721934      21.886464736204616      1.5864624139121712
   159   1      17.932425752679801      22.945471711032617      35.949832654195575
   160   1      19.013992491235701      24.396766880964496      1.8615276251837725
   161   1      20.157642714267094    0.055259087227823231     0.10627177216434788
   162   1      21.503605583575744      1.0329250830604961      1.8609348722268368
   163   1      20.400013453431534       2.700051966737008    0.036035042901801262
   164   1      21.815098191049149      3.9435551104996764      1.6611249643765638
   165   1      20.385979611250988      5.2022548354764577      36.087703620964078
   166   1      21.782786947382391      6.2387589744727521      1.9130216815838827
   167   1      20.347118829343653      7.6584739057251188      36.092001273572052
   168   1       21.65126264779833      9.0389835485700836       1.628591736762258
   169   1      20.343920891932068      10.585144293298294      35.997246715011151
   170   1       21.65938423688554      11.635556627835191      1.9008411733755466
   171   1      20.296550265463001      12.962417232077685    0.007136660130618094
   172   1      21.521069939838316      14.156464153983386      1.6281179432105197
   173   1      20.168301982789384      15.440131061328431      36.011295765006956
   174   1      21.571758439963705      16.719750163824003      1.8615846621824739
   175   1      20.301006505673442       17.89137655206137      36.096108157956806
   176   1      21.637346912992445      19.067429156237989      1.7888040563137471
   177   1      20.405898710522671      20.307341303718509    0.056357620985704814
   178   1      21.675135311940505      21.666733390113929      1.8783481714481338
   179   1       20.57545530368991      22.989427518740239       36.09402828287476
   180   1      21.718749074771893      24.146683731925194      1.7743072919947274
   181   1       22.74548036811634      25.308310068383555    0.036292521758446175
   182   1      24.327414415676095      1.2129917747915469      1.6531769249378714
   183   1      22.847799529376008      2.4542051432151362     0.25709434143408322
   184   1      24.309378141611461      3.8174579135849589      1.7392444196834613
   185   1      22.919527772107816      5.1431488463118402      36.045107742777851
   186   1      24.297124988536758      6.3973669465490932      1.6796572506790786
   187   1      22.886084242734981       7.537092581492602    0.075876858402853103
   188   1      24.114669257168106       8.920346895043707      1.9207625899291778
   189   1      22.883845624856605      10.337811000045448      36.068780802308055
   190   1      24.071086872487562      11.565113857459931      1.8015023131799222
   191   1      22.970410504967482      12.867390307370266      36.065201577912731
   192   1      24.117428516035851      13.997011589976699       1.973747753540751
   193   1      22.857000296571172      15.406921358306462     0.24844214897785818
   194   1      24.139149068598012      16.492402455352394      1.9725432083533281
   195   1      22.940462176701043      17.918493700150407      36.089531417160487
   196   1      24.208806817947437       19.11597870275742      1.7301372200506182
   197   1      22.855487738933515      20.529824416691916    0.014981424623306353
   198   1      24.066989085219177       21.61247320297278      1.9397570922919389
   199   1      23.079794033467962      23.006512054804084      35.964823043922664
   200   1      24.270992547826307      24.069096005758976      1.8507955884036398
   201   1    0.074543157113266659      25.421713519477237      3.5207272760341208
   202   1      1.4593452903937154      1.2060413141134609      5.5075101324835227
   203   1    0.075474818670172306      2.3738074302852343      3.6013887100618964
   204   1      1.2774246295304823      3.8251068510400241      5.5794484107421605
   205   1     0.03188856297612299       5.069186012060527      3.4798839486070507
   206   1      1.2142285621960776       6.183405540224336      5.3484044664079669
   207   1   0.0041767563362347269      7.6850067341322008      3.5237134186093408
   208   1      1.3594689888304898      8.8123242957366053      5.3901286060021123
   209   1      25.400276993392275      10.095812036920698      3.6025836995826914
   210   1      1.4366832929806377      11.507283217962724      5.3870123322322989
   211   1     0.17686135121520566      12.777820074592837      3.7627857850442807
   212   1      1.1240427134695934      14.121121994022978      5.5236381272800665
   213   1    0.052025426081312567       15.15240494823003      3.6442967300610931
   214   1      1.1087328162388783       16.63193762524444      5.3320271246822006
   215   1      25.341155178059722      18.064923670186296       3.597689418227584
   216   1      1.2709536742044862      19.140038162067096      5.4560922036938013
   217   1    0.033039570674066078      20.419125421576794      3.6723733619101528
   218   1      1.2972336579528554      21.704426622848413      5.5584576028444586
   219   1      25.525842829602539      22.840173517907527      3.6391566410988574
   220   1      1.2683669011534602      24.296832540848428      5.4277042006165903
   221   1      2.7204758529998481     0.05876498143588231      3.6413829426409849
   222   1        3.87901619205374      1.3757138467438894      5.3298144292610115
   223   1       2.555475772783474      2.5854163831819834      3.6345946648843799
   224   1      3.7562283662689775      3.6835758037545405      5.4372154685500282
   225   1      2.5091169338027979      4.8870234887111481      3.7397680338622972
   226   1      3.6557881500556371      6.2980846402039052      5.4866831471732338
   227   1      2.4146350373532441      7.6071642832792472      3.4593610502202856
   228   1      3.8572482360401215      8.8799458802305171      5.4975441167235424
   229   1      2.4566745137914445      10.084998047494944      3.3980064619039143
   230   1      3.8760743819628272        11.5605288922435      5.4281349121181428
   231   1      2.5127559872108143      12.895945023477077      3.6965238329466334
   232   1      3.7309719839021485      14.129045740147594      5.5392936212285235
   233   1      2.3679788894988936      15.526710559372837       3.609891513420735
   234   1      3.7614485622428049       16.58932143611813      5.3706990983517233
   235   1      2.4098206226131516      18.046436812311853      3.6381684206656741
   236   1      3.6700649872206594      19.210962811469255      5.7306644553892356
   237   1      2.5932208041464766      20.564959660488665      3.8380543346902645
   238   1      3.8361527213191882      21.730407598979333       5.686788146743833
   239   1      2.4381889203555236      23.082700265286594      3.5342043440816719
   240   1      3.7811243929234379      24.282222322571215      5.3562638968261034
   241   1      5.2334079192292293      25.394639685002677      3.4474741273858065
   242   1      6.4825098571902542      1.2107833354331585      5.4456887447810107
   243   1      5.1214509757485924      2.3904398004836214      3.3732989692723887
   244   1      6.2893892671706197      3.8695296118918341       5.185557705078601
   245   1      4.9198674487917957      4.7455436579776347      3.5140294969177139
   246   1       6.256661427134965      6.2068758157946711      5.3815150177003286
   247   1       4.857766478213347      7.5311221660745646      3.6623177056187473
   248   1      6.2721370086521429      8.8128155652092737      5.4663929285843711
   249   1      4.8449753795424089      10.144956524488521       3.683838804226601
   250   1      6.5291564262742776      11.357716718596171      5.5031473532319097
   251   1       5.054635410168868      12.617629047316351       3.753596439482485
   252   1      6.1960279763322559      14.177649686943976      5.3025312537766798
   253   1      4.8809382017174237      15.345770441744195      3.6671780706971395
   254   1      6.3877773277322953      16.633805514724987      5.4645369417319296
   255   1      4.9116714701845758      17.819251000018486      3.7501191416348747
   256   1      6.4375548449624533      19.104105493362816      5.4435854325040767
   257   1      4.9693610707379445      20.399125653221041      3.6530636461518937
   258   1      6.2659526982547993      21.631086920452482       5.403625373577694
   259   1      5.1026362603691373      22.823450376486896      3.5818760858272176
   260   1       6.363131367092798      24.191409378604138      5.5011610898998997
   261   1      7.8259532728486274      25.370474779171342      3.8209197882869863
   262   1      8.9765683298852288      1.3006019898550931      5.3064422794057124
   263   1      7.5772608846163623      2.4234242201729841      3.6913440742058974
   264   1      8.7114035840617863      3.8199515263786017      5.4372781969679389
   265   1      7.6598690026576595      5.0932662465157836      3.6290496553693314
   266   1      8.9067707863273053      6.3133573396588982      5.4648169938366475
   267   1      7.4988177290741458       7.548363171247372      3.5921954938708258
   268   1      8.8312577420600711      8.8791158295822452      5.0839981311973323
   269   1      7.7244365685728864      10.367084959519639      3.5516969130986484
   270   1      8.8343658133907059      11.298254448594713      5.5490838232414479
   271   1      7.7273358692709548      12.775789018182984      3.7252848848450739
   272   1      8.7763692213005609      14.035066893603577      5.5830941203760744
   273   1      7.6322903424080337       15.13816469531314      3.6892077786607302
   274   1      8.9631520134121736       16.46545953234115      5.4380718632160825
   275   1      7.5843837690601266      17.847539559505289      3.6645646834757648
   276   1      9.0190933602937697      19.033161547351707      5.4240405187450742
   277   1       7.672228294964988      20.439873537376858       3.631265136838886
   278   1      8.8674395908100294      21.663724025949435      5.5136589543542707
   279   1      7.6639357437069027      22.876403999435158      3.6349327699154013
   280   1      8.8787078036228788      24.224425365442155       5.519228557563256
   281   1      10.226252500708013      25.444190990110133      3.5650387683311351
   282   1      11.468686811058014      1.3883801709084533      5.3587319283355006
   283   1      10.099097188734635      2.5797250081406937      3.5598224877757048
   284   1      11.426518234961163       3.764587151618473       5.339886070205643
   285   1       10.09356011926087      4.9340388002864941      3.5486822193288066
   286   1      11.417415808428425      6.1920042239358111      5.0912406300650543
   287   1      9.9357257402441821      7.4325355558534971      3.6539561082477325
   288   1      11.411065363224258      8.7430940199767342      5.3019558707445009
   289   1      10.164886413004195      10.257396859012706      3.5628380855709341
   290   1      11.535394618575433      11.398241671407124      5.3462206958551421
   291   1      10.055203483652917      12.700637835684342      3.6811145312779998
   292   1      11.435160389425278      14.078851240066093      5.4823861029213887
   293   1      10.192743888421202      15.199658779874817      3.7649471150056861
   294   1      11.488499663042736       16.50188404179497      5.4437723811283014
   295   1      10.151918901087534      17.937656539542754      3.7504333005160353
   296   1      11.631574246551994      19.175740683857349       5.321141783128815
   297   1      10.164700379254008      20.329360333460006      3.6885072993539354
   298   1      11.343859964830797       21.74480886130015      5.5600245287797847
   299   1      10.252155001297526      23.029731617475949      3.6936155621564355
   300   1      11.314072261826155      24.379776524412982        5.33681498006169
   301   1       12.64946025645118      25.427944113100359       3.533051286840716
   302   1       13.96858310235641      1.2643530632795286      5.1583321060269967
   303   1      12.552938128749609       2.447679265455359      3.5323179326425369
   304   1      14.065856252988352      3.7366748910171435      5.1721384793024336
   305   1      12.700634163814307      4.9342572701847063      3.4052907165384698
   306   1      13.927764635647788      6.1750295138506326      5.0932557585385201
   307   1      12.611740905314266      7.7822583445552294      3.5134652260342372
   308   1      14.022625587946385      8.7250476848331324      5.3328429166268432
   309   1      12.716700641612919      10.129391721609506       3.719430713787641
   310   1      14.202693158041725      11.419990379335985      5.3987997661934006
   311   1      12.922145562401896      12.757721398827833      3.7183587317336628
   312   1      14.011740236119923       13.91343816500531      5.6292907783142523
   313   1      12.590164637981943      15.315524402696687      3.6132052480063903
   314   1       13.98571414115078      16.342055698622133      5.5526461534320175
   315   1      12.757019932552277      17.724602713232482      3.6869720438894427
   316   1      14.096209399666403      19.115243370119899      5.2697476280553914
   317   1      12.840461470450267      20.362188086803666      3.6317243437398461
   318   1      14.183390806079672      21.622740293672649      5.3644285210216545
   319   1      12.738593944050717      22.953289427606901      3.4147319153386442
   320   1      13.800458398908718      24.115227497943767      5.1881610389462054
   321   1      15.374520539016109      25.474484237078816      3.5548334833616999
   322   1      16.773611057580688      1.1840619131050154      5.4363886885070638
   323   1      15.515746263157084      2.3306221432103955      3.5612540726553323
   324   1      16.693667129642158      3.7506967258922987      5.3640102224452839
   325   1      15.443232730039108      5.1435594189505096      3.5171787520021911
   326   1      16.433602377675093      6.3717534672886682      5.3300576795040078
   327   1      15.384115895071618      7.6083179604560032      3.3876759301996211
   328   1      16.648045827039276      8.7830581910131151      5.4728314456272535
   329   1      15.290046206806094      10.191907219466009      3.5403039552286386
   330   1      16.674874035577353       11.39726059343532      5.4941456505061117
   331   1      15.377145388226877      12.764344508522429      3.6260970462819215
   332   1      16.461811956916346      13.985781227180107      5.3751655104880101
   333   1      15.122169409552471      15.269647185450168      3.6954090556201979
   334   1      16.298229668678413      16.614488903730326      5.6156858773405656
   335   1      15.387732522378922      17.825734527332664      3.5369268223629562
   336   1      16.483121160905753      19.176698641405366      5.5775955089173097
   337   1      15.478652883671872      20.387860282773129       3.609271723253344
   338   1      16.464730017718672      21.661597222967011      5.2295405148086935
   339   1      15.223501556574512      23.106222239213199       3.566637259286733
   340   1      16.571255369950478      24.254254730552347      5.3306061943241705
   341   1      17.884814965337483    0.042956620734668827      3.7502308854831807
   342   1      19.194829450315996      1.4139134316480282      5.3736051724333826
   343   1       18.05324295345326      2.7439627663837172      3.4849453572283196
   344   1      19.518125143099059       3.846953265171368      5.4781319432020315
   345   1      17.943403111460718      5.1278822501752837      3.5662801200383907
   346   1       18.99939879228916      6.3515389049677147      5.5213398516849495
   347   1      17.803123821366594      7.5673417406699235      3.5642742514124972
   348   1      19.254066731206546      8.9267786879786915      5.3317451347757627
   349   1      17.783707013957265      10.158612125762764      3.6372001093976527
   350   1      19.089171662010923      11.619957833057144       5.410634449830976
   351   1      17.880544295019156      12.703804998802987      3.4604490180109444
   352   1      19.039038518781911      13.937625818330291      5.1426322447940764
   353   1      17.724093578383258      15.337501576060843      3.8060874118995711
   354   1      19.225655302415149      16.515472967472924      5.4714142879912364
   355   1      17.879361415238503      17.822036607967078      3.8009808857776406
   356   1      19.162144650806233       19.23241765480266      5.5326635048093875
   357   1      18.034896567040057      20.363371566066004      3.6329716265700593
   358   1      18.955055679126797      21.732038779703235      5.4136010786007791
   359   1      17.906442829875708       22.97224436036295      3.6543014911768728