dump/S5_s00_n130_r1024_560_5/steps_1 (written by ASE) 

1554 	 atoms 
1  atom types
0.0           114.158223526  xlo xhi
0.0      7.2199999999999998  ylo yhi
0.0      22.831644699999995  zlo zhi


Atoms 

     1   1        2.34662433847729      1.7591271151758898      4.9096362047520383
     2   1      2.2629093406165319      5.3686426353196239      5.1380558557268259
     3   1      7.6692125292543087      1.8292611374220058      5.1009157284075712
     4   1      7.7520952002889558      5.4007075216623406      5.2737025685714665
     5   1      13.551660892370787      2.0662792063570339      5.2509850097776036
     6   1      13.694202501271368      5.4087051662751024      5.3480404821226699
     7   1      19.374186915075565      1.7516165374298374      5.1605463651029364
     8   1      19.412942571610149      5.5111172697755206      5.0909298938152387
     9   1      24.970996952860116      1.9425220425111605      5.2305552215875535
    10   1      24.884546501954709      5.4612294571467421      5.5109926888024106
    11   1      30.689879027376112      2.0019832430148781       5.557818357311028
    12   1      30.812752875657349       5.664286425808104      5.5399726237791436
    13   1      36.700305775271545       1.971759133305877      5.2818254051329037
    14   1      36.542094839371316      5.4762306810127921      5.3712584287712737
    15   1      42.277487883125332      1.9953152250475634      5.4583174344098486
    16   1      42.339123621430495      5.4631459919246206      5.4258891502675022
    17   1      48.200933226644111      1.9633103752214802      5.6369491877914193
    18   1      48.149812405125161      5.3981626146566635      5.6811337097116077
    19   1      53.900374542546153      1.8577465046161756      5.4298307348913752
    20   1      53.909661824292712      5.6840985327497489      5.4523232054684119
    21   1      3.6049560313693463      0.2516895243251342       11.58161836027501
    22   1      2.1970215175379733       5.647306171270345      10.752045875944509
    23   1      7.8663091797420517      1.6652752192772797       10.90296569976906
    24   1      7.7562890929263055      5.3621793090956755      10.855577147332115
    25   1      13.659632043959222      1.8030962414491203      11.173345427659228
    26   1      13.453722265552511      5.3338520726642642      10.857831940073826
    27   1       19.18887113861015      2.1249966165214924      10.981083595148718
    28   1      19.492683152924812      5.3984207507849193      10.957598014560332
    29   1      25.204376448790914      1.9124628813857782      11.119797896128704
    30   1      25.177663566392958      5.4137153078971485      11.365734656632885
    31   1      30.994515193389852       1.789438142797557      11.191343212914425
    32   1      30.957200964301148      5.3665234595973379      11.097568076571434
    33   1       36.81982266784987      1.8881700542299229      11.159284788347183
    34   1      36.746801614489506      5.5271144469684002      10.978335697141745
    35   1      42.406918639732282      1.9615589664767852      11.292301794224011
    36   1      42.274514185322147      5.4329882809206032       11.37522209084206
    37   1      48.029137817874428       1.846012297871777      11.280292275420278
    38   1      48.007029497363568      5.5628551762419507      11.300610305586405
    39   1      53.898391792548551      1.9103004046261571      10.983565824131205
    40   1      53.632255241613578      5.2791472672669535      11.142661095483493
    41   1      1.7245030541277038      1.5916063898182871      16.326222600009682
    42   1      3.9313576986636352      3.2843693557589244      17.007362115138861
    43   1      7.8168112168710824      1.6909377633347709       16.51556581698868
    44   1      7.9255160323458895      5.2976401437845126      16.600256417619956
    45   1      13.624925526616295      1.6521912373919563      16.729657559712994
    46   1      13.744820612239863      5.4579010171969324      16.725729773988487
    47   1      19.366592262575338      1.8791383235946282      16.803699332453803
    48   1       19.58782376809549      5.5369452203942062      16.771056112536478
    49   1      25.344879463407903      1.6938301970336691      16.636978634871987
    50   1      25.351994111663245      5.4069712866595729      16.690584582969464
    51   1      31.046725397703316      1.7466900003911268      16.770017581348377
    52   1      30.700469067447791      5.2222687124115961      17.042983958804044
    53   1      36.527357016350145      1.6460968701118177      16.812029703148283
    54   1      36.435663973387811       5.449328529119807      17.028336395482135
    55   1      42.276487503634982      1.8982669923325119      16.913749779611816
    56   1      42.366660172086306      5.4424967145891223      17.138644978864154
    57   1      48.037411871716898      1.7822251693643349      16.809935638506975
    58   1      47.974247829244902      5.5055660832045712      16.999056698594462
    59   1      53.794635119108051      1.6948307627606203      16.839816454546529
    60   1      53.714313275652053      5.5943030108556835      16.954669676974628
    61   1      2.3864468204786395      1.6549259174870281       22.19187712336943
    62   1      2.3841875122086682      5.3601605318430368      22.229800785209534
    63   1      7.8464452343072901      5.0728915494046687      22.178942374270719
    64   1      13.485898331984739      1.7196839972649851      22.209755537776093
    65   1      13.646949577899905      5.6509166745537671      22.614261318158633
    66   1      19.490008833895452      1.7866521755316318      22.626419336556953
    67   1      19.677796022405918      5.4122069474354149      22.221159703056614
    68   1      25.076409289633585      1.6284761293207095       22.55226471356292
    69   1      25.062723254565949       5.587169453708877      22.593946011138289
    70   1      30.796532728945458      1.6499444917479076       22.50802348865615
    71   1      30.830574751781192      5.5103991513924839    0.062206015864106727
    72   1      36.289983049667924      1.8738653774717435      22.775443100897949
    73   1      36.499188875130201      5.3080303648958784      22.625480648777234
    74   1       42.32385661980981      1.8755212661431522      22.492154558184648
    75   1      42.379616337417929      5.4457905155631341      22.439116739013865
    76   1        47.8750172186109      1.6917987222713944      22.623146975390622
    77   1      48.141401239764129      5.3421042264993002      22.694514479253325
    78   1      53.871362205531838      1.9213176524370026        22.5355898609339
    79   1      53.838478347870314      5.3283803077060305      22.515841377037646
    80   1     0.12901400369408556      1.6095986909329087      22.124918691346654
    81   1    0.080389945799325679      5.0801146011495026      22.176249261790126
    82   1      5.5670570107634454      1.7822665787242109     0.43098505505162577
    83   1      5.7810212435885973      5.3342912917426188     0.57184986024958406
    84   1      11.309646935148839      1.8074017544883518     0.84359267372094404
    85   1      11.360155629459486      5.3805473912259716     0.68883333671022806
    86   1      17.232229160088817       1.779115787807005      0.7254922588025462
    87   1      17.160084191446959      5.5440496652747679     0.39728018378905355
    88   1      22.774641682676847      1.8875806115644764     0.81621115552580614
    89   1      22.929146165069145      5.5495378577205168     0.56083458668875719
    90   1      28.496882341268485      2.0455987135002518     0.99188135436925173
    91   1      28.509521905937486      5.5243120559816985       1.160216098551679
    92   1      34.131333128447054      1.8344145042941378     0.95744749628895576
    93   1      34.107319937318863      5.3928085399804235      1.1862002961097919
    94   1      40.017443041702379       1.955669915667789     0.99336658781765019
    95   1      40.104356626675397      5.5033509871037856     0.77719661819361319
    96   1      45.823861599936869      1.7952537438499367     0.93214146564046396
    97   1      45.660996438643203      5.3918597095208991     0.90748090782272484
    98   1      51.491073073846835      1.8159082999961642     0.96460630687488857
    99   1      51.300180327392994      5.2736277986085653     0.98704855236988176
   100   1      114.01039192086135      1.7964106628602787      4.7805180546343244
   101   1      114.08406626742206      5.2457612485501475      4.6878255583644108
   102   1      5.2950066784537571      1.9297229803971503      6.2334373254097537
   103   1      5.5031253845996426      5.6917989068734727      6.2374024622898743
   104   1      11.357359203641717      1.9102544105154444      6.3214459828696761
   105   1      11.193565503674513      5.7435479591651619      6.3564191245115031
   106   1      17.135827229405646      1.7713375817145574      6.1626356586690942
   107   1      17.077751782953641      5.6409361852814266      6.4396532985269914
   108   1      22.831477226804139       1.938485826063107       6.601465507618312
   109   1      22.703570737844082      5.5188894011534089      6.5871048915371713
   110   1       28.45706376676992      1.9485766091175869      6.3133337017648321
   111   1       28.50582091279729      5.4746022263529657       6.409072513596743
   112   1      34.133497343299418      1.7819603703448108      6.5589284812674826
   113   1      34.210418721616421      5.3519808056258515      6.6099510907630235
   114   1      40.152550684368904      1.9781401476608589      6.6579882089227551
   115   1      39.782421312591211      5.4464463400402909      6.6463323669532972
   116   1      45.629222089466197      1.9841142960309588      6.6088004636483202
   117   1      45.837786308487765      5.5106247256412928      6.6268868308520172
   118   1      51.575682998173967      1.8315183614891586      6.6117652420631163
   119   1      51.657630560835159      5.5500299530407737       6.777525273685729
   120   1      1.8865170358807466      1.8876736297470753      10.960777806399179
   121   1    0.060060797428220125      5.2189793036587595      10.422408154016219
   122   1      5.4953971919849014      1.7628761530967358      12.022734968437872
   123   1      5.5111684259770195      5.2743693750086305      11.846091935286379
   124   1      11.253486960576284      1.7738763044378332      12.105607616932241
   125   1      11.216031541814733      5.4926372819724536      12.001838069389109
   126   1      17.092440624892713      1.8397377174970446      12.243709292794708
   127   1      17.013270069104959      5.6063624483655099      12.122494121427174
   128   1      22.696785041791465      1.9238353891323319      12.443107684692645
   129   1      22.841497374648835      5.6489503450722491      12.203778980413198
   130   1      28.723445955596674      1.7493215035500747       12.20427701565225
   131   1      28.717456015204345      5.4065813297063219      12.251902911876773
   132   1      34.404886736633571      1.7974252557915922      12.223154194144257
   133   1      34.489534723734081      5.3873134093021431      12.167100723333167
   134   1      40.165444667883307      1.9548044237346121      12.267275599057701
   135   1      40.000967660758313      5.5019040578327223      12.185131707548566
   136   1      45.730168417291608       1.924194076940198      12.256133477828397
   137   1      45.815513982539635      5.2557409232245078      12.519141133715062
   138   1      51.390264117689746      1.8084625332901059      12.474604535710313
   139   1      51.453876556397461      5.5188170549017093      12.280769042825915
   140   1      112.40259246275879      1.7678503216503074      15.279312235861502
   141   1      1.6805548754187849      5.3760632198447604      16.540527432111375
   142   1      5.4974388699226102      1.7314712203495033      17.532476018017221
   143   1      5.6129536573107979      5.1767255634391551      17.663843646083631
   144   1      11.234141769788298      1.6967447092598962      17.752453165312662
   145   1      11.217355495915495      5.3492139465092103       17.90061242078384
   146   1       17.27321633985936      1.7737807916550572      18.073351917434863
   147   1       17.31968416164133      5.2743586642092177      17.726038076578419
   148   1      22.781180191969955      1.7144132365717921      17.708788787123382
   149   1      22.806646245505316      5.4690202463340558      17.667323469844099
   150   1      28.542856610342994      1.8392295630104476       17.97671130727889
   151   1      28.446252453140037      5.2596543577897616      17.991394096995329
   152   1      34.295626989276194      1.8926537144255984      17.883542046295322
   153   1      34.146848113810911      5.3687848733633601      18.143217118008668
   154   1      39.901976711164266      1.6816623221641664      17.979596323820449
   155   1       39.92302991768512      5.4580191688768656      18.032545288833528
   156   1        45.6766611531595      1.8684792557558811      18.021348866992124
   157   1      45.646496462920439      5.4589462176098191      17.966259236478773
   158   1      51.634976639986185      1.6971036887933928      18.134732731768317
   159   1      51.476518020115215       5.244063381354783      18.057504706786666
   160   1      1.1724928005901092      1.6386325510567923       2.578626384348301
   161   1      1.2713753321795238       5.267570480983049      2.5823927816553343
   162   1      6.6144754588127066      2.0189156900927601       2.818968979636431
   163   1      6.9726996010319526      5.2661681168006735      2.8541984298608747
   164   1      12.487414262650072      1.7975942173345143      2.9356017568686634
   165   1       12.41780298092498      5.4765036312711155      2.8601263246364605
   166   1      18.239679889600193      1.8936436065559352      2.8686767463240215
   167   1      18.235643463549604      5.3895227466692015       2.953014229874527
   168   1      23.847056228157168      1.8249160520822381      3.0028495332842056
   169   1      23.935164053219381      5.3878760169839532      3.1019913922378763
   170   1      29.595673880256921      1.8369880044013525      3.2179372548884659
   171   1      29.592973022991814      5.5393145230987377      3.1561635191731154
   172   1      35.002744286780548      2.0748830072512194      3.2369961215422118
   173   1      35.307639500397784       5.142688290142492      3.2091862268049836
   174   1      41.169245510427409       1.783681240764398      3.1068147992783381
   175   1      41.293358423103207      5.4532520071758919      3.1533901595805927
   176   1      46.741568085984547      1.8173024698418143      3.3393346305097644
   177   1      46.956615015281436      5.4336446405323278      3.3309508294803751
   178   1      52.728418018887204      1.8425647065838453       3.200385535038651
   179   1      52.499852527732365      5.5803367135644413      3.2916269340733448
   180   1     0.75131751534689861      1.8703388057448844       9.024296306378611
   181   1      1.0927932687938755      5.4158893585645593      8.1528593637140077
   182   1      6.6075428767091582      1.7456526854588434        8.73503357081165
   183   1       6.523143280766333      5.5527800858491165      8.4910289202055615
   184   1      12.668220894532103       1.809841467572598      8.7454597082187284
   185   1      12.386740342718582      5.5112026875479536       8.630134972585239
   186   1        18.0185014854959      1.9925395220629127      8.8355140212948626
   187   1      18.177812233711279      5.4060770160541134      8.6610616535887228
   188   1      23.968112140814576      1.7907256240186469      8.9589787245618577
   189   1      24.094618970169595      5.5686327785874736      8.8520927952701047
   190   1      29.542290614887886      1.9037196120388031      8.7570025244347391
   191   1      29.607476421335519      5.4967707908184265      8.7029790187707086
   192   1      35.428757496081928      1.9661897652508558      8.8755271469448385
   193   1      35.461137501350237       5.356099958421126        8.77850182727299
   194   1      41.225787673605552      1.9297785728332695      8.9691985638282503
   195   1      41.238630653280886      5.3810920163229188      9.0509065128404753
   196   1      46.846903071528921      1.9119436164750159      8.7935212270201486
   197   1      46.826394898026372      5.2991910912999405      8.8668063687549346
   198   1      52.534688561232713      1.8322428156285211      8.8777449921037395
   199   1      52.664004633333946      5.4037394466451056        8.94365723582413
   200   1      2.4368417522350971    0.049077468509679811      14.428347439337434
   201   1      2.5019928813215944      3.5901190114580714      15.135803517981561
   202   1      6.6802145239690338      1.7965682880592944      14.376042148403409
   203   1      6.5606108181075999      5.3360352848008166      14.133197046591723
   204   1      12.539772424398038      1.8089149190426246      14.418969841355961
   205   1      12.456631836311473      5.4009430975328234      14.503880562476432
   206   1      18.314018211283589      1.8612676743208112       14.41508422527218
   207   1      18.327638838598858      5.5469378415761073      14.571839734570327
   208   1      24.167498595030633      1.7672112826575757      14.457143771481226
   209   1       24.08434754484815      5.4862505957001249      14.624334173847895
   210   1      29.850341027722955      1.9001218811877363      14.559586896936418
   211   1      29.958837240367547      5.3613312714075327      14.578702100944639
   212   1      35.610560438099242      1.8409621888972378      14.632059464458724
   213   1      35.629138343864781      5.2943964259753713      14.710141736801409
   214   1      41.114617758789535       2.244535391374709      14.721364419335307
   215   1      40.980813363638731      5.4651656635522796      14.744537126466863
   216   1      46.997489131235923      1.7889716045016208      14.852599482392721
   217   1      47.009787226598206      5.4338088616380471      14.685741058632916
   218   1      52.737288776177678      1.8059513678440735      14.664904842967355
   219   1      52.738770161356534      5.3128619235410666      14.619617184372519
   220   1      1.2199165952503173      1.6407825632551996      19.848850419946814
   221   1      1.2900528244586045      5.2071990713301668      19.878256335424606
   222   1      6.9304514930208327      1.6302282704403064       20.04201368189436
   223   1      6.7875631999040715       5.374801059315339       19.98847446653895
   224   1      12.556902259638552      1.7890232879679799      19.828439821289031
   225   1      12.405127386687276      5.4394977871280865      19.888451242243203
   226   1      18.436794023048165      1.9000980966177285      20.077194942803132
   227   1      18.198106760411179      5.3021062047325644      20.308640681176062
   228   1      24.027367711508457      1.8046836370040209      20.021915990304549
   229   1      23.859306046029303      5.3950342845082293      19.952395393049763
   230   1      29.728714205665156      1.7278230252289659      20.312261976630111
   231   1      29.610739618593421      5.4081194887226802      20.358947003679177
   232   1      35.389162473778391       1.861134705907175      20.339570686393973
   233   1      35.454683844801181      5.3696079670500829      20.240421186971933
   234   1      41.227369250423607      1.9453287047968106      20.345822577475534
   235   1      41.068292088137923      5.3598273137424117      20.362351226309332
   236   1      46.960307695633809      1.9068560257060121      20.451996127565746
   237   1      46.851563196566282      5.4872024960283365      20.213281442645677
   238   1      52.460684953410841      1.7154157677620734      20.403866954665084
   239   1      52.611695340418784      5.3780784112906392      20.477385846686502
   240   1      3.3765756411830816      1.4495644998190877      1.6024142324640613
   241   1      3.3295824708110047      5.5057250866111689      1.5556836769285933
   242   1      9.0593528877791591      1.8611458344550116      1.8349530047817944
   243   1      9.1019889555937485      5.2456256505666001       1.642703886338942
   244   1      14.940918599267437      1.8881923860874334      1.7862323659534509
   245   1      14.791414874833526      5.5933519681215902      1.7803781350729742
   246   1      20.582768465395187      1.9265690457843376      1.9627048830760767
   247   1      20.591449352897335      5.3282032898979859      1.8015884944048022
   248   1      26.154118380475289      1.8386285822864745      1.9791959233662584
   249   1      26.111942539163518      5.4367191004369406      2.0795488007051208
   250   1      31.766139526900023      1.8263620374393905        2.10925235686544
   251   1      31.884921169216998      5.6252160897372203      2.0653229031591658
   252   1      37.855906648372411      1.9264266528504197      2.1283416143361995
   253   1      37.669385871039545      5.4115309801453124      2.0613430540249209
   254   1      43.520964557036145      1.7082888952615205      1.9209395380697749
   255   1      43.437091804263062      5.4084558901570849      1.9117595572679364
   256   1      49.263090332153446      1.8470958648078797      2.2719948449768435
   257   1      49.125090002101921      5.3339634010878862      2.1732249410699773
   258   1      54.909013749268041      1.9996329709529745      2.1472292929583494
   259   1      54.944503001752551      5.4170055494906562      2.1108282638042208
   260   1      2.8106146288684086      1.9840689834183272       7.401058250577111
   261   1      3.2659963700450798      5.4205725272682068       7.378335068636539
   262   1      8.8789734862982588      1.8676534820476183      7.4351078669257493
   263   1      9.0615872691845762      5.5187377159709152      7.4823166485949404
   264   1      14.787291488663469      1.9688989978557858      7.6115738563669266
   265   1      14.712932987676911      5.6119703435796637      7.4766605524370693
   266   1      20.533918570945129       1.806723281154224      7.5250415602917018
   267   1      20.428922988122856      5.5665833051481792      7.6588078466281413
   268   1      26.236919385467484      1.9014469961738154      7.8486603795528742
   269   1       26.28766650798471      5.4156257665256762      7.7332564452596984
   270   1      32.029639415540217      1.7829733368594523      7.5340982089679782
   271   1      31.796024323317116      5.4033707100266835      7.8633595550735782
   272   1      37.830048233161932      1.8683629612962347       7.615446717003068
   273   1      43.436502745921757      1.8293644984571469      7.7961193993812294
   274   1      43.396527561208806      5.5017383091238097      7.7095453312057929
   275   1      49.289589956253742      1.9161640876580277      7.8485344010091609
   276   1      49.379040404748132      5.2094561413673555      7.8218318458143967
   277   1      54.786259341905193      5.4955120713041286      7.8322177680251563
   278   1      2.7318074353436272      2.1024653156882911      13.150384883834736
   279   1      3.1602836375192753      5.4130793079497037      12.952789355680272
   280   1      8.9157901406693565      1.7980512488345661       13.16130022274203
   281   1      8.9607586976179263      5.1685033892938064       12.97610457907329
   282   1      14.865852402143702      1.9967725714166982      13.463549714016663
   283   1      14.798971956229915      5.3991882219254155      13.513021689026434
   284   1      20.569643697379401      1.8310631033537101      13.292020983538594
   285   1      20.381017246926199      5.4647508424361959      13.555290213820808
   286   1      26.474693063455117      1.8699182718601171      13.502615845923152
   287   1      26.383577715408876      5.5066079658474862      13.540784975779646
   288   1      32.113713758131226      1.6953939717965638      13.365884270221921
   289   1      32.342858718191408      5.3129644806053662      13.370173319277587
   290   1      37.925744805201312      1.7877720980279952      13.378244138063558
   291   1      37.711794330412062      5.4039187456001754      13.306097450038296
   292   1      43.273701345396788      1.8368202158087361      13.706115057242817
   293   1      43.511222878270139      5.8100295653564196      13.353395829061622
   294   1      49.322852824774102      1.7751977595439865      13.692962565757357
   295   1      49.142648866170774      5.4524348049181333      13.430166010138658
   296   1      55.141340081053784      1.9326168956931669      13.474059450083658
   297   1      3.2016445123850992      1.7981423948193971      18.574125446245223
   298   1      3.4648482418530864      5.2436779952780554      18.602709487830428
   299   1      8.8853370025802185       1.806197909364299      18.881187338702652
   300   1      9.0135907731729841      5.3710276070330858      18.818355310827748
   301   1      14.863760820004295      1.7182435965138421      18.953667076066843
   302   1      14.893583127057571       5.331505569120969      18.916681731170051
   303   1      20.468720862317834      2.0029087882627499      18.939385501081201
   304   1      20.565152590110745      5.4228378978593748      19.186906029890757
   305   1      26.254189988223104      1.8188630835077406       18.99168064247014
   306   1      26.346129964466211      5.2110559462702524      19.127793236184832
   307   1      32.013854480408973        1.61749132629291      19.047980774391572
   308   1      31.814911320209688      5.3904041101623346      19.083951298961594
   309   1       37.60851303480748      1.7824823127941256      19.271048123779586
   310   1      37.647281421964735      5.2767072956690564      19.263496522074835
   311   1      43.473421964492857      1.8841436259109889      19.228038810245017
   312   1       43.50342028301533      5.4456015513793465      19.244163762131162
   313   1      49.282676451155496      1.9288822410052733      19.289699718468459
   314   1       49.07152873183761      5.1548522001567783      19.318995642773395
   315   1      54.708865858733688      1.7124487316247372      19.230770618705666
   316   1       54.85690810707105      5.2792415216332911      19.226005952710118
   317   1      4.4522901619739574      1.8736181989007801      3.8533339413490788
   318   1      4.5274926974088627      5.4539756052347217      3.9197396631594117
   319   1      10.161942662438847      1.7815480334939728      4.0436864824954935
   320   1      10.001857572309092      5.4323993899136314      4.1420174925312585
   321   1      15.793590586322432      1.9939916784995979       4.239046415832278
   322   1      16.001781860601422      5.4125781580678698      4.1983804552440951
   323   1      21.551977142144327      1.9183869518261887      4.1779919011211559
   324   1      21.536353594729697      5.5478851356266867      4.0636996472078648
   325   1       27.19906044639238      1.8178596736085937      4.1928261055501892
   326   1      27.154202774062725      5.5284727569972629      4.3071843091216486
   327   1      32.958031258537169      1.8903211445436663      4.4863517837039444
   328   1      33.245553873764656      5.4747036739228339      4.3987967603763769
   329   1      38.808940397942763      1.5511960505933891      4.2854954693283691
   330   1      38.838001140166647       5.483183047757735      4.3751433554325683
   331   1      44.441385389306092      1.8612804283200346      4.3204933604112012
   332   1      44.661295183062023      5.5730261491628568      4.2036548150040849
   333   1      50.476424809533476      1.8058847115291576      4.5049418948618634
   334   1      50.447675608023609      5.4974021447967196      4.5768133509854749
   335   1      56.296291456616679      1.9743386460803023       4.339527715419929
   336   1      56.125004447274009      5.5880408143203768      4.2501947072171431
   337   1      4.2874269932002127      1.9497215173991567      9.6016083322109669
   338   1      4.3488861871476345      5.4055091857499162      9.5511836348078916
   339   1      10.155800441726237      1.7732120797420379       9.823060847187767
   340   1      10.185671946261495      5.2693726858042567      9.6524919707523882
   341   1      15.904314388445311      1.8684104812970972      9.9853517498102438
   342   1      15.771934304611397      5.7694251400890808       9.892071923489187
   343   1      21.690393786182948      1.8625286142464672      10.099506676594133
   344   1      21.793390400288402      5.4073475749348088      9.7032909796465496
   345   1      27.399525147344498      1.8250550115558495      10.148448400585169
   346   1       27.38024388312299      5.6480322534491405      10.167481272474143
   347   1      33.236448977825177      1.7582577455486279      10.057331735131205
   348   1      33.292053347681843      5.4443716987802944      10.001547465029891
   349   1      38.963314375556443      1.7118430235318103      9.9950414877287415
   350   1      38.849961928878145       5.666738807360594      9.9702274491873979
   351   1      44.493232172655858       1.915730636447478      10.048843722554897
   352   1      44.639168431008038      5.4752811744824399      10.178620458515811
   353   1      50.316624168007522      1.8916652520125117      9.9518352481939818
   354   1      50.433610666987377      5.4428896797626374      9.8955139698014225
   355   1      56.002629242679944      1.9255481923608737      10.096524132710426
   356   1      56.375181875395228      5.4189342245094059      10.173654504034864
   357   1      4.1141882129281528      5.4053436644981501      15.298401304435869
   358   1      10.161848999838599      1.8588098134208502      15.412485969702107