dump/S5_s00_n130_r1024_560_5/steps_11 (written by ASE) 

1554 	 atoms 
1  atom types
0.0           114.158223526  xlo xhi
0.0      7.2199999999999998  ylo yhi
0.0      22.831644699999995  zlo zhi


Atoms 

     1   1      2.2977839881300115       1.918737997490163      4.8281985842731716
     2   1       2.877513293027198      3.5690569134408183      3.3386518314416929
     3   1      7.8416153676891467      1.7712342428866776      5.0468321904836424
     4   1      7.6113074841473081      5.4309716489554987      5.4625166414083575
     5   1      13.531711475062689      1.7346995148274089       4.954894652193901
     6   1      13.543024484379858      5.5236422279200754      5.3828887163915571
     7   1      19.341514236616149      1.9328332148863485      5.1094533172216421
     8   1      19.251679019847902      5.4561632369470647      4.8907187848268503
     9   1      25.035753387125844      1.4003985012056868      5.2466798281603868
    10   1      25.098831038589211      5.4325171161893628      5.1485614332312508
    11   1      30.855338262727383      1.7610732395065525      4.9888643335597083
    12   1      30.848107834494972      5.2865292237616872      4.9027615446274764
    13   1      36.683745082255847      1.7955517497788194      4.9631881608143633
    14   1      36.549056585283026      5.1510509966796096      5.2795194749329548
    15   1      42.153999875015394      1.7554336747351058      5.3037681541323094
    16   1      42.370265995924896      5.3873541418967834      5.2008301078454995
    17   1      47.911776616476651      1.6618152632430021      5.0407729913475983
    18   1      48.124710228376983      5.3169432418843927      5.1354918157552412
    19   1       54.13739520668264      1.4962492053745748      5.1549039780009149
    20   1      54.273057683336596      5.5048334480216488      5.2061557259798379
    21   1      1.1265845081971533      1.8678610439749348      10.844512435282482
    22   1      2.4981037216894588     0.31073215461143572      9.0684884900308038
    23   1      7.6772638501950459      1.9349673043836642      10.809733784509197
    24   1      7.9332169975648439      5.5200111442697439      10.960568111038647
    25   1      13.663419454116378      1.9884751392924005      10.834503897803096
    26   1      13.635127937298771      5.3924958096057871      10.895300994119301
    27   1      19.472476468309814      1.4949279199866945      10.451986957452855
    28   1      19.368047499113647      5.3569881108619777      10.655945097464695
    29   1      25.165819035609861      1.6645327435296786      10.964026950374878
    30   1      25.187248946345733       5.182582813577338      10.754466694032933
    31   1      30.816015452073056      1.8733461270722496      10.809858971190483
    32   1      30.960463420083585      5.4152753297255076      10.836035180977074
    33   1      36.647649626320678      1.9259444587894774      10.846308079433076
    34   1        36.5034443128052      5.3719606234548296      10.711926400151668
    35   1      42.387719936237261      1.5880027314452017      10.895995206589228
    36   1        42.4007327833178      5.4755246909941979      10.712668917887882
    37   1        48.3762107345906      1.8788914650823241      10.846008289660359
    38   1      48.315230483731391      5.2188950465161463      11.034141581280348
    39   1      54.005263417941165      1.6661794819517259       10.89374033517316
    40   1      54.093176208155093      5.0702280228161252      10.889757896499395
    41   1     0.36700872372012933      1.8747934559688777      16.648329135928115
    42   1      3.7119541644746241       3.658115304437823      17.173717976871902
    43   1      7.9751044269243661       2.004713225118099       16.43026557374899
    44   1      7.8913283600565434      5.4937320392574991      16.502209521428608
    45   1      13.459936871326505      1.8385310394435486      16.570270281555359
    46   1      13.641459254942689      5.4516421878531043      16.357772134825169
    47   1      19.359814461863813      1.9328721397117539      16.316200468695673
    48   1      19.137489688511707      5.6016569462168819      16.271042818005672
    49   1      24.922238074101561      1.7576435833330584      16.334517186892224
    50   1      25.045820838803586      5.3920530051491413       16.58415600279292
    51   1      30.919546154581024      1.7991835797711138      16.507492881887906
    52   1      31.127735978679109      5.3082334757657144      16.341804906353047
    53   1      36.666539740701722      1.5833834915209979      16.800847515383776
    54   1      36.687880862677368      5.2662918913909635       16.55435196261077
    55   1      42.386385467166946      1.6441047071081825      16.480462821278852
    56   1      42.266894621193835      5.1586975214206197      16.502786747831085
    57   1      48.102478909962656      1.5287005987635023      16.580266784808686
    58   1      48.104985169033995      5.2451936349167143      16.811788692542887
    59   1      53.734294508440044      1.6921891816027934       16.64933595660462
    60   1      53.681934634674306      5.2861840430199685      16.605808115945763
    61   1      2.2921599222856059      1.5553266832379931      22.305400532672579
    62   1      2.3512454904702667      5.4674200127838981      22.276017828628248
    63   1      7.6737425584070476      5.3688632518612627      22.038364250855658
    64   1      11.466259129290856      1.8683542617634947     0.54214211734569984
    65   1      13.473808213263332      5.2962202371067617      22.156634897329237
    66   1      19.431158049134069      2.0236054856011947      22.191065521783546
    67   1      19.229377796107602      5.3923216250834232      22.028600167334183
    68   1      25.102577956827002      1.8028859947469067      22.416919622371086
    69   1      25.124730588871078      5.1954544347838754       22.38093848543204
    70   1       30.78667391032441      1.6055542123345314      22.125174679103388
    71   1      30.824008656631921      5.2593648869688048      22.128020805851065
    72   1      36.586348478271773      1.5173730700955359      22.437511510565137
    73   1      36.536819659743145      5.1810709157494745      22.199447582785393
    74   1      42.126975452033356      1.7394160685991804      22.385779362763248
    75   1      42.128205190334292      5.0805715681709476      22.218347781893655
    76   1      48.047534406075663      1.7140049929095782      22.459241688970824
    77   1      47.923992903424704      5.2592091967027574      22.081562861109337
    78   1      53.723350518296918      1.7457848996186545      22.349775561438552
    79   1      53.635997614673443      5.3609972404318258      22.332432542480234
    80   1      114.08513947928351      1.9845986540653786       22.28769909095254
    81   1      113.95881768792647      5.3474950768572036        22.2702858471519
    82   1      5.4372220249536412      2.0503335070719957     0.59423333626684272
    83   1      5.4372992488007776      5.4232865310508416      0.5315589279407128
    84   1      10.271611535291639      1.8653867945935969       21.22484232511697
    85   1       11.32586347104157      5.3787353698654563     0.67002920815987865
    86   1      17.022125038853911      1.9509717879824984     0.43132783269678604
    87   1      16.950497866204614      5.5279871530811304      0.4627864808794841
    88   1      22.581287194832058      1.7918952244152788      0.4811935105786127
    89   1      22.865775501655392      5.3360601037512847     0.47376810816785508
    90   1      28.543322850491023      1.7595947116068029      0.4996899906501876
    91   1      28.706897781112627      5.3408212623114775     0.50249946664407108
    92   1      34.207495937284456      1.7018276258498444     0.52001771210068015
    93   1      34.228353513837632      5.1940186348190798     0.40611385499825137
    94   1      39.863346321786871      1.6341654349640211     0.53592084774420301
    95   1      39.791511598145703      5.2268887882873889     0.37217033785471609
    96   1       45.70560143456629      1.5637563475169094     0.66228553810592661
    97   1      45.731115028593827      5.2607179274687592     0.64285840544204553
    98   1      51.446984071712293      1.5727622562479608     0.64094271786393708
    99   1      51.469425328682235      5.3443142886486772     0.75497535371056634
   100   1   0.0086678833878645056       1.842976152287122      5.3284776781278396
   101   1      114.08145494193052      5.5130715157716912      5.1878618627914532
   102   1      5.4433294398980001      1.8039689487446537      6.2401785704941926
   103   1      5.4398706254948666      5.3135422638041385       6.297736831247029
   104   1      11.137616935410952      1.7002018060673381      6.2023699966314298
   105   1      11.254755545967429      5.6499818685168437      6.3901068139205801
   106   1      16.847402768947696      1.6936461774830487      6.2306072928987479
   107   1      16.984266368634682      5.4116121422102559      6.0317705976806035
   108   1      22.883293139830737      1.4694524295501341      6.4507388083393229
   109   1      22.821872689069316      5.5500405626767124      6.3011230349968113
   110   1      28.728860189424324      1.7625705740778106      6.2590375926683652
   111   1      28.636344379533206      5.3405308475339313      6.2459311820641634
   112   1      34.328391659394413       1.796640406718413       6.182957200393818
   113   1      34.272686720476969      5.1292790562120114      6.2756687752290441
   114   1      39.737299321176167      1.4023079018034883      6.1831099684095694
   115   1      40.116030359497074      5.2722570785208607      6.2528541893852649
   116   1      45.799163541699826      1.5281519535652937      6.4468191023748549
   117   1      45.792069643143314      5.2376128020800374      6.3221421254393535
   118   1      51.583170586136283      1.7193536336903699      6.5873027209922936
   119   1      51.805910820828053       5.291360669387501      6.2985633439377535
   120   1      112.98929856012046      3.6830135106703454      11.601290138069563
   121   1     0.66215523835602108      5.6533070277115165      10.777299154376228
   122   1      5.4383557122601651      1.8686472913690368       11.87424315264183
   123   1      5.4552442121317126      5.2959790265061315      11.826478070335126
   124   1      11.206133813340518      1.9467453408475077      11.790379718778398
   125   1      11.482752882545238      5.4907564969814011        11.7099696684673
   126   1      17.100716208654585      1.8536312108389024      11.689044439870253
   127   1       17.08586776291634       5.285273345143696      11.797231739074805
   128   1      22.671286210332322      1.9351246016860255      11.960849321881849
   129   1      22.861407561436152      5.3669622820403688      11.864550272417794
   130   1      28.614839508649105      1.8516853512740723      12.066626272001017
   131   1      28.764271694231976       5.329445811450392      11.941196822144448
   132   1      34.378753762222345      1.7469743781691041      12.133108775189697
   133   1      34.082887645220289      5.6528283304337679      11.902185889370678
   134   1      40.022217824263706      1.9116560064326016       11.99798251571716
   135   1      40.064987941214156      5.2822218957242724      11.791941928240549
   136   1      45.974782467442253      1.7661070342772696      12.106045535752378
   137   1      45.888319406715809      5.4301481168611572      11.988977171745107
   138   1      51.855811530716586      1.7581019083026288      12.028357078224666
   139   1      51.632078777885518      5.2758959643526211      12.112346272996298
   140   1      112.21853188317289      1.8550214975155996      15.568584951988464
   141   1      2.4011959745050855      5.7072185598835796      16.646475743563819
   142   1      5.6687343726978305       1.847402009360402      17.584973006064331
   143   1      5.3466011699696629      5.5574369785361739      17.493961158380863
   144   1      11.186759710925429      2.0294293220435593      17.721545231432369
   145   1      11.250175514536098      5.5565702744003076      17.475408661939021
   146   1      16.924219362051559      1.6631286177992128      17.653428027485091
   147   1      16.864823890234071      5.6072522556873921      17.437017234672517
   148   1      22.769286992583119       1.944914224828687      17.751660981840438
   149   1      22.711042411428078      5.3545408949112225      17.596035331103199
   150   1      28.580191983488866      1.7545146252589343      17.567464635991666
   151   1      28.464352753956724      5.5521302932405918      17.599903774561035
   152   1       34.34120731320769      1.6509715732756565       17.79719720360448
   153   1      34.473263676918691      5.0674004269290602      17.630082329225104
   154   1      39.795118486372509        1.54727422430825      17.537912100754156
   155   1      40.001997409697829      5.3661786503221709      17.485882287722625
   156   1      46.040655665885609      1.7542441474698651      17.529537145079168
   157   1      45.849751460875929      5.3598010813720425      17.679778179083026
   158   1      51.579594442109631      1.6700495439707224      17.921194215903935
   159   1      51.354489296523298      5.2620033001667981      17.878689691187343
   160   1     0.89742790355025925      1.8725627412008186       2.643107497168153
   161   1      1.1295996529140067        5.36982779053531      3.0099740881710537
   162   1      6.7414607897604926      1.7107944889834681       2.866461549979062
   163   1       6.670084915535071      5.4907902515641611      2.9650482590358429
   164   1      12.357446775494994      1.7448358291771082      2.8856026419173766
   165   1      12.462339073121584      5.4916372729068677      3.1144254529514197
   166   1      18.243497847609138      1.9330640189044104      2.7820202573746586
   167   1      18.222800161104239      5.5168230670870013      2.6481753182271235
   168   1      24.143084972847404      1.8070056357012756      2.8304377786961603
   169   1      24.127822684655236      5.3529420500677292      2.9425225189745969
   170   1      29.746123140871685      1.8407065815250745      2.6164315942493421
   171   1      29.759137934578586      5.5245662058100207       2.678775002412082
   172   1      35.421489978940919      1.7006646834433654      2.8506599505928194
   173   1      35.334761775656872      5.1989629475724675      2.8963397336222205
   174   1      41.028362609371321      1.5594224987037115      3.0681018625429677
   175   1      40.931184554569398      5.3702568390436465      3.2300172596356034
   176   1      46.928649940055763      1.6965156789437907       2.838385656096468
   177   1       46.82492565975889      5.0978265203814486       3.007538662641148
   178   1      52.500343097055975      1.5612212628709656      2.9610438623326836
   179   1      52.646018008220793      5.2331091390538962       3.262370446550392
   180   1      1.0276763768449246      1.9249489700888684      8.1211159690966035
   181   1      1.1893013542889479      5.5691452623080684      8.5637610620031808
   182   1       6.631434203496271      1.8130473864761814      8.5394724094345626
   183   1      6.5337857224385321      5.3853251558009818      8.5932413814914614
   184   1      12.407379392710782      1.9248858261551782      8.5786719614374931
   185   1      12.493171866311902      5.3884606484534876      8.4917322644918354
   186   1      18.076995634173453      1.8125660605938134      8.3594358355751535
   187   1      18.231648614169572      5.2973813337261317      8.2052238838997837
   188   1      24.346428608482814      1.6215528821760288      8.6523050751355672
   189   1      23.858576487110316      5.1957550787091824      8.6141791692084109
   190   1      29.839743872499909      1.7112513675567436      8.4665740010705726
   191   1      29.822152176855091      5.4108461324345027      8.5895285302077689
   192   1        35.6400551181368      1.8339286213315698      8.5860572818273386
   193   1      35.410228651656176      5.3008370825017579      8.4348468902766527
   194   1      41.026329419609972      1.6738159685667822      8.2886315198103198
   195   1       41.13416696698409      5.7096457574197936      8.5521741203600428
   196   1      46.970058511257015      1.5219392329480559      8.7520490037787013
   197   1      46.944362788717008      5.1777863460404765      8.5055007915940664
   198   1      53.413253399138611      1.9102859562562999      8.3958580990634157
   199   1      53.090356879901698      5.2005660477122158      8.5623959442142468
   200   1        114.145373093316      5.8649008458106877      16.591173741751373
   201   1      2.0328560411596355      3.0822660504382142      15.068219477053651
   202   1      6.5410521966703072       2.152188024535465      14.111158494742718
   203   1      6.6292144509828521      5.5479691769333126      14.102331647896026
   204   1      12.420481779721793      1.8582377513778983      13.967103484465369
   205   1      12.271282411182945      5.3670562903695096      14.047399741409244
   206   1      18.217949837019262      2.0482075136486944      13.983325037004983
   207   1      18.243252881395566      5.4983821105835133      14.019713122079844
   208   1      23.833379408335425      1.8693687402595125       14.09153740019231
   209   1      23.777614985760721      5.4752072882807816      14.497349018343561
   210   1       29.74060763314548      1.8573051863245047      14.163115081932713
   211   1      29.818509803264948      5.1681217486411173      14.311737058769584
   212   1      35.532797161469141      1.9642921593209295      14.462345676699293
   213   1      35.663014059953184      5.2578290159270402      14.357669061071181
   214   1      41.041321520402413      1.5521781984830876      14.243344636750308
   215   1      41.114913110348802      5.3476766745666815      14.037712379833357
   216   1      46.964643381512204      1.8120906143912163      14.514160620630522
   217   1      46.976187512467746      5.3478338744829781      14.324793036148549
   218   1       52.78332512803226      1.8342222408071689      14.459736233583005
   219   1      52.541497738303903      5.1390529518074084      14.323884567480521
   220   1      1.2331926710973653      1.8837590906016326      20.123459941692115
   221   1      1.0446453534545634      5.6587015581932114      19.895371289035221
   222   1      6.7899071215465616      1.7064542733836991       19.97025239815682
   223   1       6.628316591721954      5.6095655794953574      19.883528074800868
   224   1      11.952084993111367      3.5903070660685517      21.669023751585186
   225   1      12.335448941831579      5.5051383569797832        19.7209739598425
   226   1      18.388759660897293      2.0773978494548611      19.921773235052321
   227   1      18.041563343146041      5.6079567269610688      19.838064033975705
   228   1      24.075010559596141      1.7936067821454336      20.139635242462788
   229   1        23.9256367217979      5.6081359078134154      19.927973401545696
   230   1      29.701787913097647      1.7687804763630526      19.838570181708604
   231   1      29.691401448690577      5.3509603216981461      19.853253748167756
   232   1      35.393648110698919      1.5576381684837017       19.93424175821686
   233   1      35.433865710704204      5.2901836468182415      19.924726896110361
   234   1      41.062563648985218      1.5927844685147936      20.051659645905225
   235   1      41.028281171409354      5.0853989226314562      19.826845946318812
   236   1      46.963888456024286      1.4908135035606527      20.195333957782928
   237   1      46.868301692184787      5.2509514403136821      19.947053693664834
   238   1      52.667923837260219       1.800096304202639      20.279123070619033
   239   1      52.630580061815209      5.0801752481617424      20.108605401594883
   240   1       3.165466135004888      1.7007973938489807      1.8057381075695902
   241   1      2.5914805910242378    0.030611612219028438      3.1389113977389562
   242   1        9.10081425549728      1.8019885023900506      1.5967054703171641
   243   1      8.9118396493496128      5.3618026519394686       1.696814244838674
   244   1      14.483877936260347       1.867222216020507      1.3827545449912826
   245   1      14.827774293158802      5.5302672961605772      1.5464165694491849
   246   1      20.352241261319843      1.8415352634909739      1.7386855435868209
   247   1      20.521913098028939        5.23753156002876      1.7107637013764074
   248   1      26.320328354090726      1.7099237061226331      1.6972535274717648
   249   1      26.363880400062349      5.2687173022620186      1.6695092809875351
   250   1      31.917798685920829      1.6881690802894354      1.5765406810462452
   251   1      32.100573267023996      5.1421522857041468      1.8043620371053966
   252   1      37.624548667480724      1.6229226475396397      1.7854694553329769
   253   1      37.435556276368203       5.208473230411502      1.7136200179667513
   254   1      43.323032522440073       1.612967831893062       1.756559625516674
   255   1      43.283371764682492      5.1213539302286781      1.7397096995487416
   256   1      49.264612745566431      1.8685479108158705      1.7200842619260575
   257   1      49.070086320209363      5.3219724274307394      1.7755161658703029
   258   1      54.714497838309505       1.652227626039426      1.8848347561895411
   259   1      54.846789698159334      5.2355980952366528      1.8859533919607037
   260   1      2.4582975439472183      3.5966557746740846      8.9373179303960679
   261   1      3.1529676619188729      5.6730203731485318      7.2929339818764358
   262   1       8.968920826060625      1.8882842448509314      7.3479538734895753
   263   1       9.048111487707402      5.4332887471156335      7.5074081289339594
   264   1      14.635140700083905      1.7825498162976376      7.3209996710120926
   265   1      14.835959405330893      5.3546130870434876      7.4975359518677109
   266   1      20.389600479693762      1.6709988045451332        7.25598996028548
   267   1       20.39976236702341      5.2682501015093601      7.2849759601431154
   268   1      26.458872653498936      1.6940425411040076      7.2861808110799986
   269   1      26.380027519625081      5.1382355061998162       7.443708756225794
   270   1      32.238747285016039      1.8231258609537713      7.4576750000978596
   271   1      31.925483150661915      5.5267596301378603      7.3854648974503423
   272   1      37.698518397871297      1.6354480037518471      7.4682777572483223
   273   1      43.421419596550848      1.7576117790473595      7.3459923947393353
   274   1      43.508501403282246      5.1563306433266654      7.6452309868590147
   275   1      49.250038445968968       1.606207371822624      7.4036536588461894
   276   1      49.485085023140599      5.2627338743364982      7.3572970404976026
   277   1      55.239129173419876      5.3744063619453959      7.4217120148927256
   278   1      2.8031223262446594      1.9080780654611991      12.913752803255756
   279   1      3.7037703550759886     0.34748047846041485      11.381327763600503
   280   1      8.8148337660661173      1.9204293900589364      13.098458089313249
   281   1      9.0512509048605061      5.5060313894742192      13.190434803212504
   282   1       14.78110384874684       1.827171255782293      13.033577386545566
   283   1      14.770685293123156      5.4720444490806956      13.191047696399128
   284   1      20.469156365351839       1.961765606610449      12.820766312511646
   285   1      20.505778127376253      5.3968492997681752      12.967343127392606
   286   1      26.250260791223152      1.7810164676145044      13.190490532118895
   287   1      26.270182660091468      5.4415462595211901      13.054064429491461
   288   1      32.093277618886916      1.8460849572823266      13.052226336275025
   289   1      31.940156680467037      5.4524256641040898      12.988482720699212
   290   1      37.776352940289414      1.9007755556166122      13.030749673124744
   291   1       37.90928312245024      5.3238996566778312      13.011617826098171
   292   1      43.548148768511432      1.7943201526037496      13.119300424020713
   293   1      43.612691794126022      5.2565894352508025      13.124905562926454
   294   1      49.316767849742931       1.710358437176289      13.270314207964939
   295   1      49.480293716416035      5.3889539631208532      13.144568586227583
   296   1      55.250397896420687      1.8002540053741909        13.0402020843351
   297   1      2.9702416312911044       2.203980070338091      18.730591465902823
   298   1      3.4673042653221589      5.5264398766481673      18.852298289517712
   299   1      9.0763174572998224      1.8285155628890832      18.864200976048192
   300   1      8.8007772140392735      5.4257796356313328       18.75491713651855
   301   1      14.666589076756191      1.9177890409618725      18.662135863971056
   302   1      14.544911350169208      5.5097538964435895      18.802688194277984
   303   1      20.431405323499259      1.6334815372485578      18.688495010168506
   304   1      20.452545498043317      5.6204229730895543      18.584757405489828
   305   1      26.340264271007687      1.7182867523647165      18.704727840640032
   306   1      26.245505578738278      5.5360582396691473      18.840095799732666
   307   1      31.959381445232733      1.6733311767779613      18.668033508930908
   308   1      31.866723475321191      5.3414218149036694      18.818293657436982
   309   1      37.647995305928795      1.5722329917511604      18.848163243548729
   310   1      37.807126383719336      5.4646687204144504      18.830234069305266
   311   1      43.264867351428592      1.5764518297424619        18.8591284843761
   312   1      43.403672491974788      4.9564000937460868      18.775294852263389
   313   1      49.234966990450268      1.6258176319310267      18.939258076564197
   314   1      49.196911067834748      5.3703083919817374      18.998977999181523
   315   1      54.839423192077092      1.7466951290453347      19.100859548950925
   316   1      54.824872602837395      5.2246039050235424      19.215616284272539
   317   1      4.3351508044261955      1.6749746097973175       3.955706990245405
   318   1      4.5639888378001841      5.4532762240187154      4.0477493640339901
   319   1      9.9846144696620485      1.5922747386869802       3.890482900058096
   320   1      9.9845967138463738      5.4930376047743072      3.8580657393748927
   321   1      15.972256379895228      1.8435977985707988      3.6550554518201075
   322   1      15.662248838265413      5.5262704706071437      3.8594773866785217
   323   1        21.7127002309585      1.7379090190033952       4.023061138189421
   324   1      21.694026410211013      5.3382629391330374      3.9190385091096829
   325   1      27.605648187981281      1.7587317384756473      3.9684623215676047
   326   1      27.485328084326383      5.2795816293756044      3.9273343447734055
   327   1      33.099691475858585      1.7711461977597356      4.0459015519465336
   328   1      33.066598835423015      5.6603701383486271      4.0071858492941219
   329   1      38.782041471690654      1.6807403828175227       3.879281283343055
   330   1      38.756121852109537      5.2913130902384191      4.0301567542960282
   331   1      44.475939962894614      1.6561790258360782      4.0183592990476482
   332   1      44.551246028594164       5.187491971839572      4.1156463094731857
   333   1      50.227314229032928      1.6497955968631615      4.1240123324187454
   334   1      50.265123389214068      5.2264160487919717      4.0892219800658944
   335   1      56.291016618810659      1.6639791095390735      3.7976556863795139
   336   1      56.658464434385749      5.3371838516925072      4.1953330183995954
   337   1      4.2471636485214708      1.8467138251386774      9.4687194366835339
   338   1      3.9244591611387913      5.5567461545729655       9.756196159354511
   339   1      10.073868315076703      1.8461625334206617      9.4804952206629771
   340   1      10.349977442320068      5.1628525341172287      9.7091904684862218
   341   1      15.931560673057719      1.8344151703271674      9.8077745215364729
   342   1       16.02603946974018      5.2929219359229807      9.5468740666878489
   343   1       21.88735107763711      1.6881752065103872      9.6668379354008565
   344   1      21.499843568712887      5.1828735870872507      9.6012448967765067
   345   1      27.576659195349901      1.7301321167498664      9.4968000070298526
   346   1      27.563564100150778      5.3020724666318504      9.7691263455936372
   347   1      33.162301039247382      1.9485732264479223      9.7050220924477717
   348   1      33.137762246815988       5.132963930560611      9.7165382493639925
   349   1      38.801178596015056      1.7544214382905041      9.6478848840469738
   350   1      38.906643301839509      5.3619021545755059      9.6222093503602739
   351   1       44.59020390011068      1.7000872169510284      9.7109267032983606
   352   1      44.805546035311643      5.3318336688727674      9.6899835274844808
   353   1      50.504790748030267      1.7603193649047548      9.4755604938208382
   354   1      50.649024673374427      5.1929188163626394      9.8983164709288047
   355   1      56.555728252757852      1.6003196339882602      10.472478029793612
   356   1      56.548693000551616      5.3801658929377707      10.074301513610843
   357   1      4.2085984453440535       5.432694204839831      15.238576291846627
   358   1      10.272551197447646      1.8485173173791469      15.298746360006675