dump/Cu_720_20/steps_81 (written by ASE) 

1980 	 atoms 
1  atom types
0.0      25.526554800834361  xlo xhi
0.0              25.5265548  ylo yhi
0.0      36.100000000000001  zlo zhi


Atoms 

     1   1     0.15662455401655992    0.018890219175146404      35.978298972960772
     2   1      1.2298319762454926      1.2018371680127786        1.72361074659575
     3   1    0.024680417627102262      2.3541940906639613      36.035574730775373
     4   1      1.1359474700472421       3.699235265161307      1.7331084886679144
     5   1      25.402309998835303      5.0061734363987807    0.084713992511160657
     6   1      1.2500423756990089      6.4236311023139017      1.7560384316039055
     7   1    0.068462225371991786      7.6418371314300355      35.978888874909728
     8   1      1.1587546509274984      9.1163326372332225      1.8860388803193355
     9   1    0.090432105129141807      10.005216414671068    0.040472160649324164
    10   1      1.1409960718976129      11.482797624420927      1.7308806685409313
    11   1   0.0088553213694978934      12.731932832846907    0.064943568713556596
    12   1      1.1296686312551096       14.09265341649788      1.9444437678699373
    13   1    0.010860153979241486      15.099949370694553    0.036692711898717888
    14   1      1.3423736204770178      16.621884527949017      2.0622446608870866
    15   1      25.440111646618803       17.88054130543907     0.10192850423104585
    16   1       1.187597001121943      19.131393975425436      1.9021973994936143
    17   1     0.14748359089037838      20.291478140892885     0.27362324152582024
    18   1      1.3952730127710204      21.784649655978008      2.0416972307823138
    19   1    0.055537657027185938      23.011305232258334     0.04372165506142673
    20   1      1.3319408882866395       24.34459138493342      1.7484318148316125
    21   1      2.5968990337357791      25.328328120666363      36.041491288588922
    22   1      3.7144524587280552      1.2743032415574074      1.8115554398550235
    23   1      2.5784140720405606      2.3075841545484272      35.923399618722357
    24   1      3.8643212283850459      3.5097052006390617       1.802790592921609
    25   1      2.6104176634762437      5.0983318209338249    0.073017000270556201
    26   1      3.6605253085485812      6.1412577014232328      1.9487205334362114
    27   1      2.3918149099017514      7.7147137213225943      36.038751636384184
    28   1       3.877085552011708      8.6758662479418831      1.7111804606349101
    29   1       2.576460238072046      10.127743223654878    0.092279999367599494
    30   1      3.6032483153103989      11.036098673515802      2.0618338114644628
    31   1      2.6662616023653731      12.783255488617389     0.11404343831189873
    32   1      3.7834673545580713      14.095282306386558      1.7573698110967702
    33   1      2.5888392332120476      15.558862217110963     0.23649192295110893
    34   1      3.6916523617168537      16.585008701384542      2.0347388919719713
    35   1      2.6175515122690043      17.892225090774392    0.069233832725740227
    36   1      3.7987393068793076      19.146318462534843      1.9369684905664939
    37   1      2.6332213576737731      20.429364025273621     0.31638409099048215
    38   1      4.0894554111873429      21.587864614495373      2.0945441506514282
    39   1      2.5499059950177365      22.878243747983035     0.26003196115234445
    40   1      4.0416613896283007      24.251235849573039      1.7484509822637273
    41   1      5.2168937769264092      25.455057403976522    0.036123145316980666
    42   1       6.242005534904453      1.2129690775277384      1.6329145194960475
    43   1       4.998493442922352      2.5139610223924915   0.0041106787332978473
    44   1      6.3538379098364635      3.9475419463691903      1.8899539643441143
    45   1      5.2944988545524838      4.9083863636842358    0.089845172932223327
    46   1      6.0522455353510418      6.4875212842347967       1.895155034808045
    47   1      4.8928886646200436      7.5341516840302862    0.087870788307645914
    48   1      6.3209848146455734      8.9406475823358402      1.7978084178035019
    49   1      5.0707932382498599      10.038049280526804       35.90747782157159
    50   1      6.1125051297849087      11.308318929907971      2.0050248140142704
    51   1      4.9405259415133331      12.690274548390665      36.079073490172277
    52   1      6.2509858146730544      13.994688421474493      1.6922243867261628
    53   1      5.1906999989214953      15.471450233377276     0.18522188289607594
    54   1      6.2724849195055077      16.536286880734295      1.9910365794069309
    55   1      5.1232143983657785      17.828715641883342     0.27157969629967044
    56   1      6.1970438896587989      19.255953363585604      1.9413955070982765
    57   1      5.1821064198079476      20.516919867083946     0.16503578275551278
    58   1      6.5793696193782996       21.79141677936785      2.0651428003087613
    59   1      5.2213850541654256      22.913011177006048      35.888767926553044
    60   1      6.5315743572580729      24.298534718818555      1.7802307023661788
    61   1      7.8701040143390388     0.18800896603522083      35.957090438670143
    62   1      8.8662580300934906      1.3665096839988526      1.9396924935477393
    63   1      7.4055822676018028      2.5640698847890446      36.093725951044817
    64   1      8.8153114295549884      4.0675236725263728      1.7414932589034484
    65   1      7.5548901976728331      5.0802775844938397    0.081237332772298151
    66   1      8.8217675802858384       6.376430767630163      1.6328499439317734
    67   1       7.434160638110372      7.7896119716537751      36.025723657611643
    68   1      8.7577237399514622      8.7741277026517803      1.8709203414004711
    69   1      7.6258769024479474      10.103497352091523        36.0357631290603
    70   1      8.9109977089232419      11.377680444392022      1.8320575297298893
    71   1      7.3548771716766552      12.527614627285875     0.25896909919741817
    72   1      8.9330731692832366      13.912868935080986       1.810668402243925
    73   1      7.6950504961224322      15.168671444641925      36.001863101698028
    74   1      8.9607952251850129      16.386427273085708      1.9599761039611279
    75   1      7.5396635137423509      17.899945270047446     0.42431030830116351
    76   1      8.8394962860490871      19.302374548118397      1.9534035855170837
    77   1      7.8015216219410206      20.535391028719307    0.029225794886815495
    78   1      9.0806472878775502       21.95817011579874      1.8824376310630544
    79   1       7.714124678392495      23.040537691417253      36.090984228328338
    80   1      8.9211645628130967      24.499720177118018      1.4008695334953229
    81   1       10.43249558685544     0.20907766637701561    0.077085344145143689
    82   1      11.632154629971156       1.356732631427316      1.8333640936080891
    83   1      10.338350681871445      2.6976318515466522      36.058483079880922
    84   1      11.387433622757689      3.8033948068513306      1.7513117465555417
    85   1      10.142957153404637      5.0803983442746912      35.995685626721837
    86   1      11.452728490496344      6.2959589563790068      1.8338321960771753
    87   1      10.138286487418689      7.4732758727427848    0.033993401134318896
    88   1      11.487498092629775      8.8721036144830716       1.849260858066303
    89   1      10.186334294206603      10.028852179836264     0.04926009552121953
    90   1      11.347183944759852      11.237701425249622      1.8173584853822036
    91   1      9.9557011457467013       12.59979960961293      35.975341094802445
    92   1      11.453308493734639      13.740899708704736      1.9353240570886565
    93   1      10.361110164920888      15.221661900684312     0.23434833243893555
    94   1      11.479087492147968       16.50627419942785      1.8672808528479088
    95   1      10.037139131925723      17.856669393841347      36.079116373717689
    96   1      11.310765771055861      19.209530841845179      1.9597969104714479
    97   1      10.172313358415739      20.353192557068077     0.10157154603895151
    98   1      11.490463710476572      21.686606336344205      1.8444327189028631
    99   1      10.521891958130496      22.997182557486784   0.0079165393575294837
   100   1      11.658965785778538      24.204400971241515      1.6281853118206426
   101   1       12.85132475800153    0.044776614332245009      36.011401828833151
   102   1      13.996933586086397      1.4377550246272992      1.9050196019072947
   103   1      12.810895770244324      2.5540323056088128    0.062178684523473644
   104   1      13.850643424163691        3.93294934277528      1.9709448937260607
   105   1      12.522367481403142      5.0446109507128165    0.020415370814623666
   106   1      13.957190706300771      6.2944686805936412      1.9717142074820244
   107   1      12.606369186819739      7.6341329448851871  0.00090476830221177668
   108   1      13.979029162114383      8.9982242738523421      1.8445353846575492
   109   1      12.766677809185973      10.023474130425706      35.976871612175614
   110   1      13.692252282160348      11.408744529415022      1.9640009390458208
   111   1      12.766870335208358       12.66050577013521     0.10327366941952501
   112   1      13.986929975350643      14.088566280870019      1.9448283060923832
   113   1      12.845639462502138      15.051716217716448     0.17764208263242823
   114   1      13.908276621581509      16.483294516843021      1.7742842463899826
   115   1      12.508610867891877      17.708071906572819     0.28975743474909432
   116   1      13.973388355307748        18.9220796285692      1.7043527228108035
   117   1      12.895017337718102      20.222143274230881      36.068523390317374
   118   1      14.061716088276732      21.718662642903077      1.6192808188371253
   119   1      12.904442555217214      22.873383584777692      35.932805327101782
   120   1      14.163503418547542      24.208017832972047      1.8003989837130232
   121   1       15.47323352634198     0.10539100788081469     0.14039190557631412
   122   1      16.479031076713248       1.325368521543814      2.0141374255856501
   123   1      15.295141909434568      2.5107186979726066     0.15193085781703519
   124   1      16.563653050154358      3.9511469521909208      1.9218795802163988
   125   1      15.118754699993099      5.1245108358214724     0.14569110457443898
   126   1      16.604238187434145       6.464728165189527      2.0202206780362979
   127   1      15.155782126230049      7.5779880455334272     0.20826935175491593
   128   1      16.363314815240898      9.0404878912653519      1.8302308543269072
   129   1      15.266190591459447      10.393065197524212      36.043785586138249
   130   1      16.497106096535394      11.756196137439908      1.8645784322918315
   131   1      15.161876280586885      12.679562907773526     0.21979361498874822
   132   1      16.362428058905572      14.029308882114442      1.7731259644762303
   133   1      15.203095924688482       15.27369078623428       35.91090230185479
   134   1      16.550866078137052      16.462130380283671      2.0788209314551982
   135   1       15.15224949249267      17.630525535036874       35.99631391521379
   136   1      16.591941122387787      18.824036635466388      1.6191748203563301
   137   1      15.405749793108278      20.360526947145118    0.029439581475901363
   138   1      16.454359458445783      21.726542625846157       1.716587674660832
   139   1      15.363058964253087      23.213644084377137      35.879385869401183
   140   1      16.693171399007181      24.035252465692885      1.7958091782306147
   141   1       17.81246826864799    0.054269857670854287     0.34470594554749151
   142   1      19.096266135914398      1.4040025074797171      1.8382642660794328
   143   1      17.758286892684886      2.5562879957804205     0.34111747141503224
   144   1      19.045571240499875      3.8916314798689817      1.9042699216690842
   145   1      17.890713703589199       5.258588747353051     0.20869678055513546
   146   1      19.280610150878083      6.4538110809265552      1.8041293483429723
   147   1      17.821685110298432      7.7869041855237979      0.2280191495497208
   148   1      19.076156320920326      8.9440907432901806      1.8025606133759784
   149   1      17.571700644945356      10.206729526772509      35.957347672506167
   150   1        19.1937887217492      11.445014301516295      1.8934084639859401
   151   1      17.734057664743087      12.919963046156589    0.035469497680458074
   152   1      19.133233267125064      14.008958528109931      1.8759487421905321
   153   1      17.933202656645371      15.436543698360035     0.08075519772166917
   154   1      19.281777180426158      16.527932313347129      1.9467252695533497
   155   1      17.966538416260736      17.729225515086437     0.11295440044827942
   156   1      19.086916363625345      19.120440704536907      1.7990363685658266
   157   1      18.217281694068767      20.268323534792071    0.011778727866749253
   158   1       19.31538635758367      21.712362523791221      1.7227214375528435
   159   1      17.806878386678076      22.915093882196718    0.064457912271575393
   160   1       19.23701509199956      24.152959085349021      1.9080475787237339
   161   1       20.48339261868831    0.039083508904268975     0.13481849536381108
   162   1       21.63146180983674      1.2979618484960487      1.8332766377520098
   163   1      20.474432062586086       2.593445469412119    0.015595387008852419
   164   1      21.587412190938501      3.9507926492610075      1.9411015627843868
   165   1      20.289225839708589      5.1580686741574615      36.050643795103845
   166   1      21.895950032840503       6.307572943318382      1.8893750632079691
   167   1      20.223053993014265      7.5529631723394148    0.099814134693565301
   168   1      21.431157670813803      8.7450624044151031       1.805404759420312
   169   1      20.553593627431038      10.382775821556397    0.070403997730090692
   170   1      21.454279593421266      11.407063216356184      1.7814684087055859
   171   1      20.247627984490492      12.943979512989344   0.0039063409976620202
   172   1      21.648189912164856      13.919128985488344      1.7934563996609199
   173   1      20.297280401830026      15.325831561503239      36.056467354514062
   174   1      21.764151943522709      16.623011237415515      1.5860857360040206
   175   1      20.281426961686037      17.933031164093119    0.049306702886303913
   176   1      21.653616556407489      19.334811345030374      1.7943399072456481
   177   1      20.473840786344336        20.4066069392812      35.793977940191674
   178   1      21.659017269792827      21.735120094324525      1.6333334560293435
   179   1      20.505033213741392      23.019224706949792      35.975197574895169
   180   1       21.59439919028511       24.33345877624318      1.8428067818294278
   181   1       23.10139954893992     0.20004773488821975      0.1818687397082841
   182   1       24.03541308729147      1.4919216276285545      1.9759400425323066
   183   1      22.875769229638809      2.5400811052344383     0.10399070991458068
   184   1      23.961441354019389       3.877480284509133      1.8345124006219284
   185   1      22.990330248647272       4.966685232065263     0.12480036412484895
   186   1      24.396638049801332      6.4175446384122674      1.8622044538806888
   187   1      22.676869009081713       7.682586643246367      35.970992699962046
   188   1      23.986339679954817       8.686708346081943      1.8381115440794575
   189   1      23.040300728356907      10.061323872218543      35.930684427670329
   190   1      23.991520349570621      11.503567105431179      1.8891291976182047
   191   1      22.852297241235419      12.772801714613923   0.0057754823277264104
   192   1      24.022071477434892      13.968754815340382      1.7909375435335062
   193   1       22.95697186606013      15.349746675238206       36.07455714393064
   194   1      24.212079247808312      16.373745880478932      1.7028237789065546
   195   1       22.91362611344422      18.204215959967975      35.903165921922607
   196   1      24.142415715333392      19.188160162387515       1.733823304045871
   197   1      23.133268804325784      20.699153592821368      36.002501769086727
   198   1       24.32909066164558       21.87290807805201      1.8625495028103722
   199   1      22.973238211450742      23.159308076131339   0.0059876742256165117
   200   1      24.244842527178523      24.490271110326574      1.8851216450903048
   201   1      25.510331005116836     0.40515969657147161       3.664311729909004
   202   1      1.4554835256468577       1.386219332310767      5.3341484032704551
   203   1       25.46104400382173      2.7617824115762777      3.5342909107938127
   204   1      1.1850361019438989      3.8383091515361603       5.372463847354922
   205   1       25.33328015954493      5.2833550792745125      3.7802479804104645
   206   1      1.1520007860627315      6.3358397178187369      5.6746325697625162
   207   1      25.519209203240901      7.5604293585805804      3.6825514208233407
   208   1      1.1236599750650929      8.9965099718923103      5.5089442221866527
   209   1      25.359032820318582       10.25102144301659      3.7774590889728588
   210   1      1.0617640289482713      11.751245139927942      5.6470482272744764
   211   1      25.304506602193353      12.612465121466466      3.6297358852301205
   212   1      1.1516131086152162       14.12536008046227      5.4712196636466768
   213   1      25.181530336095062      15.177896512413064      3.6453773157917184
   214   1      1.0125506245799902      16.587013739826737      5.4601836422540018
   215   1      25.520532122321288      17.695037622611213      3.4810920594895252
   216   1      1.1451253677255107      19.207283230678886      5.6141863994336907
   217   1      25.479872665042613      20.195715294290096      3.8752969135154816
   218   1      1.1943852889566706      21.748598062872208      5.4731130330943571
   219   1    0.025471243273223396      22.992911657510394      3.6970414408094117
   220   1      1.3518231798889435      24.299031849968962      5.2273310038162659
   221   1       2.534255266664422      25.514406507683557      3.5274072209377221
   222   1      3.9818125803490383      1.0276662739783904       5.415927951709314
   223   1      2.5412641841949966      2.3684321695197186      3.3841801636543312
   224   1      4.0252841761765978      3.7375836644347769      5.5429546217635854
   225   1      2.2355020091147653      4.9597127670447554      3.6251847733713993
   226   1      3.4992337538924994      6.2334927282309422      5.5486044639666634
   227   1      2.5712772420383487      7.3884795834626509      3.5734641057219614
   228   1      3.9348687210252686      8.6707604878093516      5.6891437361506023
   229   1      2.3088573289416465      10.113945457280552      3.7793111229089105
   230   1      3.5533170123508402      11.644237459191263      5.8218894733206712
   231   1      2.6496775649940707      12.686644194683678      3.6455589110469462
   232   1      3.6666711059750314      13.954233236335648      5.4970401442767791
   233   1       2.520390837386862      15.317224003333308      3.7108875817501583
   234   1      3.6931883653429285      16.496445659631689      5.6372225803777809
   235   1      2.4708158141033314      17.811238017423559      3.9112271604321607
   236   1      3.7409560958065624      19.055672973419583      5.4750282007809963
   237   1      2.4675005966606567      20.236373003904934      3.8994816810074044
   238   1      3.8992494289363746      21.710115797614474      5.3102035462856199
   239   1      2.6798950520165508      23.000769206935136      3.6691146677426478
   240   1      3.8923052922587376      24.202299301562206      5.3375196494974695
   241   1      5.0333949015270818     0.27914942785269586      3.3338785507464315
   242   1      6.3376061435974149      1.0712498305565972      5.3316744720015929
   243   1      6.4518395345275117      3.4573306728190056       5.439260336021154
   244   1      5.0154453769221545      5.3475706432537837      3.7106738570138611
   245   1      6.2478489900894214      6.2334032618151038      5.4256943486834883
   246   1      5.1048411711511097      7.8212245444661237      3.8095692516792226
   247   1      6.2989050520357246      8.9028329197845419      5.5224416894447117
   248   1      4.8625343187579722      10.216114014045413      3.8307946104973323
   249   1       6.114391294088886      11.383692604714499      5.3646007500470834
   250   1      4.7885611648216235      12.790099266253714      3.4960261343457195
   251   1      6.3226128191608382      13.796059000744936      5.4002693218219795
   252   1      4.9119852076225374      15.110775135219054      3.6748027574666051
   253   1      6.1823182716876257      16.401686060901199       5.379678286234828
   254   1      4.6925430864363635      17.743325607941273      3.7448279072155506
   255   1      6.2823923497392347      18.997366343620161      5.5714525326032467
   256   1      5.0244525871272945      20.293827817060546      3.7248086402704583
   257   1      6.2610879369603651      21.759333951120912       5.331951104110721
   258   1      5.2714952022485457       23.08834656346264      3.6266308494733748
   259   1      6.5309326925653375      24.216968153239783      5.5272235235301856
   260   1      7.6590269427687474   0.0092936469880624643      3.5030455063980992
   261   1      8.8918486750337156      1.3516228826966963      5.6041448677540568
   262   1      7.3623415786814599      2.5033733154926052      3.5300693629343516
   263   1      8.9092758909668106      3.7021269479115855      5.5174012169316535
   264   1      7.5656086720592626       5.011362157673851      3.6601781009254934
   265   1      8.9719758887783989      6.1300215347892957      5.4758055303923214
   266   1      7.5213627956664935      7.5704076722105285      3.6808722644089316
   267   1      8.6989704154067891      8.9147973010532091      5.5590848741118588
   268   1      7.4800991483968184      10.080264975491644      3.7799264207422745
   269   1      8.7183546408641686      11.429877076265306      5.3806682762880627
   270   1      7.3527240985891593      12.473451265426311      3.5468913297736897
   271   1      8.8210022095403335      13.882560441412691      5.5189106456925581
   272   1      7.4439020712939046      15.292449059448135      3.6773904622228084
   273   1      9.0015921793762246      16.681001195661707       5.399879520274391
   274   1      7.7207005280165726      17.769333357595826      3.6936815400529954
   275   1      8.8620363000941182       19.20332705681674      5.3467338607438499
   276   1      7.6700064278520488      20.346742303498356      3.6730481995013498
   277   1       8.885494119882944      21.922412532880532        5.41270228324227
   278   1      7.7500416277703001      23.163070106316809      3.6141826510264536
   279   1      8.9468651152878067      24.362559483792893      5.4578575003761278
   280   1      10.291846813956875       25.44339416068242      3.4743340507703131
   281   1      11.155918501021194      1.3782121742881885      5.3172061761099183
   282   1      10.237172833034371      2.6332563380788696       3.472559563562664
   283   1      11.326162751079647      3.9391636826206802      5.4531249196847389
   284   1      10.032641510926064        5.09626218182885      3.5203070749430156
   285   1      11.559411338309566      6.2981854176369412      5.2823271842795494
   286   1      9.9517480455468927      7.5772558423789533      3.5667417063088709
   287   1      11.415558282224781      8.8829206255813347      5.3195922329460661
   288   1      10.039515708206647       10.12741071227577      3.7094163040885118
   289   1      11.462742221217111      11.419582680502508      5.6282827869787262
   290   1       10.25165662316372      12.712258999383968      3.7262225854221298
   291   1       11.35167364010055      14.047020095955606      5.4219310210718668
   292   1      10.217163701775389      15.202797694479505      3.2851189348697742
   293   1      11.390163244270896      16.584545307154716      5.2969600565906063
   294   1      10.284598236394638      18.110356059442708      3.5579280150160222
   295   1      11.531578792870517      19.377035840097772      5.3866144013880195
   296   1      10.283763019802077      20.519632512160825      3.8153787802849584
   297   1      11.468071697108508      21.756173616167391      5.5151855143334609
   298   1      10.299665818250661      22.966652664892294      3.6722547083339108
   299   1      11.314303295569648      24.368001868629118      5.5565782452937009
   300   1      12.543250342324276      25.495889580296833      3.8700146168297498
   301   1      13.924170193021071      1.2277264010653346      5.4784937499225226
   302   1      12.582345305946999      2.5300356810108284      3.8666673601944321
   303   1      13.759210374973236      3.9226840081218857      5.3638063298397549
   304   1      12.527430939925656      5.2029373168814637      3.6040177540480376
   305   1       13.98155241338573      6.3300680701859058       5.614973726049608
   306   1       12.67777063647813      7.6217301532089587      3.5721115340212677
   307   1      13.907310781521939      8.8847994110593227      5.4204616129444574
   308   1      12.635920856716236      10.194329254360095      3.7302423973286674
   309   1      14.125212799629173      11.430087311133288      5.4473042068623734
   310   1      12.673458820432371      12.769903483585122       3.722943832819392
   311   1       13.91378575969582      13.893007845270247      5.6857485204789011
   312   1      12.872520609113181      15.131365421146713      3.6911329448212333
   313   1      13.960069119620018      16.523750061201323      5.6422599580093209
   314   1      12.629878714939116      17.929519249593781      3.5379827983813721
   315   1      13.913827271703378      19.207549986235033      5.2361454727366112
   316   1      12.669071271425448      20.432289552903018       3.519396045314692
   317   1      13.997700914830848      21.541932071066579      5.3202273542223972
   318   1      12.977241201059906      23.007372292896022      3.6027752627690819
   319   1      14.024943926951623      24.293758960349017      5.5500147705960865
   320   1      15.038903707114095      25.458336075542128      3.6529373119796498
   321   1      16.462552718959284      1.2902077976741924       5.177282701022488
   322   1        15.2078170140746      2.5952871640548123      3.7713305301059346
   323   1      16.695405045133722      3.8898517774719008      5.5356399512347974
   324   1      15.318721938111363      5.0151162006250312      3.7310494938413994
   325   1       16.56157727474924      6.4325318275726895      5.5777700415998721
   326   1      15.144859936863574      7.7009408110810869      3.6643613986333383
   327   1      16.280682482633829         8.7762250251984      5.3529546320881431
   328   1      15.328034049832143      10.170769314423348      3.4894034335457618
   329   1      16.639552542904422      11.332788442914737      5.4065115772491303
   330   1      15.114368404487532      12.730034452271322      3.5955424043872997
   331   1      16.572393173292468      14.097781164762083       5.362498563486378
   332   1      15.282955907407878      15.339285656328949      3.8115382885655853
   333   1      16.568076961446927      16.564668093690539      5.4815929662697789
   334   1       15.23261381606665      17.791066934302773      3.4744057407419531
   335   1      16.478680602351691      19.012266034404764      5.1994546427828716
   336   1      15.235440890115601       20.27876978384062      3.4368224584231952
   337   1      16.557180830662031      21.499162663625139      5.2721558028928888
   338   1      15.398873644729754      22.808443034492878      3.5213313511462845
   339   1      16.559430555193515      24.212782732607604      5.1756325996542349
   340   1      17.998421645610179   0.0025171843065837519      3.3170843577738411
   341   1      19.075637692920537      1.2245010061703261      5.5881449095042104
   342   1      17.881060029987729      2.5453983686730588      3.6728586005306805
   343   1      19.113895299059781      3.6570738819730102      5.4768764260308416
   344   1      17.774011337202321      5.0727409420034837      3.6841440089454909
   345   1      18.910184788471817      6.2249723286377776      5.4375469924885254
   346   1      17.805767960079244      7.5397729575495509      3.6658657283724176
   347   1      19.104102195968629      9.0762844776126137      5.4271483158312162
   348   1      17.832796281007425      10.393326487686863      3.4574422767128459
   349   1      19.200411225084444      11.476899172823524      5.4773549385364806
   350   1      17.735795822104627      12.869338580247772      3.5125155848846479
   351   1      19.206650777670525      13.972294818190468      5.4723970096966061
   352   1      17.742436669119765      15.176138456888838      3.7071642933471782
   353   1       19.19560202559709      16.407368477026164      5.3149646098138712
   354   1      17.959304886083576      17.708458138610389      3.5927240418140061
   355   1      17.865355168115283      20.308692459156191      3.5450733122788978
   356   1      19.124778443715812      21.584514028115777      5.4624059346864406
   357   1      18.057190970416759       22.85430827964483        3.68688666278875
   358   1      19.383919740617593      23.986768445883765      5.3408412081951555
   359   1        20.4106540718047     0.18575098650178706       3.629645053973551