dump/Cu_720_20/steps_11 (written by ASE) 

1980 	 atoms 
1  atom types
0.0      25.526554800834361  xlo xhi
0.0              25.5265548  ylo yhi
0.0      36.100000000000001  zlo zhi


Atoms 

     1   1       25.50901350057762      25.456304126873139     0.37652994442959231
     2   1       1.360767634822668      1.4467556852593342      2.0615544841798501
     3   1     0.11112235003005967        2.64219165094288     0.17983175965900949
     4   1      1.2861457250432906      3.8961661072923177      1.8538737654944737
     5   1     0.12116978224628799      5.0367672837127859     0.10690258826160734
     6   1      1.3758905160403685      6.6189691351104232      1.6723497362224395
     7   1       25.50452172569068      7.5047752702121526      35.987912176768454
     8   1      1.4260915660503908      9.0098477654034514      1.8893387250515399
     9   1       25.44533089191118      9.8586288616329476    0.095563763985341943
    10   1      1.2547616046699306      11.424249558586112      1.7101026827330656
    11   1      25.414253272366892      12.861090292856378     0.18427543959152223
    12   1      1.1824379587467435      14.076800246612066      1.6107485536588897
    13   1      25.335827418020202       15.57666060903636      36.046440243835704
    14   1       1.121672063892259      16.539971836302204      1.8996038832365012
    15   1      25.347218004682752      18.024494720362895    0.067132754196802633
    16   1      1.2905773856875895      19.170948467347571      1.9162857445887296
    17   1    0.049355536634755413      20.293049588903013      35.892803401454366
    18   1      1.2357079583946946      21.618750598484876      1.7541608916172213
    19   1      25.473476069846271      23.117747429177786     0.35705790673795273
    20   1      1.5351244970995446      24.443035676943119      1.8934502715136081
    21   1      2.5179307383212466     0.12214227911063279     0.10795009470464274
    22   1      3.7514628505954555      1.3721456262603795      1.8637337503061633
    23   1      2.7219867104145652      2.4739906857309921    0.064979260873144498
    24   1      3.9279338983625367      4.0020769902723776      1.9191983190682205
    25   1      2.5381585191694427      5.1491210559467957      36.078696631402828
    26   1      3.9391874381497201      6.5275604120893513      1.6387164508887071
    27   1        2.49998247218016      7.8160446261143512   0.0048118895991137956
    28   1      3.7983552037617252      9.1152139518539812       1.999400149263387
    29   1      2.5072228868886253      10.313932108744226    0.077257495849414506
    30   1      3.7851795710154534      11.502318196900134      1.7026560026762925
    31   1      2.5133332782058901      12.931264181613949      36.081803068262666
    32   1      4.1774999079066237      14.041507922642595      1.9085425317079949
    33   1      2.7563711665557293      15.376255607258422     0.26000572226631657
    34   1      3.7401361238008977      16.708008778418211      1.7843511666939087
    35   1      2.5991337586032133      18.006742160136135    0.088717673884434453
    36   1      3.8086673508997482      19.163117090615284      2.0287612435247291
    37   1      2.5792480392933084       20.36459282368142    0.043465607372422874
    38   1      3.7968570764961984      21.631487058958157      1.7643214771783291
    39   1      2.3729611414713951      23.041298584772274    0.060681473435397495
    40   1      3.9074568931848375      24.153754422826921      1.6736884123444851
    41   1       5.045321977956192    0.022678293861554278      36.099319855364769
    42   1      6.3764522075846353      1.1914587191796686      1.9307517110823615
    43   1      5.2952891714924766      2.6152634280942286    0.089817414578954147
    44   1      6.4516911519343045      3.8672374706643255      1.5062408919005856
    45   1      5.1557854142809072      5.0486544398673194      36.018495104774196
    46   1      6.5947380303904675      6.4050287930318062      1.6643788558255883
    47   1      5.0504140924149317      7.7980722105819229     0.14115854541188358
    48   1      6.1766843977717896      9.0058892203160124      1.8048992537165189
    49   1      4.9367511887644353      10.352606809585357      36.071649930927791
    50   1      6.1606937332887455       11.69530991083616      1.8700854161984914
    51   1      5.2483058066298902      12.909195479138356    0.023118274701744226
    52   1      6.5754748149882074      13.999330376356403       2.091682526059254
    53   1      5.3821013740650523      15.410925810797863     0.12468354775485313
    54   1      6.1906899561960866      16.674902974520393      2.0472540928042346
    55   1      5.0282790613732606      17.884121745522872     0.20198368192795896
    56   1       6.586956501451362      19.181174539060532      1.9836634370222319
    57   1       5.156156591460701      20.109628347122722       35.95201654737464
    58   1      6.1506945797859487      21.669653779237795      1.8982021479311471
    59   1      5.2201630431328141      22.935348720348998     0.04794521455938814
    60   1      6.7377122982759614      24.220381232660205       1.910852620759522
    61   1      7.5961154615473951      25.321526721425119    0.082149296365378224
    62   1      8.9853840480334632      1.0994868466760164      1.6954914617918804
    63   1      7.6991617303422659       2.348055870983516      36.060608912315352
    64   1      9.0676964371898645      3.6050327363393584      1.6878691248465529
    65   1      7.6986044567689706      5.0028252374203959      36.044866958574623
    66   1      8.8893423583687046        6.25254359706235      1.6078428496311636
    67   1      7.8546434162577334      7.6582336317015889   0.0046179913305081739
    68   1      9.1266488465030449      8.9912498818440039      2.0163393228131765
    69   1      7.4314329889641089      10.420226793764593     0.12800706224254568
    70   1      8.8600200177731985      11.617219354663234      2.0158581525942036
    71   1      7.6620359105678499      12.909499109009097    0.025434636279453589
    72   1      9.0322422986345572       14.08154887585577      1.6898880998747017
    73   1      7.6332453398066766      15.516385587813382      0.2793312397829254
    74   1      8.8444698631795156      16.682668891506804      1.9754745245102412
    75   1      7.5548782888338559      17.912605050634788    0.067405498615892095
    76   1      9.0811672101696743      19.232733193300501      1.9378175381065703
    77   1      7.5649862508160259      20.565776034498299       35.93659631684821
    78   1       8.758544618436229      21.798349511359127      1.7990977769549676
    79   1      7.6374926503153882      22.852799878099056      36.053471616745682
    80   1      9.1399670551641243      24.294522007004019      1.7096054017707718
    81   1      10.174922740601644      25.366501625246872      36.044117147641508
    82   1      11.462934727102288       1.117418497088505      1.6361526577094527
    83   1      10.161924963655437      2.4977083415657102      36.008732071074981
    84   1      11.521464113926237      3.7976243736410744      1.8069039896368608
    85   1      10.282677443143111      5.0527308656776846    0.026844492537850317
    86   1      11.537493270276611      6.2926054637059066       1.897828668680644
    87   1      10.370335221705211      7.5835303799599743    0.020754852744858016
    88   1      11.700871411825112      8.8505734023269529      1.5807555597946243
    89   1      10.095368340827219      10.278385998910318      36.015555846619193
    90   1      11.334254221820618      11.491081536287899      1.8441733944347691
    91   1      10.344434884178135      12.947892855840784      36.063023286972914
    92   1        11.4946914816909      13.882233899437724       1.864095199104439
    93   1      10.275028298764109      15.456907855964255    0.062453039065155827
    94   1      11.416670315897091       16.64360922444569      1.7040768090988641
    95   1      9.9583685447930819      17.991713064732732    0.027901514895245325
    96   1      11.456880047067127      19.239877676132622      1.8191976701442405
    97   1      9.9902783672003093      20.517342052890829      35.864168182917787
    98   1      11.598015898025867      21.829215564433561      1.6921649837126789
    99   1      10.270979014643652      23.088594102555309      35.892383950039793
   100   1       11.51594934704848      24.229055506610866       1.600339897648736
   101   1      12.846056438607896      25.506560110809016      35.867063176013133
   102   1      14.149390760372684        1.39137381543188      1.5607345916898892
   103   1      12.889497168389054      2.3843290150675402      36.074259605566503
   104   1      13.915432361575132      3.9570090129467075       1.825431015417315
   105   1      12.930482044425233      5.0626602323720649      35.981506911438537
   106   1      14.200223832588096      6.3078033546598737      1.8985737773060467
   107   1      12.872129336281496      7.5195704730384634      35.768596861529083
   108   1      14.170731378469108      8.8647109114801186      1.8055435040388161
   109   1       12.88749823685505      10.172186563942057    0.082927101908080503
   110   1      14.098021165143555      11.547305914754348      1.8422029170110819
   111   1      12.684324334661547      12.514351712261204      36.095997044169131
   112   1      14.098176183186579      13.867018630658576      1.7292965768554396
   113   1      12.674157161684425      15.288080146933499    0.079986470071491997
   114   1      14.190872749436124       16.45978752713582      1.7903288858506001
   115   1      12.653995846194714      17.816329832424199      36.098680504473961
   116   1      14.105909768086368      19.136426803746708      1.6157222564559792
   117   1      13.027201383165577      20.629838415564329      36.077745915671926
   118   1      14.121538319107058      21.687072460188823       1.741730048451632
   119   1      12.691707790132522      22.944313876643825      35.997390326218117
   120   1      14.244399958334967      24.533051768887226      1.5870118099430341
   121   1      15.410295393087724     0.19088086654449649      35.706943482910859
   122   1       16.59276093798255      1.3271206019352846      1.5670397730773178
   123   1      15.445114355307632      2.7913320305207021      36.051784273156628
   124   1       16.57744028478912      3.9788186449668586      1.7541530420515525
   125   1      15.291943799238819      5.1503417605130091     0.19950941464455824
   126   1      16.664418227053776      6.5348375521043511      2.0670885259857057
   127   1      15.279697572580476      7.4473887821656293      36.091064304354973
   128   1      16.824150060360594      8.8535657242545138      1.9771606602703402
   129   1      15.411247874165207      10.273318891272636      35.936186649749651
   130   1      16.494750691661089      11.383168791767934      1.8138702820680923
   131   1      15.200484364909684      12.772648588801083      35.905276688549087
   132   1      16.683890591090037      13.839036239297259      1.8118308374852403
   133   1      15.176738753668502      15.264386840565592      36.097118954785891
   134   1      16.508658023214569      16.416387900269836      1.7206712566619893
   135   1      15.050855900899675      17.710758518016853      35.862460499219232
   136   1      16.486319027487397       19.03335195911513      1.7720072642917655
   137   1      15.348967966669015      20.353556125740496      36.006419768379352
   138   1      16.720745026118252      21.549252540464273      1.9915349966412359
   139   1      15.256726002164637       23.13181603118425      35.970893062516346
   140   1      16.586881362840419      24.374294038633582      1.5626539272982665
   141   1      17.962402294487774    0.039058143444305658      35.916792385627929
   142   1      19.288733637065107      1.5793825279164504      1.8635543306028794
   143   1      17.662922786663565      2.5566282816748029    0.029260810625908122
   144   1      19.190496522590337      3.9261742939121933       1.750429960810969
   145   1      17.844001868496122      4.9981028483240042     0.16134082706566902
   146   1      19.201187884376694      6.4101925813746625      1.8481968410097795
   147   1      17.855295986155369       7.542073146942494     0.13799217956802745
   148   1      19.333457640173158      9.0301278250864492       1.870807579835138
   149   1       17.81278734259725      10.095044792657376     0.05694817283039124
   150   1      19.146712100232449      11.423484360653825      1.5652320938507835
   151   1      17.623309865033512      12.740627089441382      35.923262090990548
   152   1      19.101152053376861      13.869147731279432       1.747583420601871
   153   1      17.873038058576583      15.348247762705753      35.929496898488999
   154   1      19.033810138882682      16.550655019418354      1.7061395119114069
   155   1      17.697831427104223      17.876883242262082     0.06572089612100189
   156   1      19.176893819227381      18.995688309182764      1.8640039512329969
   157   1      17.764891569819202      20.338646084563965      36.009566794088734
   158   1      19.216945298984331      21.669407232890084      1.8699667621461589
   159   1      17.775568954890836      22.826880184594053     0.12331932541949291
   160   1      19.095968625067915      24.298163763711074      1.9468216981755631
   161   1      20.306426028291551    0.061098755938230442      36.027164290916396
   162   1      21.751569147528574      1.5160727824319589      1.6034221023710187
   163   1      20.535571217357422      2.5860222564451414      36.002130131052191
   164   1      21.841137695655377      3.8192133510108182      1.9564914887545326
   165   1      20.384453548609624      5.0442342022356357    0.028214776650020229
   166   1      21.771299027380731       6.454576172772116      1.8313206660832742
   167   1      20.422883186182609      7.6548833671110446      35.823707853546914
   168   1      21.852291841559691      8.7145168124212091      1.5765945023244727
   169   1      20.478840052560756      10.216961036881342      35.844690255737184
   170   1      21.687515156212573      11.125008387717028      1.5706913783953265
   171   1      20.368405467894121      12.746307137013842      36.012851890074835
   172   1      21.717908875344595      13.838223243503972      1.9186730535965129
   173   1      20.381537572485804      15.280395247296138      36.046559380976937
   174   1      21.500182701667168      16.513709400560899      1.9265762441803647
   175   1      20.395270256323887      17.656115993656989      0.1024682571452333
   176   1      21.651597749221846       19.15452600762498      2.0487757787768128
   177   1      20.451289178867828      20.361344506020078     0.12270241044961966
   178   1      21.537270964800928      21.655736813384021      1.7805934606826226
   179   1      20.295001764233479      22.990582801249278      35.968446206771731
   180   1       21.77023307690305      24.561461689911777      1.8614455263247112
   181   1      23.115611655941816   0.0062728504375211503  0.00091585492343711087
   182   1      24.211135212901404      1.4650048101828346      1.6574568224825625
   183   1       23.04420450257496       2.803549571757773      36.038631540836256
   184   1      24.245488013492203      4.1334634997529882      1.8599559376488637
   185   1      22.751485438139035      5.3185419783294163    0.040134237138295357
   186   1      24.397316995276139      6.4227874799093705      1.8296224058584469
   187   1      23.079694227481866      7.5709717679649238      36.091603913188756
   188   1      24.283142321690633      8.9323576908060183      1.8108217598778991
   189   1       23.05797746940658      9.9595034787317331      35.960093166830397
   190   1      24.223035327862512      11.463383581503649      1.6478326648416433
   191   1      22.840535541967682      12.574990009547488      36.001066617886174
   192   1        24.0559620672508      13.994873292348029      1.5449916975696976
   193   1      22.671322661763973      15.281777499718221     0.24316395442111796
   194   1      24.089229695610001       16.59126862154865      1.8113181995869361
   195   1      22.863882149433017      17.929385944993371     0.26626533320874152
   196   1      24.080741969617623      19.130180315948422      2.0054652407044737
   197   1      22.963365762790662       20.25843884981342    0.094419976704443964
   198   1      24.257705174737385      21.684473159434525      1.7802924799391677
   199   1      22.873396233271308      22.689440206993691      36.060624010539499
   200   1       24.12340941989865      24.576579106954362      1.9390847635092887
   201   1      25.481603888805264    0.075150808237938335      3.6946247557783458
   202   1      1.1969322694751803      1.5078350000325207      5.0988900239615145
   203   1      25.438137085230061       2.801116800533221      3.7112071321519857
   204   1      1.1529626647830231      3.8081313119251976        5.44350000560169
   205   1      25.498640243864799      5.2774618169247169      3.6263788023985883
   206   1      1.1961915037147361      6.4636999174931287      5.6731783531884075
   207   1      25.290435727402468      7.7539900212455075      3.6899568308000803
   208   1      1.2705039592860681      8.7950465263842901      5.5699576410387408
   209   1      25.459253507398827      10.144593903181955      3.8184689305676689
   210   1      1.2239639620175704      11.662838085494304      5.4762012591721954
   211   1      25.453990593088644      12.607850256969568       3.615697147642682
   212   1      1.1682336782703628      14.018148262372025      5.5378965758734502
   213   1      25.481073818633792      15.268813884936685       3.643791384429317
   214   1      1.3675072641432819      16.577713700915904      5.3261778377889968
   215   1      25.336412411143673      17.735016531133226      3.7133974966103449
   216   1      1.5460099351599352      19.069540840770351      5.3979957936725409
   217   1     0.17917569343571005      20.384212182000748      3.4640502487700693
   218   1      1.1282804836947646      21.811808655153978       5.198944940773452
   219   1       25.48427935478594      23.062994749507819      3.4248225653588844
   220   1        1.18037592240593      24.245957568332187      5.1464484766178025
   221   1      2.8231602026989315     0.13798648996985594      3.5461471219191263
   222   1      3.9175047302753341      1.4443564073180768      5.0423360388726532
   223   1      2.5774090330825969      2.7748292324087798       3.580517243984823
   224   1      3.8953942680448685      3.7909550988274647      5.1142393264518002
   225   1      2.5306075502110916      5.3289876646650001      3.4808862569942325
   226   1       3.736285882703231       6.537666442039618      5.3420894574535236
   227   1      2.4139328081398119       7.757761246442203       3.673583676227794
   228   1      3.7167648580981951      9.1539315466567075         5.4710942809678
   229   1      2.3800963116440736      10.585399474199138      3.6374914592423102
   230   1      3.6574611802500909       11.49785462970582       5.381278945441192
   231   1      2.3081746427720362      12.964241038677105       3.415960955204616
   232   1      3.6270162092831573      14.015063522509873      5.3468185686539806
   233   1      2.5128966353078082      15.280027352797735       3.425184047108941
   234   1      3.9791440372950313      16.550952957722718      5.6659576448234521
   235   1      2.5461005661314848      17.636222815469221      3.5588375416960853
   236   1       3.962656158410915       19.08421217339329      5.4783814811399276
   237   1      2.6243408234419152      20.468849252742032      3.7326237693569513
   238   1      3.7628952835580285      21.860323873013744      5.2267972174721047
   239   1      2.7267039753415916      23.017849237630006      3.3234143493215922
   240   1      3.6891492334838984      24.402097603339929      5.1736167925399377
   241   1      5.1966874392312414      25.388585528243485      3.5941646724223686
   242   1      6.3997621059249461      1.2202042016290353      5.3996574370687842
   243   1      6.4564540132369652      3.7996876827033579      5.3276121716775444
   244   1      5.3412267142845433      5.1386377322330805      3.5229646640538244
   245   1      6.3594870319290457      6.5097850550561445      5.3567061633943513
   246   1      5.1521115805755731      7.5316114956105258      3.4836695459360736
   247   1      6.4031306983765104      8.9188038409974677      5.5757194431542922
   248   1      5.0454190863079234      10.384293597145634      3.7569422645151196
   249   1      6.3362253781161977       11.50214184747011       5.610176520421648
   250   1      5.0522619748456332      12.713628845442523      3.7365207299615584
   251   1      6.4062512057729881      14.227117284188152      5.4799690291422767
   252   1      4.9790287358051506      15.442488704189801       3.705187919098452
   253   1      6.4971242192406535      16.618071409818064      5.4972457148332321
   254   1       5.162101149367599      17.841900013890584      3.6405707189728655
   255   1      6.4878893518832292      19.311624541752401      5.5115931385201353
   256   1      5.1644901209379466      20.497411618077518      3.7039359628903235
   257   1       6.462994474918581      21.824495098006775      5.4276351992662235
   258   1       5.291551084274281      22.947507479604482      3.5238006767957941
   259   1      6.3116496672868214      24.431525659264221      5.4651172370373127
   260   1       7.747593576896362    0.078789020651095873      3.7439251743268693
   261   1      8.8683944348536077      1.3589362438511396      5.4246643342456071
   262   1      7.8201867232494022      2.4139980486945882      3.5210517637072027
   263   1      8.9287442107149797      3.9251051712973943      5.2974223405531156
   264   1      7.6186511539947119      4.6862062678520502      3.2560511660371274
   265   1      8.9117158916497079      6.5231258535269969      5.3317086555944302
   266   1      7.6531454697694166      7.6442720253206851      3.4674496198049836
   267   1      8.7874632252231226      9.2046948784455207      5.4738011873364778
   268   1      7.6459107101371435      10.277386011359225      3.6967617948418217
   269   1      8.8947677145467434      11.802942476558128      5.4697588254356644
   270   1      7.6418092213020676      12.917202430585483      3.8307532999591403
   271   1      9.0499293962836127      14.185601486333759      5.4325341728904393
   272   1      7.7867016689288366      15.292727070226995      3.6323630115328123
   273   1      8.9559805413713001       16.86468804146843      5.7000473177953603
   274   1      7.5897894567829933      17.778597827320599      3.7767779152953609
   275   1      9.0953784003176565       19.34500293934574      5.5037653828616193
   276   1      7.6607374402009238       20.71763006114093      3.5056984248560852
   277   1      9.1545791986594267      21.858355986541049      5.4389708722830514
   278   1      7.6674571178830311      23.203782020089207      3.8082827634487808
   279   1      8.9376092464058665      24.223713017538035      5.4556095357962215
   280   1      10.210528362665618    0.031015099165324519      3.7234458229391283
   281   1      11.480653674160454      1.2687406637567737      5.4566250123235749
   282   1      10.307817531601378      2.2989961584422427      3.4607536931497624
   283   1      11.248108604852797      3.8771110886635745      5.2180452352138555
   284   1      10.129113768415927      5.1724181935584062       3.491940978822289
   285   1      11.233881526963449      6.6327421162282985      5.2666975193206413
   286   1      10.217453686372661      7.8300529805456938      3.3888728599805065
   287   1      11.362971180693538      8.9620860567243206      5.2428981148305862
   288   1      10.216302232864342      10.407647389702202      3.8581300804648402
   289   1       11.62462532400648      11.537460963417228      5.5045186897366092
   290   1      10.446070147585131      12.774623651746724      3.7256624215597158
   291   1      11.478720346890723      13.997215957708196      5.5045212465220335
   292   1      10.278512394662629      15.244318314207314      3.5860538466145258
   293   1      11.522936585125077      16.489433069447614      5.3169933421263931
   294   1      10.080501437765665      18.063252632469911      3.6446395592992644
   295   1      11.462180667257911      19.238573168660068      5.5292140929441631
   296   1      10.387802712407494       20.56692590009229      3.5305065184885951
   297   1      11.575875918788162       21.67122718283817      5.3830615607799732
   298   1      10.262894457039351      23.022400553642733      3.2984468058423317
   299   1      11.542279702746878      24.359294385904722      5.4542348051147966
   300   1       12.77089601158977    0.030062888153989244      3.3884872819158667
   301   1      13.983958026732727      1.3927724685355316      5.4058079769464742
   302   1      12.813815995963488      2.5602532616258173       3.438041517503986
   303   1      13.826100250005862      3.9250621586542396      5.3649381667146763
   304   1      12.719816688897652      5.0414149657080767      3.6285919261846518
   305   1      14.088988000539823      6.2324496546355501      5.2703258270999465
   306   1      12.698796940845014      7.6988735678715647      3.7040705726414762
   307   1      13.888703736747711      9.1902582489666038       5.628533661164802
   308   1      12.652725504519683      10.145707805493789      3.6001128650545073
   309   1      14.084320660069272      11.742456581236315      5.5323199283181115
   310   1      12.873860000616276      12.655940337091577      3.5259234015521552
   311   1      14.164697002585335      14.111093638218476      5.6058811647914535
   312   1      12.901259310597041      15.285760133269406      3.6714835318852406
   313   1      14.185593741839353       16.47700155655393      5.6012161306595996
   314   1      12.801789144945356      17.860572787324092      3.6921618144259516
   315   1      14.094996607827659       19.18898974042807      5.4308288972695227
   316   1      12.900255349814078      20.625226633424365      3.5168825410623854
   317   1      13.835402628640708      21.791089417908019      5.4711339877816858
   318   1       12.83672359556514      23.058908276509932      3.6129557712564044
   319   1      13.941232692193841       24.23170536679234      5.5489476476796158
   320   1       15.06775187657599      25.517333993863318      3.5766197035906213
   321   1      16.509684837057002       1.284658405787096      5.3318613598482933
   322   1      15.267328914131923      2.6399656443145707      3.3771697595211547
   323   1      16.539006742739289       3.924071006421868      5.2887938761346351
   324   1      15.236500488474814      5.0254841850540091      3.6173606793165338
   325   1      16.687898900581132      6.5390044683159223      5.5134424895026699
   326   1      15.285751873293787      7.8331008106507554      3.5702054648789496
   327   1      16.511193786170068      8.9775198735011426      5.4713910116788966
   328   1      15.340326585027983      10.347935367775779      3.7131469022783996
   329   1      16.614214265787787      11.714514871674647      5.2448988925115199
   330   1      15.226709179667305      12.854375376453456      3.7087786515953032
   331   1      16.686614780165222      14.322692536626175      5.3316541709076848
   332   1      15.372548725224592      15.317794284986405       3.541842475414378
   333   1       16.75415167880848      16.784008406735808      5.3965546617325622
   334   1      15.250450429744459      17.857600675275393      3.3164143679025302
   335   1      16.862724431057444      19.275801244266543      5.2403403606914694
   336   1      15.510804161880241      20.585306232772343      3.7264761855890227
   337   1      16.834644974731784       21.88890243505266      5.4249293245685104
   338   1      15.409723560257195      23.066194176152823      3.5201950092228573
   339   1      16.539177643819471      24.291980512515448      5.2534113039749792
   340   1      17.760976320511713     0.13630146334442395      3.3934603742616782
   341   1      18.928861258449199      1.4416822000233283      5.3309254392130718
   342   1      17.920810359173835      2.6730439838510431      3.4463715643914505
   343   1      19.075081953765451      3.6782778424300173      5.4035194319304081
   344   1      17.849284082886097      5.1383322744470279      3.5975713792846706
   345   1       19.20512208420249      6.1412168116667551      5.2043942974961501
   346   1      17.949835809923155      7.5866977580438153      3.8620051293604631
   347   1        19.2596108105359      8.8752823873948561      5.4008696024973872
   348   1      17.950452729825408      10.351357942553364      3.7212555918227976
   349   1      19.097321744877469      11.491955554644294      5.3285159023004081
   350   1      17.779592837383273      12.837731757509678      3.5955771024119958
   351   1      19.179371486192636      14.001801057126247      5.2531625080163753
   352   1      17.884195000900498       15.28811273877268       3.491199875703161
   353   1      19.040974881668447      16.528951291238219      5.4234400632352369
   354   1      17.780349185512826      17.985582078750429       3.632152277204201
   355   1      19.325606557279269      19.148159215290704      5.4261875989567638
   356   1      19.151829040056622      21.707032767871215      5.4686863623407751
   357   1      17.781741934183117       23.11847547233716      3.5877246357439945
   358   1      18.980155378719548      24.310546359673278      5.5037306179730097
   359   1      20.278601842321919     0.16568261735535883      3.6697905381662519