dump/Cu_720_20/steps_1 (written by ASE) 

1980 	 atoms 
1  atom types
0.0      25.526554800834361  xlo xhi
0.0              25.5265548  ylo yhi
0.0      36.100000000000001  zlo zhi


Atoms 

     1   1      25.437496242536806     0.10621669134334157     0.16058258654337579
     2   1      1.2562199805682639      1.3156200861025058      1.8694309470042645
     3   1      25.495398598809356       2.524560810393135      36.037831152347522
     4   1      1.2189008993353008      3.8569981572491496       1.843979487444962
     5   1      25.407537548706603      5.1026894953593551      36.064435329226129
     6   1       1.095139691643312      6.2977965956507145      1.7446602450278881
     7   1    0.097998620126036051       7.497957259775867      35.987569702128155
     8   1     0.98122523819436414      8.7235295286915431      1.9042228024741246
     9   1    0.044296002209737249      10.056156039178401     0.26765158934992983
    10   1      1.0302547450746096      11.736930696689493      1.7761452480153925
    11   1      25.430486128481942      12.694340527145293      36.099775606258788
    12   1      1.3760129425518139      14.025609598369511      1.9353061676265264
    13   1      25.473067562117436      15.230375205517223    0.083111505020838125
    14   1      1.3704349530069457      16.445156675381558      1.8072858605382962
    15   1     0.12428525088299312      17.902486386685464      35.974569946511984
    16   1      1.2422371142537674      18.971433751891812      2.0612022689506277
    17   1    0.097819179424022518      20.455219909120146      36.045375514051806
    18   1      1.4668526536522761      21.804188612730737      1.7841922364050435
    19   1      25.494842799309374      22.944186725738252      36.096123464077976
    20   1      1.2837802596147019      24.251944966814715      1.7799156515502756
    21   1      2.3381407981912621    0.013124527306893308    0.065546339429465542
    22   1      3.8898994308807491      1.3718501605028759      1.8973818763341344
    23   1      2.5176844493780943      2.6251451081683324      36.017920706671433
    24   1      3.9068655188021073      3.9230394574391121      1.4600034836865228
    25   1      2.4478549977000168      5.1384317203517389      36.019267765191721
    26   1      3.6388788164680768      6.1544756213038916      1.8573767258531562
    27   1      2.5904376820679187      7.7422331929887838       35.90345451142079
    28   1      3.7363959658542538      8.7171148510783425       1.700345369626995
    29   1      2.4737738570512109      10.214029523442624      0.1843940900199412
    30   1      3.7691467523513227      11.738222365308477      1.6077177651270749
    31   1      2.5156834987225194      12.684312333053658      36.032549096067363
    32   1      3.8339988586929019      14.056539450463569      1.5128988477494087
    33   1      2.4352705194029824      15.224185352668913      36.053518321535819
    34   1      3.9348679757163643      16.513787200118006      1.7037654447574246
    35   1      2.5082590069191779      17.667782999714404      36.079607687108563
    36   1      3.8589938980655467       19.12610934267553      1.9110306088026738
    37   1      2.4347649877280673      20.224187812402043     0.16418206490325252
    38   1      3.7930895956971691      21.576336968682213      1.7999607855996715
    39   1      2.4200432983380566      23.048258877306999      35.768347659039343
    40   1       3.721087570744992      24.223428669287262      1.8868275516172957
    41   1      5.1268303346496156      25.405325159696364      36.049816675826641
    42   1      6.3712623365905321       1.276496722878534      1.7975594632708636
    43   1      5.0771179503557518      2.4385745857291385      36.057224377794654
    44   1       6.334310343366421      3.5710045184749402       1.483142142064787
    45   1      5.1023711970030901      5.0657842598042286      35.953725659181231
    46   1      6.3146692732637986      6.1168543080005655      1.5862551838197987
    47   1      5.0880280719331186      7.6658569341065155    0.052812870558170827
    48   1      6.4263728284556638      8.6862150843576238      1.8264932516250061
    49   1      4.9998238204111267      10.032455363030202      35.857217715625914
    50   1      6.4125558161094993      11.121264986472621      1.7823568742708191
    51   1      5.2065970228607288      12.761328554368479      36.049094650543132
    52   1      6.5042701898497057      13.973176373246321       1.955682888965214
    53   1      5.0764611004052664      15.325399140515135     0.12657342394883245
    54   1      6.4474260369405654      16.876245939719176      1.7469317896108458
    55   1       5.031235516279196       17.72092660951909      36.054388558277473
    56   1      6.3958748178417046      19.252818880731091      1.7111423204278942
    57   1      4.8545690367331282      20.368942078736652      35.954478674577231
    58   1      6.2639785644966199      21.572748319512382       1.732986018053623
    59   1      5.0047742231776562      22.877891018181515     0.10732316282123967
    60   1      6.4968182220014254      24.156012554902819      1.9181957104500855
    61   1      7.6992116174814997    0.033892730264607519      36.081615366910505
    62   1      8.9588454321063189      1.3605384596999719      1.8232616590242516
    63   1      7.7180512773055474      2.6152529594502276      35.912121259275096
    64   1      9.0891220501157424      3.7641493462122879      1.7690517704730055
    65   1       7.763184968210731      5.0525168894503647      36.002437846763023
    66   1      8.9772276222478986      6.3127909852461945      1.6864666487192506
    67   1      7.6169254454940987      7.5485656353785213       35.95883433178993
    68   1       8.850022827069278      8.8816505976335769      1.7978634352263845
    69   1      7.3345488588349053       10.15064791419668      36.091196842982882
    70   1      8.9437708402989138      11.389740710581927      1.7611444174258726
    71   1      7.5777060942528784      12.746575340736856    0.065647353671761416
    72   1        8.98804656425499       14.12197838385627      1.7191858771868509
    73   1      7.5661976835165126      15.389629379049442    0.090855529297539261
    74   1      8.9197978596942757       16.50458030092971      1.8117305603630016
    75   1      7.4668788583061447      17.834418444412051      35.893282861451873
    76   1      8.9622592111025909      19.167658039836638       1.591101135177575
    77   1      7.6331375982047138      20.452866384116309       35.92207630707555
    78   1      8.9269948909812715      21.479334109092964      1.5855575798828805
    79   1      7.6763186470528844      23.078473214406429    0.042486406561818034
    80   1      9.0725093683582934      24.313792018793507      1.7307060246948371
    81   1      10.328686731119546     0.19783374621823635     0.11697812698412254
    82   1      11.518932526677451      1.4433788827293268      1.7891159189743802
    83   1      10.152465612768678      2.7164556365195529      35.889650009454606
    84   1      11.533102682745051      3.8277736856611591      1.7062594559341047
    85   1      10.294929282203249      5.1011419127162538       36.03901087644541
    86   1      11.588723724066075      6.4105002477328368      1.7893336673406106
    87   1      10.234841585892418      7.6338253661626112    0.059700074011937131
    88   1      11.380834982197964      8.9565216721757821       1.804149417633518
    89   1      10.158546183018164      10.228422116284323      36.093074071758103
    90   1      11.448075287214261       11.42591006149504      1.7377277956111696
    91   1      10.347827408636116      12.760310511367424  0.00061682854994842223
    92   1      11.352299605628961      13.962310579383388      1.8303940228037061
    93   1      10.126422960173143      15.214738888267098      36.091383126353854
    94   1      11.706061902295938      16.593457131013466      1.8179437618603176
    95   1      10.062384752189146      17.830520430326811    0.058358908267985135
    96   1      11.494737668586781      19.090180118525147      1.6419493719151883
    97   1      10.293029626375505      20.415492376019181      35.885594208184294
    98   1      11.448602415083815       21.67180352774427      1.9784660427232765
    99   1      10.244573279007742      23.214838776866834      36.031578384033146
   100   1        11.4818896780721      24.109036649329465      1.8053446812832261
   101   1       12.85053827105188      25.393756944139753    0.076063515706118703
   102   1      13.881731847586167      1.2710168483951105      1.8852034054025806
   103   1      12.790477106554347      2.5316503307896223    0.042532092910562258
   104   1      13.854803735510142      3.7635788541937054      1.9767965905601599
   105   1      12.748624371210854      5.0036527462560549      36.008516725680906
   106   1      14.043282566099647      6.3914253884248309      1.6680880208398199
   107   1      12.648459249067505      7.6675905581901631      36.050791968102523
   108   1      14.057127538143593      8.7838427166960678       1.727694346219891
   109   1      12.594149048703594      10.194185766350753     0.10888470609666018
   110   1      13.990687042400548      11.585133233589389      1.8920147909820126
   111   1       12.79350338249208      12.657960695988557    0.095169258578687396
   112   1      14.104895399686265         13.923513705921      1.9158151259278284
   113   1       12.88485210287263      15.137956723462336     0.14312066856473385
   114   1      14.079938056135772        16.5939478971836      1.7099299995977619
   115   1      12.771086509967279      17.783273470276068      36.047580289376398
   116   1      14.190551850342976      19.381490688141735      1.8080898681245692
   117   1      12.882784565045732        20.2252242329381      35.982992324985865
   118   1      14.157341322300898      21.789464215297226      1.7840258869264176
   119   1       12.62842333589222      22.983971815538791      36.049574007835666
   120   1      13.839847989386598       24.21438909251934      1.7405131947882866
   121   1      15.408197046575987      25.444195343717261    0.013382756723763121
   122   1      16.398717405556319      1.1605668662224988      1.7231973065945894
   123   1      15.218037861695541      2.4663281017226408    0.013765358334660513
   124   1      16.758265360402937      3.6450870749924849      1.9425028671885134
   125   1      15.562727344755036      5.1428116204722585      35.851558500805012
   126   1      16.608517440774229      6.3086174468210103       1.601705373198183
   127   1      15.274160598661998      7.6207136227999159      35.924852539432614
   128   1      16.460701229986082      8.7343029946583801      1.6100020081242163
   129   1      15.244927684782509      10.295432352718979      36.048357249219059
   130   1      16.612983914357915      11.300732206805632      1.7896400539608517
   131   1      15.329749869718142      12.572764781549244      0.2182610973454189
   132   1      16.482138057303054      13.811652773809726      2.0644198907939213
   133   1      15.245645009244221      15.093191563081133    0.013729716680063566
   134   1      16.608668422573579      16.488296732564038      1.5483160709582549
   135   1      15.223364378403895      17.720912095365239     0.06466788936595555
   136   1       16.55286644544621      19.192385259375119      1.7973417191277448
   137   1      15.284697170737305      20.045568349368963      35.947458787487626
   138   1      16.660633011447537      21.693207598977867      1.6927039375719133
   139   1      15.285845482928032      22.925808722047272      36.060826701400366
   140   1      16.549190995624645      24.120038532824839      1.8128953037554638
   141   1      17.691722403352728      25.413877413601625    0.070160313380552036
   142   1      18.938939893220038      1.0979110120771578      1.7212141668317151
   143   1      17.906053677815109      2.3459972492186676    0.033125188636893205
   144   1       19.04394471622475      3.6904158047224542      1.8561198641681922
   145   1      17.947128642677825      4.8514303342825125      36.081427315544715
   146   1      19.131519231089904      6.4392839450707662      1.6842095720186554
   147   1      17.859711461419959      7.4833576442339877      35.942618502548946
   148   1      18.857852040982493      8.9010546904537673      1.8128406216289261
   149   1      17.777345594058342      9.8079629806125688      35.929956091977793
   150   1      18.986283703212475      11.388284111822069      1.8670677103513649
   151   1      17.794725020807526      12.674054232368302      36.084479263246401
   152   1      18.762754414507878      13.890013029529719      1.8215367163674485
   153   1       17.85791927197694      15.057003592609222   0.0083394222858260095
   154   1       19.03576470584099      16.461533849727825      1.9682698806313521
   155   1      17.848179190487972      17.887987977183737      36.034982653549449
   156   1      19.114847067336939      19.009543028224559       1.791673198901764
   157   1      17.778172272480102      20.368289652715365      35.835196739626859
   158   1       19.09515715897987      21.618522814235138      1.8638559193638804
   159   1      17.774473745437319      22.970960877732729     0.03103783073314615
   160   1      19.052235809968526      24.025707606923614      1.8496771802788756
   161   1      20.235253789539886      25.418396117993431    0.012966586957793408
   162   1      21.555606991100376      1.2752321395166868      1.8639863192207387
   163   1      20.465905731059546      2.4804163302731363    0.049066854256636795
   164   1      21.727029437562702      3.7291893857749239      1.9333277686185153
   165   1      20.339443562715346      5.0240109073308519     0.12394494491596804
   166   1      21.700630229246816      6.1349219839801794      1.9374065589535132
   167   1       20.33293230850137      7.6800471247145454      36.084611211730092
   168   1      21.369012427555429       8.802966441331602      1.8362068658312991
   169   1      20.402997465331715      10.247354205116496     0.31361126524554939
   170   1      21.827467890837244      11.399641135617474      1.9767152708553006
   171   1      20.440826401517587      12.805610139211513     0.21315493381614503
   172   1      21.641602854777901      14.084387467578535      1.7601298779536811
   173   1      20.450194896909942      15.237397295336066     0.15293887030505871
   174   1       21.77448080044946      16.652307493623589      1.8020368959524271
   175   1      20.359748667195912       17.86415134619385    0.011134474630546254
   176   1      21.663995894270148       19.21694234969015      1.7727401380728096
   177   1      20.288713256707979      20.345926414464934    0.027069621486623421
   178   1      21.566864542533601      21.657393529415216      1.5981049367373652
   179   1      20.310045535608605      22.826997872352113      36.071824700537711
   180   1      21.684100909199575      24.192813280290377      1.7348785514848482
   181   1      22.863794588698269    0.086812258132054357     0.12414919804158431
   182   1      24.245832335282014      1.4103184161368358      1.8367814256107755
   183   1      22.860495035467853      2.7773052916649212     0.18635043834608481
   184   1      24.109467229904805      3.9568075853724998      1.6799417665245528
   185   1      22.910633044213949      5.2975900687997424    0.018435538316055038
   186   1      24.192359940336221      6.4471138195655389      1.8572368694887134
   187   1      22.872868796999768        7.70938854746068    0.075630993034713032
   188   1      23.855392518829152      9.0254804067379943      1.9075089856513718
   189   1       23.04490771658179       10.20370524616559      36.086054320317047
   190   1      24.217705226286949      11.479090190695652       1.781377452651703
   191   1      22.930793801395989      12.742977875747071      0.0155330342141383
   192   1      24.052526807180644      13.787177424091395      1.8596307028950836
   193   1      22.953182815164428      15.324114619656394    0.054147898595454137
   194   1      24.393764366181131      16.665783007794023      1.7781934933535573
   195   1      22.886844939674596      17.807796038557314      36.040455814726087
   196   1      24.225228620426762      19.060526115474595      1.8151889151493823
   197   1      23.116567198812433      20.471820991241028    0.058604102124127117
   198   1      24.207627648549845      21.688388930367896      1.7730420673792868
   199   1      22.915923215535216      23.029065336053659    0.075265501682497363
   200   1      24.338623181050853      24.398059989499835       1.848207757031993
   201   1      25.517603823351553      25.371804702864775      3.5124617989898175
   202   1      1.1303867129995293      1.0619444444985204      5.4924834451771964
   203   1      25.484235004414256      2.4967469387934167      3.6333689312566975
   204   1      1.1868774850620778       3.684273509760176      5.5368423521229531
   205   1    0.018935824971405286      4.9346201980214159      3.7008167711131441
   206   1     0.99116167127047083      6.2993264560959581      5.4913600929684137
   207   1      25.249326876084645      7.4372903813242592      3.6863261783349799
   208   1      1.0949398185084287      8.8229308467401193      5.4499294581970199
   209   1      25.470103065575682      9.9555370797148832      3.5384850786688178
   210   1      1.2656825073561089      11.115520826278109      5.4892478332188652
   211   1      25.450661277418774      12.645467788079008      3.8161229680007147
   212   1      1.3866954004589032      13.806854989537237      5.2421565609341156
   213   1      25.481370198726225      15.109933581935227      3.5620939077829701
   214   1      1.4643358093913614      16.473651144688105      5.4293618112430986
   215   1      25.526462167097314      17.715438814446564      3.5789423451270288
   216   1      1.4166083094031903      18.994069676305234         5.4404995225352
   217   1   0.0083254734096184033      20.349180370655048      3.6914781808894359
   218   1      1.4087430107076857      21.730838829988677      5.3765086039663448
   219   1    0.050450790646089906      22.925107130671762      3.5915752204421683
   220   1       1.215572810240277      24.098874121196264      5.4130418406344853
   221   1      2.4162034020662198    0.018956211525409716      3.6861602469404717
   222   1      3.8505040314434718      1.2719750874084303      5.2314768433232706
   223   1      2.3055318029427387      2.7040863489744109      3.5830480659085548
   224   1      3.5214832583508189      3.8349843333578049      5.3186312592578737
   225   1      2.3025267325337322      5.2178990129650344      3.7604939162490134
   226   1      3.8656637923415977      6.2446264631538488      5.2353946524834472
   227   1       2.417287635902134      7.7501422442208909      3.6613231856134032
   228   1      3.6719613686987391      9.1099923799305582      5.1108700818164339
   229   1      2.5229349367202909      10.380577183591988      3.3673028979045614
   230   1      3.8388262811907121      11.408967576980528      5.3228469487887358
   231   1      2.6856991567502537      12.870590313797965       3.537051160586647
   232   1      3.9192515094559064      13.941337831583082      5.4911247783990733
   233   1      2.5520004215383478      15.207419344089844      3.5711509540840543
   234   1      3.9670273112286507      16.529257391653417      5.4232206278972672
   235   1      2.4528179806328723      17.699512891543762      3.7628243687972387
   236   1      3.8934822039295547      19.048120883667202      5.2062482699357409
   237   1      2.6509549052241805      20.540184607632131       3.610784255965803
   238   1      3.9549282848432572      21.466375614426799      5.3317821483758996
   239   1      2.6669983261796579      23.137307682287087      3.6582180671180904
   240   1      3.5581785230574621      24.344775091427014      5.6465221845364493
   241   1      4.9504058872020735      25.263890753632435      3.6178929353012275
   242   1      6.2813256028710791      1.2247116682901424      5.2137458276641748
   243   1      6.2904409402510231      3.8808315910050939      5.1852060456259217
   244   1      5.1424946094186534      5.0728297787129364      3.3820523906314874
   245   1      6.3293547126623473      6.3568075946664111      5.2925251985289679
   246   1      5.1120373801237813       7.531528523518574      3.5585792075460758
   247   1      6.1548488831312165      8.8242862190991556      5.4981897351458517
   248   1        5.31938518734197      10.191244802144587      3.7195964781372703
   249   1      6.3023450830312102      11.521722872425382      5.5535214374367179
   250   1      5.0029078853765112      12.715666094152958      3.6871938710446814
   251   1      6.2933122891912419      14.009811450231078      5.4431904466720953
   252   1      5.2950866977875144      15.366017113827276       3.694055366776666
   253   1      6.1817054812191525      16.690406004353076       5.280137856322658
   254   1      4.9151342924204222      17.816918263735971      3.5474319737689486
   255   1      6.3706711435587851      19.067478683890762      5.3375456808230046
   256   1      5.2110116791454253      20.254771216122403      3.6401990036992435
   257   1      6.3634349503510865      21.396802601192828       5.227686520847258
   258   1      5.0944506857863461      22.953261101971403      3.5835727306680027
   259   1      6.2501945247538346      24.033104792682909      5.4511435916704061
   260   1       7.551927864228337     0.14468262251538144       3.545320402284311
   261   1       8.784751671554476      1.3712945405110841      5.0810531020980765
   262   1      7.7001488079051761      2.5843497099935573      3.4222102951489992
   263   1      9.0777093913961551      3.9824373074932127       5.432191587874617
   264   1       7.743991342176753      5.2441564027291774      3.4676948377152255
   265   1       9.023022059152936      6.4057848947351692      5.3873126820819657
   266   1      7.6676265338215392      7.5813628686358721      3.5218264382072229
   267   1      8.9725857445744257      9.1096349390755584      5.5121182800851276
   268   1      7.6863493122464819      10.155044306221294      3.7206808442892072
   269   1      8.7941107611057916       11.59116089596718      5.3965910553148024
   270   1       7.481105633452489      12.721216616898593      3.7552218329891081
   271   1      8.9997370391314906      14.092062009301902      5.6368941939007895
   272   1      7.7598063272947622      15.197050300534778      3.8669814498969819
   273   1       9.103939739983046       16.45202822812314       5.404791847067747
   274   1      7.5770308345692969      17.938692561333646      3.6251649859542097
   275   1      8.9974024053370218      18.929482464970345      5.4366981281757596
   276   1      7.7409603197778383      20.283416981599739      3.4450389600437905
   277   1      8.9058934067952897       21.63244465138105      5.3429416646418479
   278   1      7.5435726328208528      22.835277052642454      3.6304753373539782
   279   1      8.8723632805197212      24.223433769665903      5.3216729211252085
   280   1      10.298785323737054    0.097457046596115926       3.514833327514896
   281   1      11.248844589423438       1.312535127180364      5.3104501761440481
   282   1      10.163951914518202      2.5390582282149676      3.4393017574376823
   283   1      11.367737969764786      4.0983415520715756      4.9956723333326778
   284   1      10.159144094962194      5.3318481134374887      3.5254147420115372
   285   1      11.626914636265264      6.4487804341798025      5.3736450879692388
   286   1      10.239106839910971      7.6552037643062203      3.6031332301293677
   287   1      11.767841482144895      9.1460868909629518       5.377840671305508
   288   1      10.363355843483989      10.204970715259938      3.6622383761782689
   289   1      11.418612116668728      11.548127871480865      5.3983718048458389
   290   1      10.239389292367889      12.934849211492681      3.6162660903240336
   291   1      11.576814531765358      14.103940858580541      5.4942276595183301
   292   1      10.142468193314899      15.295883859029356      3.6839425655406708
   293   1      11.603160359372749      16.888014258451928      5.4060215449637541
   294   1      10.173330345796428      17.706119999705354      3.5685771290523705
   295   1      11.521139182994725      19.380784692370604      5.3732138898657134
   296   1      10.256210822024519      20.226741593051944      3.4887643175322971
   297   1       11.67629786844315      21.795959162829213      5.2038300647561311
   298   1      10.042890017817617      22.731301320178009      3.6290016925899899
   299   1      11.320866124771536      24.119599020933109       5.553242982116295
   300   1      12.563232315699857   0.0067139944298533275      3.6745164468224645
   301   1      13.724310362750632      1.3466335786093331      5.3773295955406226
   302   1       12.61005432856189      2.5162058169381361      3.6062821131325018
   303   1      14.196493194674625      3.9974876883212178      5.3832748619859432
   304   1      12.751846177158475      5.2649842951284596      3.4532737802999232
   305   1      14.202395891917909       6.425149017400984      5.4754318523600043
   306   1      12.644613996515725      7.7374309470055147      3.4962919397418304
   307   1      14.250547718000263      8.9073575158451668      5.5759757706687108
   308   1      12.963877725255962      10.259827352872421      3.4908972830682488
   309   1      13.993384866065069      11.409960752394438      5.4397218524153184
   310   1      12.615084608805226      12.694888929278221      3.6226701288414822
   311   1      14.069644177436615      14.075374010215958      5.3224439379410127
   312   1       12.63557967268607      15.179860956992984      3.6921359394910316
   313   1      14.068565072680473      16.627538246423939      5.3546677948312871
   314   1      12.859730996785347      17.512866052027942      3.6261879704962072
   315   1      13.889302532221585      19.080667724175502      5.6064498956727693
   316   1      12.847418288865393       20.38041807568192      3.4818949290349215
   317   1      14.087151433827618      21.797702775235553      5.4426202080981758
   318   1       12.79399479497696       22.94251599867874      3.6054359077765965
   319   1      13.844925735083333      24.238379186105934      5.2793455731421535
   320   1      15.239294296228845      25.368979900135788      3.5922745154918858
   321   1      16.457299147327397      0.9724441576332058      5.2820355163839645
   322   1      15.141837886791263      2.3491236171900267      3.7585095582266312
   323   1       16.49682347123338      3.7627513971129067      5.2185123359513872
   324   1      15.318163302741549       4.973678452857385      3.5169566207007059
   325   1      16.596888484821715      6.2292209156318163      5.3293599805819216
   326   1      15.276620657348714      7.5826527070469316      3.5568291566936852
   327   1      16.653157108188747      9.1576214398775218      5.6189263982847653
   328   1      15.397472525788672      10.187423567580803      3.6957192317482082
   329   1      16.761264852700585      11.573742229668511      5.4715425508828357
   330   1      15.180091212364639      12.606943919942381      3.7698728380981521
   331   1      16.652581204313339      14.061713019506023      5.1348628186696654
   332   1       15.15153439051252      15.188821835821322      3.6193362755971563
   333   1       16.76314962243535      16.446312144604505      5.3258960041418772
   334   1      15.273080354042282      17.563839613072187      3.3148790158645953
   335   1       16.50008451860289      19.031401360121503      5.2026520203288129
   336   1      15.600358662401478      20.454778412536559      3.5832696636407735
   337   1      16.732521736652373      21.572540469001392      5.3055465731706297
   338   1      15.400907168784988      22.955369567176668      3.4674680386132652
   339   1       16.33922537610113      24.082447872967855      5.5572925745169721
   340   1      17.686085731403775      25.401225464335397      3.5381927331214906
   341   1      18.978422330132229     0.99344894527403282      5.3552823939343126
   342   1      17.589130800696228      2.1884350227413458      3.5370136629085103
   343   1       18.92219525717827      3.6888204823751005      5.2848132005194222
   344   1      17.790453504050234      5.2303536815596168      3.4259012559293418
   345   1      18.844530568570018      6.2540481221155977      5.3986415490854345
   346   1         17.821078164229      7.7149966261049174      3.4914558300937757
   347   1      19.158763283548964      8.9630939777901872        5.35916535115802
   348   1      18.069133194832826      10.307252051629067      3.5795020280675094
   349   1      19.032429379579856      11.450839779295482      5.7160630856957058
   350   1      18.004841460864391      12.721087275207466      3.6015680987505325
   351   1      19.412252894478492       14.09562573882793      5.5430458072733169
   352   1       17.85516054654645      15.270363381911826       3.522339351683184
   353   1      19.124603143460778      16.695610310992162      5.4125118524043581
   354   1       17.85797779264492      18.134713250257885      3.6568174891223233
   355   1      19.020763808844535      19.270675676549544      5.5220241853020875
   356   1      19.247577208509025      21.712819074895958      5.3464276733486997
   357   1      17.854900963499073      22.916450149095915      3.5932095843632523
   358   1      19.193420805317224      24.155828409081998      5.4596652236847509
   359   1      20.362790931270847    0.036926701039291895      3.5905392775859459