dump/Cu_720_20/steps_41 (written by ASE) 

1980 	 atoms 
1  atom types
0.0      25.526554800834361  xlo xhi
0.0              25.5265548  ylo yhi
0.0      36.100000000000001  zlo zhi


Atoms 

     1   1     0.23101208974538232       25.46394180388765      36.043384381391853
     2   1      1.2820085428673704      1.1603296365798967       1.801850553954454
     3   1     0.22359663815300765      2.5633064942750083   0.0018390048549349564
     4   1      1.1567286814946576       3.696458597651775      1.7240617192542478
     5   1       25.40670177331879      5.1764404026628501       36.09198123894469
     6   1      1.2178121065356751      6.2794589717186993      1.9092367038664761
     7   1      25.408920522864424      7.5814001306388956    0.049265014685192898
     8   1      1.2454347432024273      8.8163157933482363      1.7408434276031599
     9   1      25.402170524176924       10.19650243105392      36.085608148253172
    10   1      1.2665330643201407       11.40124807362877      1.6794727104567191
    11   1   0.0062154804927012598      12.749692387284412      36.070472072881792
    12   1      1.2459337514315225      14.105482301261199      1.6955326291382091
    13   1      25.504111072952952      15.244770767826786    0.010984876450049813
    14   1      1.1316883580428772      16.618465265262031      1.6322485682346397
    15   1      25.499913522982276      17.896659283065329     0.12118762278739734
    16   1       1.387602124205277      19.238327093907284      1.7067978952506568
    17   1      0.1770082925106968      20.441852164669456      35.946164498033674
    18   1      1.2716018592262608      21.837981308813649      1.7878906119468316
    19   1    0.033224375340613926      22.930848925003961       36.00669669855656
    20   1      1.3230457780905265      24.322686788696899      1.7312085341754615
    21   1      2.6959331049127422    0.072947896527465819      36.018673999576059
    22   1      3.9019372229155334      1.1188499594806964      1.6602162179013464
    23   1      2.6044098437624941      2.4541370900933068      36.096406053003719
    24   1      3.5796413514173979      3.7109573755898841      1.7788816511005843
    25   1      2.3914067896117741      4.8626981108004284      35.999046446797557
    26   1      3.7463213989589117      6.3012922558702815      1.9051134285251694
    27   1      2.6001264073706838      7.5152118202765514     0.16798462851930934
    28   1      3.7002655334874048      8.7106121589307151      1.7322870133193655
    29   1      2.5963307527153945      10.056250090786508      35.963567003249558
    30   1      3.6084059534468418      11.344209851290426      1.7459141175651429
    31   1       2.494395727633254      12.765060191640531      35.988673568191096
    32   1      3.6996381428023768      13.973478371268916      1.8404339944019841
    33   1      2.5814307569353052      15.352698107136511      36.089218651543568
    34   1      3.6214866235699592        16.5725498211706      2.0036463410673275
    35   1      2.4412242714824446      17.879614562906976     0.10425767647403748
    36   1      3.8662113730250103      19.118364912439386      1.9424834040768826
    37   1      2.6669049525416537      20.378704098941146    0.028615132164793514
    38   1      4.1373725989686845      21.464527516459246      2.0781055913851345
    39   1      2.7193944862944832      22.810177064797358     0.25421296416176364
    40   1      4.0604681749899383      24.153281764529059      1.6874502671323977
    41   1      5.2777996955576727      25.465155808838666    0.026253254628045408
    42   1       6.368180558885884      1.2321326644925712      2.1022189755551706
    43   1      5.0498024672115003      2.3960051401522415    0.015221844612744909
    44   1      6.1751160182903648      3.5737198361155333      1.8685591450408663
    45   1      4.9136547333738161      4.9286542213997073     0.18431853455322192
    46   1      6.2612096564900792      6.2281965707029681      1.8428184058244164
    47   1      5.0626625853117009      7.4515935367385318      35.976837040433921
    48   1      6.1849973026000109      8.9746849982470067      1.7646693184725786
    49   1      4.8800943219663422      9.9803700283532617      35.977871523313802
    50   1      6.1812081111124009       11.38564039324268      1.6064036105654069
    51   1      5.0294829127787697      12.831731806549138     0.14549939222882816
    52   1       6.472792208935175      14.122599544929244      1.8686120846713372
    53   1      5.2279415481706328      15.201940764328263     0.13517711416296838
    54   1      6.2990537830935143      16.554576573030314      1.9585242415820172
    55   1      4.9689456185217962      17.910169211345821      36.074816414101562
    56   1      6.2858826531247054      19.041180830652671      1.8438472792295224
    57   1      5.1923518650137535      20.294996809404591    0.075447125588414182
    58   1      6.5355094328130301      21.403501504695523      1.8956756448736427
    59   1      5.2998164019204053      23.027886074580401    0.010263086893439787
    60   1      6.4780038672344347       24.30959836797458      1.9663685915816487
    61   1      7.8062168690804867    0.045685384961020876    0.054396040829226257
    62   1      9.1250668387511542      1.4178456278866824      1.9041804082291596
    63   1      7.4274389446149947      2.3892511733073447      35.987260093774999
    64   1      9.0224638667581889      3.7151615947811565      1.9159094780093833
    65   1      7.6218612412097997       4.726341097280276      36.031433797174074
    66   1      8.7642623620748221      6.2011710814520642      1.9307321234565962
    67   1      7.4506997045725685      7.5201121790284864      35.996858451070885
    68   1      8.6035170783245452      8.7816307056660108      1.8263403057630754
    69   1      7.4161681874560692      10.111391624910615      36.027634190667108
    70   1      8.6335154352856147      11.293303781226767      1.7610114471333755
    71   1      7.4763247277798435      12.691789367434817    0.077594817429269297
    72   1       8.849197811512596      14.147316315380534      1.7833120725002582
    73   1      7.5972070395386524      15.103633956308327      36.031884555857374
    74   1      8.8320499078042154      16.399546699436435      2.0186389797686264
    75   1      7.5957989963374208      17.875657603577597     0.11173917091890634
    76   1      8.7614496261743096      19.014068065112749      2.0548339978249048
    77   1      7.7086433181723191      20.445618322164375    0.057695699916803338
    78   1      9.0977007789967796      21.574774753662243      1.6734508641051213
    79   1      7.7594240821140197      23.054053449827496    0.073012869269268657
    80   1      9.0107547468807834      24.297477908167078      1.7797101765822727
    81   1      10.440920774976416      25.319733941743426      36.053296501072325
    82   1      11.475028487855633      1.2853327741952882      1.6565605051108254
    83   1      10.216679784801389      2.4870856727447497      35.959119281830169
    84   1      11.576525191471703      3.8935123826965534      1.7500636922334827
    85   1      10.095313153219932      5.0506172153166675    0.011184650321411018
    86   1       11.59325398127989      6.4331243848880115      1.8000860933090639
    87   1      9.9683158849929896      7.4958523586186345     0.31567252391740802
    88   1      11.300287469150833      8.9685877232904616      2.0014225657145968
    89   1      10.198291105257743      10.158451693413665     0.25096642763237464
    90   1      11.272825554514149      11.582197897084537      1.7962562918046285
    91   1      10.031218204799973      12.810026794062551      35.972789864062563
    92   1      11.331454212087715      14.100920675485014      1.7995182768446969
    93   1       10.25759610317983      15.278844387616115      35.929566787553043
    94   1      11.599857017874474      16.579877546252234      1.8655749339922194
    95   1      10.222015318484125      17.794358728970295      36.024511425298627
    96   1      11.548585623865083      19.130249509142736      1.7574416738261776
    97   1      10.233937782917772      20.396299716101755       0.177531457580892
    98   1      11.803966558609075      21.778539546828537      1.9408569311112611
    99   1      10.296326930106462      22.843197937344812      36.085579187188749
   100   1      11.644496890204485       24.24973657698823      1.9259739475530764
   101   1       12.86277427942465      25.377989174797801       36.09459823410868
   102   1      14.099421309828516      1.4847977790280056      1.7884473068723308
   103   1      12.948265581031409      2.6971968206323016      35.878855301295289
   104   1      14.195443908386006      3.9240358869871099      1.9560235648217834
   105   1      12.668671575862895      4.9419896640636365    0.012685282886650382
   106   1       14.02531160196342      6.3252979822052602      1.6605052409663799
   107   1      12.774466574565649      7.5240352020066315      36.070884945508254
   108   1       13.92218468393664      8.8104439416835287      1.7885522568061463
   109   1      12.852395885311926      9.8538349349636718      35.927922510231909
   110   1      14.086081495912667      11.348485398623577        1.88267684870866
   111   1      12.611734376464868       12.82797305721097      0.1630797299283018
   112   1      13.874023541041822      13.982897627306448      1.9151851391368044
   113   1      12.769255400308147      15.264021112626587     0.18244116520248779
   114   1      14.192953672787111      16.409523153173566      1.8188487612312767
   115   1      12.844297449839074      17.842304782001261      35.993463836566981
   116   1      13.926130587688821      18.987248544099511      1.7311303697890008
   117   1      12.818425402879294      20.399266596025306     0.13040299545979242
   118   1      14.136368847354889      21.703523262552839      1.9490588283514061
   119   1      12.908631640986982      22.806743776841767     0.19083187367747304
   120   1       14.17320129076902      24.386910900403404      1.9594140657832231
   121   1      15.386912962076025      25.436174586772481    0.055535993904663961
   122   1      16.821839147577311      1.4653987139804934      1.8136269468826305
   123   1      15.349185068801201      2.4305891942592717      36.028506007310853
   124   1      16.459754712325839      3.8942501138588117      1.6362977929740978
   125   1      15.192982210295911      4.8888250318920559      35.993891077931139
   126   1      16.485312609790842      6.4059201199650504      1.5541048015667909
   127   1      15.193267342763175        7.63751474289987      35.916835413612851
   128   1       16.38920248852105      8.9981000784848479      1.7264258173853815
   129   1      15.273304975975369      10.115254501879022    0.086365500344504589
   130   1       16.52371180814265      11.603249234999355      1.9701069291709827
   131   1      15.124593964264747      12.581385914209145    0.087916355654056005
   132   1      16.237179510019399      14.093767533386059       1.784670725837475
   133   1      15.099688892062476      15.149229615022849       0.103237456766317
   134   1        16.6709424478282      16.547947412636937      1.5985790505193123
   135   1      15.382112950678533      17.708560067039159      36.075930194377158
   136   1      16.384224298286593      19.211921668023653      1.7861921019714133
   137   1      15.411150755502559      20.472593765047296    0.080697277960894265
   138   1      16.647285867700766      21.714804316766891      2.3780573199600998
   139   1      15.290030693418325      22.992924460860472      0.1682514621101972
   140   1      16.512956169987042      24.277404805464819       2.049209524685998
   141   1      17.951335640812808     0.11402583868346154      35.965626081795456
   142   1      19.116866262985873      1.1951041805411589      1.6103211185465731
   143   1      17.825061224666513      2.5852571397030224      36.015783901900448
   144   1      19.038564501447343      3.8005713060760327      1.7724670389983672
   145   1      17.887621106097445      5.1060186477041363       35.93585017251754
   146   1      18.867422204771408      6.2756585998374295      1.7021610713124009
   147   1      17.865217857487171      7.6573328438379828      35.909130143608103
   148   1      19.349850604825544      8.7623741100896257      1.9547204357959895
   149   1      17.795641935743202      10.130118603264904      36.084030803252254
   150   1       19.19983399171797      11.544504678424936      1.7989658309747727
   151   1      18.090728155101846      12.724984084977892     0.11896664208521769
   152   1      19.073578263992797      14.225976214581605       1.879698304536713
   153   1      17.795273958928615      15.050507916008121     0.14406179869579336
   154   1       19.23233055837472      16.545355403995796      1.7974921169582883
   155   1      17.724144753070508      17.988385352347848      0.2279926262499202
   156   1      19.287929622780432      19.086665455710307       1.842920480712565
   157   1      17.810825922461223      20.460636488957345     0.27482954685281114
   158   1      18.982624316229359      21.700226569404037      1.9711782437390653
   159   1      17.776239054831784      22.892607698591927      0.1290218471231924
   160   1      19.137912159736949      24.202107108472703      1.6973325773253349
   161   1      20.473531414890651      25.416262188783854    0.032237936537592292
   162   1      21.632880008828266      1.3419908454514242      1.8745249442439795
   163   1      20.709170898049482      2.4916375385853877    0.010630210308738713
   164   1      21.546044598709976      3.8622353951695287      1.7931499346442579
   165   1      20.252509683005975      4.8365535867438734      35.944038274245074
   166   1      21.328025679545252      6.4406874555745288      1.8833628639786424
   167   1      20.457788069296903      7.6084511087732238    0.043052916471174402
   168   1      21.739536313069173      9.0061354576145991      2.1133429714055647
   169   1      20.463079353640797       10.01875364180996      35.917513842161867
   170   1      21.654969503775334      11.441521068981062      1.9729161315605452
   171   1      20.457039540429076      12.971857703905521    0.014246517164770029
   172   1      21.573383990949107       14.12170978735174       2.076240009273862
   173   1      20.307589308592522      15.446269888906484      36.059946536939471
   174   1      21.864695438489619      16.627739583695561      1.8906922366966583
   175   1      20.534378514728047      17.857082721725565     0.10940312277801914
   176   1      21.636305937134679      19.228376543609063      1.7736401175447889
   177   1      20.549707244085685      20.430737860902447     0.13764532822659722
   178   1      21.739822823006847      21.833624213271218      1.7687864930071315
   179   1      20.348807160836589      22.851863429252301    0.021428698298359444
   180   1      21.760511450108368      24.354815781253201      1.8351579936398925
   181   1      23.008375437972933      25.416922461505589      36.066407420831361
   182   1      24.112934710731153      1.2259726198995247      1.4766867937390902
   183   1      23.358394256395755      2.6342434481735566      35.922813390861705
   184   1      24.193395389622715      3.8837393638526283      1.9234885295630082
   185   1      22.820432919015932      5.1002213087013919    0.067560786052718022
   186   1      24.222342904352608      6.5946236975939341      1.7804795044070707
   187   1      22.959610849502177      7.7210910975725353    0.044021902957183522
   188   1      24.191716143339715      9.1327000585768943      1.7907913622787321
   189   1      22.825077514254968      10.302983629008217      36.072596580518514
   190   1      24.329988775587331      11.453819717669486      1.7356082071548355
   191   1      22.759511587857087       12.68789255650359      36.014379370479382
   192   1      24.342060108968887      13.931405934280869      1.9035826927033437
   193   1      22.902791501621035      15.165370405712748      0.1610028545763724
   194   1      24.278843437157459      16.776322348641585      1.8214119906843749
   195   1      23.074979482518025      17.897873856970129     0.16211810563438564
   196   1      24.188724907245522       19.23848980573101      1.9435093959272327
   197   1      23.196645964756748      20.309829979726917     0.12830866876606695
   198   1      24.250872860527039      21.749317520093321      1.6698364369204239
   199   1      23.115627637468176      22.861176634334115      36.081202830626928
   200   1      24.360902828020638      24.331074044851174      1.7280905489201142
   201   1      25.377234791067171    0.038124140257077041      3.5796114107684964
   202   1      1.4978895697738401      1.2563714408573226      5.2459849404106933
   203   1    0.040756759927323589      2.3608839295727844      3.7591275752075144
   204   1      1.1061145606276728       3.905074096624833       5.247302031829836
   205   1      25.512019962276529      5.1777980703503186      3.5770934188936856
   206   1      1.1683243452660803      6.5614326408178822      5.5046158023964988
   207   1    0.050177513547833834      7.9135937378651846      3.6860693714746144
   208   1       1.334995663233149      9.1048188193156179      5.5308422399413208
   209   1     0.10950992501378069      10.346553435752678      3.7051055641807995
   210   1      1.2660881186206492      11.560928865269426      5.6097716465364948
   211   1      25.467296513368325      12.656539998149103      3.8192484495002081
   212   1      1.1860785914180587      14.100307582752389      5.2199952799335021
   213   1      25.451660600864251      15.334300657492115      3.6348145920858239
   214   1      1.3044464381247398      16.780649340736815      5.3397327862524948
   215   1       25.48803940990862      18.058995477608551      3.5248147502931602
   216   1      1.2316598863868085      19.251097917168138      5.5378585929107347
   217   1      25.448493870414001      20.469598015917086      3.4346558431263476
   218   1      1.3090305894747889      21.673853159036092      5.2438996113621519
   219   1      25.408318082055128      23.059421017569743      3.6130498097604713
   220   1      1.2915149573716957      24.288476788459494      5.3720106877104792
   221   1      2.5044531486887021    0.033306890201593657      3.4395018669008794
   222   1      3.9432966555870159      1.5110657454237257      5.2545968222996624
   223   1      2.6285314356318632      2.4158991019644613      3.3552505866801758
   224   1      3.5480250027859186      3.6699041766717939      5.5432751912614107
   225   1      2.5630179963977451      4.9352326521587475      3.5941458979162917
   226   1      3.8538399248373296      6.1933393522474924      5.2595635641825025
   227   1        2.48745429503251      7.5337798484400968      3.6854765792907189
   228   1      3.7640113227675895      8.8921332238755078      5.3796484196367738
   229   1      2.6356815743965152      10.035193269296954      3.5656194698803345
   230   1      3.8053901918389723      11.436583317089051      5.3996552253638725
   231   1      2.4631186749922915      12.788652717609517      3.7214748079200537
   232   1      3.5525737337748988      14.006739632827166      5.2735063135581584
   233   1      2.4279543242096455      15.457570119251578      3.4649977154963376
   234   1      3.7993933939954503      16.431692755063391      5.2727503380119671
   235   1       2.416628496633328      18.033581141064431      3.6666508602456598
   236   1      3.7890439194338552      19.080364507687783      5.3865678969618571
   237   1      2.5289589770618295      20.525463388299446      3.6387755260526879
   238   1      3.7793849282452241      21.724746830571693      5.3515240176135324
   239   1      2.7712727101120502      22.981644231595826      3.5247878908597832
   240   1      3.5563324106929515      24.428825216651163      5.4264487630197298
   241   1      4.8138135869867655     0.11593647849528899      3.6037762184260811
   242   1      6.5493229671680435      1.0044263065619545       5.487753874613623
   243   1      5.9716699193820642      3.3732130435841903      5.3227246119884457
   244   1      4.9716669648144887      4.9063687563530305      3.5492165660214594
   245   1      6.0154115382898787      6.3482613542167146      5.4515803825717368
   246   1      4.9884656365565743      7.6972863787975774      3.6270179154119511
   247   1      6.1512248696819443      8.9268196253865604       5.426200751148432
   248   1      5.0659123931265952      10.109921854294681       3.499104544594287
   249   1       5.999114220490422      11.436533248331852      5.4726333392619217
   250   1      5.1838753305183456      12.631787128847156      3.6237292974229809
   251   1      6.1555182138185831      13.864957615212532      5.6162113005613676
   252   1      5.0152380423520437      15.290607612058663      3.7254480087678163
   253   1      6.3601707798713631      16.425552677602784      5.3470426946071115
   254   1      4.9276669169021767      17.902064921578226      3.6439569760704091
   255   1      6.5398317555542338      19.036833066731806      5.6635933259043156
   256   1      5.4540082624374966      20.397607238577947      3.7360323918301552
   257   1      6.5682656002515118      21.695143089870072      5.4545611777658127
   258   1      5.1848608474025779      23.118865099823349      3.6511876032569264
   259   1      6.3686007035563792      24.092622791950337        5.29017459873294
   260   1      7.8120146919568549    0.027367196549581623      3.6735378787606749
   261   1      9.0476339713850109      1.4601093951810267      5.5096645449274417
   262   1      7.6832000533672433      2.6357771842813569      3.6326812304349483
   263   1      8.7660661771589616      3.9110796961262069      5.2664444504000825
   264   1       7.355045502965738      5.0349260404610643       3.786982589275885
   265   1      8.9265261246670153      6.3681458283650558      5.3956600658808815
   266   1      7.6500281866276874      7.5033983965694562      3.6715100737806932
   267   1      8.8593584668305532      8.6994615839177794       5.241378521527766
   268   1      7.5849052621735193      10.110072995882879      3.7030228199773814
   269   1      8.8253465398945679      11.592909843529556      5.3731587689047009
   270   1       7.623736171719667      12.725866061461188      3.8135274140481896
   271   1      8.8836062402973788       14.06738480347482       5.572235764592441
   272   1      7.7427884694123632      15.082631862584373      3.7045164608394834
   273   1      8.8857437494639928      16.601554403330809      5.2925427730223307
   274   1      7.3855477848068061      17.847572894473938      3.6163714770238178
   275   1      9.0000263368581148      19.157260242146368      5.5184948622327168
   276   1      7.9441697434886027      20.569877963896715      3.8378782223046244
   277   1      9.1105765069976705      21.716200376985046      5.4957308912848264
   278   1      7.8252343143621994       22.92275712296421      3.4816688379878209
   279   1      8.7426159587007568      24.164081833040417      5.3050967916189578
   280   1       10.27936793550027      25.288031191373438      3.6987481934981461
   281   1      11.639095093638126       1.302092801254229      5.4033437820598458
   282   1       10.56055317189503      2.4675600090399037      3.5471920661306062
   283   1      11.464664653557389      3.6851852134856231      5.4521762365047524
   284   1      10.270298757278583      5.0860563002492984      3.7925184552164763
   285   1      11.359368898467659      6.5294156444155309      5.4667545947601255
   286   1      10.216297586491407      7.7784316146954033      3.6545641472096273
   287   1      11.357836147228639       9.064031935988039      5.2630558427478977
   288   1      9.9492676135126725      10.262298299221841      3.5236658798568676
   289   1      11.348914942796547      11.541314259488125      5.2848460636197458
   290   1      9.9357521245006453      12.792403244079892      3.6270553085054309
   291   1      11.383255287390334      13.955537030029898       5.548911570399981
   292   1      10.219544198059065      15.258224303584479      3.8246680023805495
   293   1      11.468262407697196      16.920489921198833       5.627689587274638
   294   1      10.320142546229066      17.799912938223954       3.697097062117003
   295   1      11.354209379035897      19.265835095022783       5.626585805011195
   296   1      10.305550663755129      20.293811749262545       3.590510313658922
   297   1      11.718072984704092      21.934960777329707      5.7631300415860398
   298   1      10.246775902366448      22.887969544442054      3.5528595951561219
   299   1      11.309323971890935      24.307294821361548      5.5071652385121688
   300   1      12.777836405010119    0.093288990050877332      3.5654848240952233
   301   1      14.061232207467883       1.335124378462238      5.6098410842875968
   302   1      12.899434664320326       2.424493571708862      3.5496021964379323
   303   1      13.953452430067342      3.8445803284987883      5.3712264436596975
   304   1      12.727972448338621      5.2050730289580995      3.7679847437790346
   305   1      14.143107457054812      6.2984409675284025      5.3171817546032711
   306   1      12.814388311759112      7.7056343542538439      3.5470310171602351
   307   1      14.013741745889924      8.7258962179394306      5.4422146619130132
   308   1      12.755661203347424      10.284589154914338      3.4418197513234987
   309   1      13.795064397412752      11.385340281022247      5.1791362615668914
   310   1      12.750982308326849      12.650579767617142      3.4952807250256006
   311   1      14.054386237658596      14.053051360897223      5.5738618218501994
   312   1      12.769919074178079      15.114345657406751      3.7468737905199179
   313   1      13.883591047398195      16.496829731851303      5.2315721430608351
   314   1      12.768525898911802      17.967845928166675      3.6368301661326732
   315   1      14.165630204344174      18.946746699848827      5.2738227715245669
   316   1       12.67570175848646       20.39441313246564      3.7393524268621086
   317   1       14.18390850777074      21.510265584781767      5.4160603899182513
   318   1      12.692023308916857      23.163053542805088       3.707456127811557
   319   1      13.884761514857429      24.288707449094368      5.3829987628469267
   320   1      15.339298485297528     0.10132687755889414       3.643006683958006
   321   1       16.49727439299717      1.3518220786421036       5.475761993210317
   322   1      15.523732468635952      2.5691179847209829      3.6294756281475267
   323   1      16.514015867166265      4.0328314155740266      5.4821801826139867
   324   1      15.387004729502433      5.2971237214492266      3.6959632636653348
   325   1      16.501818498368522      6.5949067700006205      5.5377243699910439
   326   1      15.378946685956745      7.6125906656103171       3.729547573690283
   327   1      16.475686189630924      9.1107596569868718      5.5144488932019282
   328   1      15.416215390962101      10.263174801756461      3.7770830151176868
   329   1      16.341274004601225      11.724275253446297      5.2783148991557214
   330   1      15.126418813170105       12.73501865483664      3.6546796100860699
   331   1      16.567747864092301       14.27252494906987      5.3391085648733805
   332   1      15.258782097300376      15.159137854865529      3.6066304096980959
   333   1      16.259720347237749      16.859299196967054      5.3141868199652329
   334   1      15.197245247422218       17.84321099653943      3.4689726667733916
   335   1      16.590932571586457      19.294685038737551      5.4072586707748584
   336   1       15.28235947578812      20.340111955328883      3.7377560019406979
   337   1      16.821312654974438      21.716151331545749       5.246223743132318
   338   1      15.164034661014444      23.005881467314637      3.9293595975215734
   339   1       16.33079887035257      24.229336795340799      5.5181680245631242
   340   1      17.773682285337085    0.044612322775096899      3.7485956973121026
   341   1      19.098177050078707      1.3177901999729604      5.3869248736757385
   342   1      17.727273372604824      2.6006910130433978       3.732805812085759
   343   1       18.97161295628322      3.9048293923949946      5.5127900056109507
   344   1      17.559585364506557      5.2989935775100596      3.4777033099833958
   345   1      18.900254833694589      6.2247176927474843      5.3374075468322388
   346   1      17.716274973653015      7.7845302562803624      3.4630525763602114
   347   1      19.160406619709264      9.1091578110167077      5.3693154137583798
   348   1      17.849338769378956      10.354990816072648      3.7725777446152726
   349   1      19.055367660716662      11.654676904579466      5.4651681202905529
   350   1      17.879744491161084      12.834842733056734      3.4136788131510802
   351   1      19.141931749710064        14.0400919561331      5.4025101797184494
   352   1      17.956753549517337      15.115111044746023      3.6895754950561637
   353   1      18.890708338363964      16.726898327217867      5.4536209068393351
   354   1      17.911849611154377       17.78477060534215      3.6510116115850297
   355   1      19.212122540933354      19.093775242102261      5.0435681446821601
   356   1      19.064594395912277      21.928818805117071      5.3358728472920429
   357   1      17.862030304482239      23.280095625593351      3.6618033533415484
   358   1      19.063961169255698      24.367777268008567       5.522897427367722
   359   1      20.261683855579168     0.14243802850023665      3.3986608816396933