dump/Cu_720_20/steps_61 (written by ASE) 

1980 	 atoms 
1  atom types
0.0      25.526554800834361  xlo xhi
0.0              25.5265548  ylo yhi
0.0      36.100000000000001  zlo zhi


Atoms 

     1   1   0.0040384104396630795    0.010672112863246262     0.23669665475372328
     2   1      1.1967184833078097      1.3380914936739541      1.9877827227606313
     3   1    0.029113669435940414      2.6883538191460525      35.965564431336546
     4   1      1.1315459646833734      3.9126834247585616      1.8180173105641986
     5   1      25.505919357787953      5.2331172954505947     0.16657365358726114
     6   1      1.1576425282701406      6.4425723161370749      1.8442709901794732
     7   1      25.517246467121279      7.7320663174674946     0.16951526278120349
     8   1      1.3203264893220101       8.980058321832745       1.735904512460092
     9   1    0.039012241247865204      10.285126194118503     0.18983302138959735
    10   1      1.3922832951715698      11.461148077451934      2.0623696898750827
    11   1       25.40533677598032      12.846786709447324     0.16765698195725923
    12   1       1.186225955809687      14.202902950828548       1.585777928135736
    13   1      25.330187039466626      15.382525281725227      35.984762485320196
    14   1      1.0966977735149763      16.651587560051098      1.9703888181946576
    15   1     0.17739504806639214      17.793358699722802        36.0882913318394
    16   1      1.3310097837256889      19.070969533369087      1.7566599048893174
    17   1     0.21176828222764349      20.422198874180719    0.071661384041499257
    18   1      1.1011931327221121      21.939620477962389      1.8383773886081138
    19   1    0.097584648068751195      22.904705416415272     0.01162220948054936
    20   1      1.2601546034495625      24.332436642942287      1.8710873210464443
    21   1      2.4124741027504206    0.085932636152511954     0.21826283292608636
    22   1      3.6813430319540017      1.4543044943240191      1.8115166369228757
    23   1      2.5108326729049097      2.6415528683087603      36.056994078207602
    24   1      3.8182963002281145      3.8771410947736924      1.6923280380833268
    25   1       2.624025981400115      5.2457859986498159      35.974576944966365
    26   1      3.7836045617635334      6.3031914607161879      1.7365017815876178
    27   1      2.5181442440999668      7.6007220777646642   0.0065774300400675998
    28   1      3.9733121490285508      8.8415127755938041      1.5201183497649369
    29   1      2.7527928805147228      10.122745256316152      36.086856106026396
    30   1      3.9246590888285326      11.407206618384096      1.7523510447473321
    31   1      2.6724142782027553      12.828094010310775     0.08522745995784374
    32   1      3.8675331478568746      14.210005432448661       1.856521776218393
    33   1      2.3399126366585796      15.550740353198565      36.063014663329817
    34   1      3.7434853533175541      16.797453430638324      1.7414763852212118
    35   1      2.4632774193040974      18.108001402338296      35.969552386214431
    36   1      4.0252114339609664      19.325455696144537      1.7660961389495471
    37   1      2.6497938295166392      20.554060394614368       0.269412581489337
    38   1      3.9448968418814947      21.812209235996253      1.6923484998771874
    39   1      2.7540899394574518      23.148860337753522      36.092621408235111
    40   1      3.8397557910118176        24.4263291992037      1.6968019088948507
    41   1      4.9499373006194238      25.460564145825167      35.887579035384753
    42   1      6.3436709485974889      1.1210435674726726      1.7778904397302977
    43   1      5.0797038233034355      2.4122309484525464      35.813895033619019
    44   1      6.2276954273555418       3.764873030169436        1.95044314417505
    45   1      5.1228110973983458      4.8737926233475042      35.951840799424431
    46   1       6.364250443582006      6.2264844811863655      1.8156683431308485
    47   1      5.0568375220848516      7.5592881926236259         36.037354159147
    48   1      6.5134375060413081      8.7604253625671458      1.9585958539903674
    49   1      5.3600540489555515       10.19061143760951      36.010489928707848
    50   1      6.3758710026985037      11.526758588835694      1.7766907399685796
    51   1      5.2595677111072456      12.755080357075245      36.093885662642528
    52   1      6.3943094152427982      14.227155266142097      1.9514144454977786
    53   1      4.9872487464112538      15.358355461180077      35.984595358302336
    54   1      6.3991343738475956       16.73830472260919      1.7332863223560577
    55   1      5.0802002079290247      17.879150505104029      36.070621453418035
    56   1       6.546331320932425      19.166051263454097      1.7713238751335791
    57   1      5.1744038572610123       20.46637124289871    0.016633037562519333
    58   1        6.55476294227498      21.661317567591361      1.7531597722930197
    59   1      5.2274926062232847       22.95306592484296      36.089899050725023
    60   1       6.425973514287052       24.12120259000298      1.6230421609656351
    61   1      7.6440469788320389     0.26921657764753237      36.035226086541648
    62   1       8.883906527078004      1.2360683357884061       1.641033996489567
    63   1      7.6391222508009662      2.7672559541829069      36.084697382698728
    64   1      8.7920032755021111      3.7782977376478795      1.9852169602355743
    65   1       7.659375401436046       5.123605936545732      36.049847626642425
    66   1      8.8609526597733392      6.3884505017362905       1.998222001187161
    67   1      7.6577753634673922      7.6421807865966711    0.074278446840969597
    68   1      8.9969974883723332      9.1289237654114466      1.9180165605582018
    69   1      7.9076515465813175      10.046542374943858      35.953554000661931
    70   1      8.8248595464228412      11.405080807484969      1.5811027041273864
    71   1      7.6870214704748694      12.905502828417104      35.987647576094496
    72   1      8.8728823220186008      13.723196153135005      1.9122379969991938
    73   1      7.3289144912657749      15.353017764403148       35.93844459646089
    74   1      8.7151133989954737      16.790377793795468      1.8330359053670791
    75   1      7.5050249081061668      17.979908942927455      36.068999841818417
    76   1      9.1074909425835902       19.13004142356127      1.5776913897701759
    77   1      7.5906489083803965      20.573665192405358      35.891911147384825
    78   1      8.9276008347348554      21.909747702926484      1.7338452387049739
    79   1      7.8697762733280499      22.933844412907639      35.946993146334506
    80   1      8.7710188209365558      24.332030167704715      1.7751758595291904
    81   1      10.276678974726694      25.404701122191835      35.969594804587366
    82   1      11.518477438473161      1.1322029644317517      1.6197452117462161
    83   1      10.149718689977229      2.5352595735306451      36.082065764462186
    84   1      11.356636876470857      3.9236416557472511      1.7734243761712278
    85   1      9.9434373445343542      4.9756312430544298      35.942083407876794
    86   1      11.474436372908851      6.3780535873785196      1.9413977759486096
    87   1      10.533629376381706      7.4177973808834281     0.26059540497863054
    88   1      11.683265254278766      8.8280027040892453      1.8528101285838376
    89   1      10.283102137174478      10.212645116527781      35.942763145755187
    90   1      11.446355292303542      11.478307509405742      1.5616065082724517
    91   1      10.226613052272826       12.99141217078996       35.99192387070152
    92   1      11.350353922273394      14.065916326977105         1.6916573843008
    93   1      10.001791694416374      15.347362225102579     0.26232843754099822
    94   1      11.780994959811332      16.512689420922744      1.9304810483340469
    95   1      10.510971904120753      17.853101762682417    0.032943365522316977
    96   1      11.738490952277536      19.114176078104808      2.0410935841622733
    97   1      10.321622836643172      20.448706449407496    0.027120297520002619
    98   1      11.618192086703177      21.586690653652671      1.8871758120668582
    99   1      10.131852302735037      22.992703390165847    0.073571780147426644
   100   1      11.443463329367631      24.211128156135292      1.7048906849155177
   101   1      12.751604460798266      25.476854552206898      36.001439722026511
   102   1      14.007673017480155      1.0717607926729011      1.7369530266389901
   103   1      12.830715974620363      2.4027282034419399     0.11007317349253759
   104   1      13.819080105683796      3.6841183942784879      1.6973730046746369
   105   1      12.661150871199871      5.1870141305931474    0.062849241137450773
   106   1      13.949668913471019      6.4325525957592165      1.9645309601374261
   107   1      12.961175386178564        7.67152805708501     0.10579358705055046
   108   1       14.16794017412335      8.9732823948201794       1.962975977865016
   109   1      12.885726290249281      10.340403239430147        36.0653569445237
   110   1      14.248947414492646      11.614922041011164      1.6686889108337486
   111   1      12.860573101066649      12.913816665189499       36.06666430829614
   112   1       14.18901085198388      14.182138406966258      1.5850653854290271
   113   1      12.784671566091927      15.250668381508495     0.07486531756703696
   114   1      14.227671339160539      16.652724228114746      1.8218466692532147
   115   1      12.911422301729674       17.75326529576639     0.10701988457266227
   116   1      14.136797773296644      19.176323184820532      1.7576889799901672
   117   1      12.644082892747369      20.183951000039048    0.061521786357650272
   118   1      14.144004438092125      21.498158155704481       1.846474727379428
   119   1      12.704383843015872      22.894569469041038      36.033149537241584
   120   1       13.89150149336808      24.158411761430848      1.7130546591783862
   121   1      15.263826131829177    0.019115256957990469      36.045513786506511
   122   1      16.423355768008101      1.3347987203508318      1.8770497915823949
   123   1      15.296319378867478      2.6972918284429932    0.082583029752970716
   124   1       16.62233826039073      3.8526591055572337      1.8406914417761182
   125   1      15.067651478476412      5.2524113927118163     0.14195128288284883
   126   1      16.398965534429212      6.5609708827108761      1.9953672267109606
   127   1      15.462166878459444      7.4947744013642028      36.052176099463523
   128   1      16.489264865699216      8.8964825566733161      1.8445343160374352
   129   1      15.289141753810826      10.065626531310189    0.096789630458476938
   130   1      16.732628631838576      11.446081740800844      1.8210886767701013
   131   1      15.659767398350034      12.783569020878684    0.064467881130258434
   132   1      16.962995488614936      13.971788368486358      1.8363031802611767
   133   1      15.487567225604911      15.370670841495022   0.0095398035119728941
   134   1      16.645213655899671      16.741571141012486      1.8278304953810094
   135   1      15.536047642654468      17.689901392217351      36.001426822427547
   136   1       16.68814477105979      19.199002513399169      1.8434691001296655
   137   1      15.373897035102594      20.488846663721016    0.026557999359999928
   138   1      16.798522540595044      21.675467027012925      2.0051262570359789
   139   1      15.379082625147776      22.984181807654569    0.027801483690370776
   140   1      16.500059111693194      24.358139172417651      1.7939162171362923
   141   1      17.880881006960852      0.1757796376182417    0.063250273376422653
   142   1      18.956727681249838      1.3066303724798298      1.8714455578980163
   143   1      17.572947762556279      2.5332248204962897     0.14295556326708253
   144   1      19.205821526633976      3.9027607195887675      1.9402466678079586
   145   1      17.497852495286352      5.5081238117969784      36.099948503592948
   146   1      18.846913107017407      6.3711420961553475      1.8083992611953827
   147   1      17.812768931680154       7.770474228209558     0.03224727771601011
   148   1      19.278642237230702      8.8710431922105286      1.8406184342217677
   149   1      18.126617756687182       10.28127566207179     0.19430968960551812
   150   1      19.234374483215717      11.691639285415794      1.6378292881478611
   151   1      18.088040893639985      12.938979441043841      35.951793719540539
   152   1      19.251517490799252      14.203095936768046       1.735625146133225
   153   1      17.825191690956483      15.312958624127001      35.869563388708997
   154   1      19.193243910423927       16.73255088773799      1.9574231882214936
   155   1      17.852728499051224      17.832660374418271      36.011987624337671
   156   1       19.31748338167078      19.167234794903692      1.8423493876948329
   157   1      17.930732436584833      20.380220151291425     0.17926621223376726
   158   1      19.294381492257656      21.747431817798912      2.0217355095836087
   159   1      17.889460209636567      22.876635227910874     0.17421401580331811
   160   1      18.903413020319423      24.291994401504599      1.8687521822334361
   161   1      20.193476183177697     0.14399005275171095     0.18646491356390682
   162   1      21.716275421536302      1.3404576341415304      1.7560240424503946
   163   1      20.147126091285205      2.6307025618081292     0.21356409398101731
   164   1       21.79248735858992      4.1353584910961088      1.8992219090883513
   165   1      20.284238667173227      5.2750355540786469     0.11848882850691789
   166   1      21.489914689292792      6.4979606822937281      1.7529003315764389
   167   1      20.252535658746147      7.8542308954421118      36.016179118212257
   168   1       21.64693256202229      9.0205266470736234      1.9235019578822514
   169   1      20.601458589928132      10.470210685689592      36.055155799769246
   170   1      21.618549088146146      11.556245024339795      2.0213296224959332
   171   1      20.449430366242154      12.854943303213897      35.860772639328893
   172   1      21.601025401841422      13.983944622303339       1.732609483349653
   173   1      20.380551427247532      15.334907092606334      35.968748531130167
   174   1      21.683291311045899      16.706143473305698      1.8311221591500939
   175   1      20.428583169949135      17.854563266267427      36.096619912949393
   176   1       21.78967722602512       19.03704003571243      1.8754559700442879
   177   1      20.459389418679912      20.499103389370763     0.26365777223837777
   178   1      21.708227194158848      21.640168366323145      1.8758575814900595
   179   1      20.322160354905609      23.154773121378952     0.11079748539710869
   180   1      21.547362931448856      24.177263856231875      1.9346743477497523
   181   1      23.049524636208844      25.476611450295572     0.14322059337915796
   182   1      24.250355383618757      1.3626391572822978      1.8296311220037416
   183   1      22.703658033591399      2.5635650001805206      36.061701241026903
   184   1       24.02676119365298      3.6732742543548751      1.7454120503787187
   185   1      22.735950418580533      5.2127044848316011      35.993069739833778
   186   1      24.013364422603399      6.3134372110240271      1.8164939766785209
   187   1      22.764621279536819      7.7243667211587059     0.15813878599982442
   188   1      24.369948172417502      9.0628645905827181      1.6445875905273746
   189   1      22.978339481299265      10.215791580435425    0.072677115913302212
   190   1      24.295531687017366      11.434705030371918      1.7454579189287545
   191   1      22.966622351960872      12.794436150274755     0.04570454346901439
   192   1      24.149727474925552      13.901293822871292      1.6689189527780415
   193   1      22.870725550037395      15.261408738488008    0.085909916649268475
   194   1        24.0819640540862      16.576250878516408      1.8981531818114274
   195   1      23.074091576768573      17.900282420500879     0.17198608392593559
   196   1      24.334522229895796       18.96297975743121      1.8085157934306826
   197   1      22.922020700651416      20.358410844757497      36.092972086021156
   198   1      24.143769184071822      21.618813407139214      1.8046564125368501
   199   1      22.986060514954364      22.645497835064639     0.15333071610640453
   200   1       24.41076476167893       24.27568993258777      1.9929574084379633
   201   1    0.019091526170472179      25.462405940776634      3.7769126701139668
   202   1      1.4321522122423127      1.2833262185497758      5.6032681439425893
   203   1    0.028466162349455652      2.6930530924009775      3.7435361349671372
   204   1      1.2348683029883765      3.9976035244630617      5.5089274434977904
   205   1      25.509220102999542      5.2129973652866273      3.8289743040052051
   206   1      1.1815545239510441      6.4716671831387345       5.581967008479868
   207   1      25.281732257091399      7.5600281059611216      3.5580115193757154
   208   1       1.324338421612808      9.1003698511886792      5.2618648549206624
   209   1      25.519049914040423      10.130454591378586      3.5707513333541114
   210   1      1.2160334404140036      11.626378164199783      5.2976614545210694
   211   1      25.405947931491124      12.743395162106282      3.6349180817868163
   212   1      1.1930676022161983      14.004396869117066      5.3468810306832761
   213   1      25.314837396801938      15.229651015004357      3.5839609851278058
   214   1      1.3352613407507015      16.528322942116052      5.1307341427910211
   215   1      25.284721389820866      17.791747136816486       3.817413303327545
   216   1      1.4166737816771688      19.123067218722461      5.3980638741953717
   217   1     0.13452794180092589      20.191771559375532      3.5894698803114369
   218   1      1.4626759426777241      21.633624324388734      5.4615037900417729
   219   1      25.470959665311593      23.018723342449594      3.6602226257620547
   220   1       1.306452229302199      24.144029492114058      5.5509451878986873
   221   1      2.5739692704671562      25.517268588862823      3.7891574365292313
   222   1      3.8565990778708215      1.1246889647804867      5.5194330692591667
   223   1      2.5037165913901922      2.6124118489715014      3.7291236986134515
   224   1      3.8436018253046127      3.6747421419052468      5.4652464631353581
   225   1      2.5422646422527837      5.1396733212089094      3.5240963361862878
   226   1      3.6080199747596478      6.2691696831804355      5.5746635998376899
   227   1      2.4965593447305476      7.7068728951897194      3.5910352333196003
   228   1      3.7245797155692553      9.0510716736353363      5.2515049335223578
   229   1      2.6627388305729225      10.105365064748275         3.5283366445938
   230   1      3.7207833470979121       11.61794198270686      5.4287003325791003
   231   1      2.5188128536233543      12.933263448828971      3.6401047104211592
   232   1      3.9570806705435411      13.999295579427532      5.2942483466703019
   233   1      2.4753587609278607      15.194074894956881      3.3351837356733878
   234   1      3.7956447151741068      16.369598999765898      5.3337444308210022
   235   1      2.5972804727751813       17.74426752255301      3.5155929756103905
   236   1      3.8107330253514018      19.268918195535047      5.5093917721572598
   237   1      2.9527769940117135      20.321797740607774      3.4679193891439821
   238   1      3.7371845909349632      21.751275437109463      5.2688676177053386
   239   1      2.7121182265674917      23.165221905646685      3.6531028648616863
   240   1      3.9794668998603511      24.187850227346146      5.5821868408767559
   241   1      5.1327100964563055     0.12833234312831962      3.5023972947788362
   242   1      6.5851914183632587      1.0220559366381079      5.4537344540063923
   243   1      6.2467492547960113      3.7211266003245025      5.3819866821297175
   244   1      4.9739703469374668      4.9277606831199856      3.6132767525550156
   245   1      6.2782388818313155      6.1972993083789367      5.3591925381227856
   246   1      5.3030428945589616      7.5007741236416301      3.5469824783465591
   247   1      6.4957083542239271      8.9339143952275233      5.4286327273145387
   248   1      5.3443137564894387      10.108465866920698      3.5098210041757389
   249   1       6.456642303123596      11.420965874956545      5.4121034626478615
   250   1      5.0512503576775751      12.655447947625593       3.748183478262729
   251   1      6.4988884813261381      14.076071449077819      5.4863462487665915
   252   1      5.0799483121385531      15.613387448432826      3.4873252477070986
   253   1      6.2553794237407319      16.632909775090504      5.3236628075111208
   254   1       5.049677950301616      18.100992959940449      3.5375226477396837
   255   1      6.4127420967762934      19.156134240210115      5.3041500321103214
   256   1      5.3149480988797144      20.756142621359739      3.3788113960952941
   257   1      6.4378832953145402      21.436308719301941      5.3793888239372603
   258   1      5.0603049137201168      23.134171056646654       3.434562385425556
   259   1      6.4529116005876581      24.002498218609258      5.2909545244181873
   260   1      7.7029825383798336      25.276318001354095      3.6390812431678308
   261   1      8.9715079344849862       1.325184028068108      5.1847080938041659
   262   1      7.4798759371943451      2.3644413822532924      3.6482299434774688
   263   1      8.9737735469174318      3.6583092107788198      5.5233819855251989
   264   1      7.6043907456464632      5.0392049468397122      3.6630394864131226
   265   1      8.9535654507903342      6.1820527606201887      5.4573936741973954
   266   1      7.7913420084376188      7.7313062150094316      3.7024632658274701
   267   1      8.9049824583849215      8.9142992731338691      5.4773283414081373
   268   1      7.9253519371273686      10.378242213196554      3.7328608794677667
   269   1      9.1393505090931058      11.668718993258635        5.38581600013074
   270   1      7.6254811209796109      12.858860862116096      3.4861124350258268
   271   1      8.9323692806871637      14.101831878519752      5.3014494855455023
   272   1      7.5642346849094126      15.263890783562168      3.6458737500505185
   273   1      8.7669344316129614      16.645463500218188      5.3875500634037063
   274   1      7.6115529357021545      17.778269256966556       3.608759764833088
   275   1      8.9657072953449291      19.210130151176262      5.5318503962901993
   276   1      7.8309772743223638       20.41862024830592      3.5423008772561042
   277   1      9.1309455718044514      21.488959945703002      5.5481160669332379
   278   1      7.4606753128838852      22.698629599402057      3.5061193774110611
   279   1      8.9674251288676761      24.123600086017429      5.5519017202134098
   280   1      10.064439945050822    0.088129262964308147      3.6255105613120171
   281   1      11.561696152895587      1.2334968003885358      5.3640929593022744
   282   1      10.298233282259908      2.5679539884739366      3.4046366895399367
   283   1      11.293333455063333      3.6231051797502678       5.427424870853125
   284   1       10.07050615447829      4.9829980002313921      3.6240698531608753
   285   1      11.553205838869918      6.2745607888503994      5.4903513768538357
   286   1      10.081641723826145      7.7176129304875198      3.8210220617435651
   287   1      11.545899238538679      9.1006215716353722      5.5120932204163262
   288   1      10.306510012839738      10.205957031776178      3.6328691211131128
   289   1      11.548827846563347      11.528364757082628      5.4144350812022601
   290   1      10.192792408772405      12.545440696340966      3.3189941511770242
   291   1      11.412207832838439      13.986535939619205      5.2689487302888196
   292   1      10.119710701562362      15.452741225573956      3.5765825661001585
   293   1      11.440798178892104      16.424083586405104      5.5048593238093737
   294   1      10.184804638041266      18.006259786300944      3.5675357172763613
   295   1       11.51838268483997      19.104211928672512      5.4019600724643633
   296   1      10.235295405208785       20.47658854178821      3.4639603966561365
   297   1      11.412619100662134      21.741219975069004      5.6877394499820388
   298   1      10.047238677465742      22.961938386299884      3.6521173741686659
   299   1      11.336753249872306      24.154807954749558      5.4311231043521779
   300   1      12.466548437745914      25.289570817201326      3.6150341134610544
   301   1       13.98239303777806      1.1893874533950641      5.3517086812049746
   302   1      12.799085770628496      2.4454994220800836      3.4573720914870578
   303   1      13.987986879499879      3.7498723455094614      5.3927950522913415
   304   1      12.746810640653768      5.0820110452365572      3.7116650508966114
   305   1       14.05346087394634      6.3859121278244277      5.3270641837493002
   306   1      12.834812107207423      7.6459688614542953      3.8296627682296118
   307   1      14.275066915779581      9.0033010307913486      5.4935144947909178
   308   1      12.900416454964807      10.218767533447116      3.4714384831796692
   309   1      13.982927460294293      11.585502458017084      5.4956929025230057
   310   1      12.737691132018867      12.880978275040599      3.4278466019569924
   311   1       14.13843321716554      14.111324937143959      5.3877002916899723
   312   1      12.854860958001174      15.347151519005333      3.7146689388268723
   313   1      14.080436523614512      16.503273007426834      5.6236294227420736
   314   1      13.008322581880208      17.736408559016756      3.6750402867655669
   315   1      14.005524489560106      19.036941838494617      5.4004956932321129
   316   1      12.831836429978791      20.342165717386482      3.6518146787220762
   317   1      14.330576444492122      21.499755876097691      5.3066336085930299
   318   1      12.652986298846763      22.793889417005783      3.5656153613407571
   319   1      13.806030789244428      24.063717136422429      5.2543392135360998
   320   1      15.180345465053055     0.10833513802537413      3.7082280483818733
   321   1       16.61219943113456      1.3998602796924517       5.360440082650598
   322   1      15.260462930995613      2.5381878436830889      3.4897079747022999
   323   1      16.590149412920763      3.9376869764905291      5.3787275597040143
   324   1      15.257922098637763      5.0710742787975862      3.6487616738465944
   325   1       16.55001149110776      6.3688218118563489      5.4016678303853549
   326   1      15.244488369877892      7.6816893548286487       3.671783748704784
   327   1      16.755096211515674       8.916574848008576      5.4048355342585346
   328   1      15.375430358425225       10.23566324706055      3.6688039994105583
   329   1      16.413565444336427      11.846679259414671      5.2884664746896437
   330   1      15.157318895786853      12.800467606321073      3.5328607261903024
   331   1      16.749568232283934      14.113871926783471       5.401638506873967
   332   1      15.574656631985041      15.111362717897931      3.4672893591327347
   333   1      16.663447243970168      16.663700611582851      5.4110091304977992
   334   1      15.537796662451385      18.022436592701151      3.6318423052385125
   335   1      16.640301989371956      19.062077401828965      5.5268055154416365
   336   1      15.686706044658914      20.458692670216273      3.5846983082237318
   337   1      17.073495914659357      21.607767190888961      5.1634628786816181
   338   1      15.242540522032106      23.112488817262705      3.4603559103401968
   339   1      16.211197724141972      24.277077424111539      5.4542143489476675
   340   1      17.648113811155337      25.468155229976897      3.8203154360868696
   341   1      19.165523767336438      1.3112191937991171      5.3641461505465973
   342   1      17.966365077748289      2.5611453886670454      3.6651191562678331
   343   1      19.006736808108794      4.1537047139791365      5.5306773946257826
   344   1      17.702459894452829      5.1712623279351231      3.5735248421394417
   345   1      19.209715653585036      6.5674687522421413      5.5599074315296297
   346   1      17.748408399629213      7.8101117842935368      3.4368641317223374
   347   1      19.218309503220329      9.0844585540896627      5.4636067503187258
   348   1       17.85590873293371      10.370754477715629      3.4869665418436728
   349   1      19.246729108235151      11.450218080136215      5.3638461803585367
   350   1      17.924628055036074      12.889290712838527      3.6859097340420046
   351   1      19.335653499008345      14.095336820814975      5.4165862878802242
   352   1      17.982945877654778      15.455271150302957      3.5984711806430365
   353   1      19.154211491306661      16.638781099859138      5.5215689484069692
   354   1      17.970457486495569      18.006263546958817      3.6542114431498742
   355   1      19.000486086800926      19.049803199581699      5.5018864984760878
   356   1      19.447560428638273      21.764456047460513      5.5730550005826753
   357   1      17.860457335678934      23.113682645648794      3.6650664934790997
   358   1      19.015727991248859      24.429309202574544       5.604154591893769
   359   1      20.379992476394772     0.25986272041320169      3.4390888746934034