dump/Mg_1000_0/steps_91 (written by ASE) 

4000 	 atoms 
1  atom types
0.0      32.100000000000001  xlo xhi
0.0      55.598830921999998  ylo yhi
0.0      52.130399999999995  zlo zhi


Atoms 

     1   1     0.19350233378772844     0.14667471103073682     0.14547699467539477
     2   1      1.4910309963276334      2.6078083975313522       52.12547404975772
     3   1      1.9161885811201509     0.46357206915269095      2.5532994815946495
     4   1     0.16036494911181787      3.1410992591870213       2.747403926768516
     5   1      32.082819570571111      5.3956350535157167      52.011974833432056
     6   1      1.5636574336860567      8.8970746834498105     0.44289663574277477
     7   1      1.4508435144251177      6.4945863553672547      2.4841420996295249
     8   1      31.901896680919812      9.4667397796963595      2.9054383056984059
     9   1      31.804703344736545      11.154019074980541      0.1149322710166117
    10   1      1.8741765928276337       13.67076286565354     0.64694400396927143
    11   1      1.9403364368260902      11.583537770555353      2.7408256434051341
    12   1      31.957149114131017      15.277181919336602      2.9073031576985677
    13   1    0.056698510247532398       16.93852646966879     0.18882446289903287
    14   1       1.285527482139198      19.387711641257429     0.17496268335383974
    15   1       1.616260540957706      17.907411044619209      3.0521948018067384
    16   1      0.1791582697323989      20.480426143174238      2.7146584936841194
    17   1      31.848360745499519      21.809390817498414     0.28622978007615812
    18   1      1.7320588396376648      25.015800052942851      52.090040994503219
    19   1      1.7257257970138555      23.188919548749269      2.6681794670130836
    20   1    0.015379811798938525      26.011360804143255      2.3931691585830399
    21   1      31.705019534929285      27.842066727914734       52.10745530973815
    22   1      1.2620511377596133      30.506627464958374     0.11374956086831013
    23   1      1.6441697053144264      28.616650398388849      2.5848867504353987
    24   1      31.800676692175681       31.33650044491722      2.8753924562937714
    25   1      31.768667211257618      33.335419274608128     0.39622538790581963
    26   1      1.5341042885179776      36.459869894461676       51.87334357574894
    27   1       1.203023204107095      34.838026019552011      2.9071043756273043
    28   1      31.622305953777637      37.290990945446865      2.6355240568079417
    29   1      31.950302572870967      39.173042837552714      52.119099890681646
    30   1      1.6421032048387529      41.941151562942458      52.025624470679446
    31   1      1.6055697025584694      39.835804735485766      2.4424354811439297
    32   1      31.945787854753828      43.043607904477724      2.5907810594488003
    33   1     0.43352991906509108      44.690742596355285       52.02376523858635
    34   1      1.7984623024696871      47.421967393852192      51.968414407504604
    35   1      1.8677677556540659      45.665480771304942      2.5856668683287953
    36   1      31.922884138679908      48.411856410079068       2.171592336897926
    37   1      32.063569601936997      49.783095947553498      51.659571776335483
    38   1      1.3292732997949679      52.563181637790841      0.1087693485681437
    39   1      1.9109403423089519      50.892914325504044      2.6023199539573563
    40   1     0.11547411923055841      53.673698979684247      2.5063386990070686
    41   1      2.9656729553441075      55.296454660462317      51.998673611427492
    42   1      4.7183231536837189      2.2319209282206462       51.78474613836439
    43   1      5.0855488527321251     0.42782795087047548      2.4722686325872414
    44   1      3.3208284503099748       3.797250288287918      2.4982763351059081
    45   1      3.0240121630668124      5.7556098431614977    0.094292965586069782
    46   1      5.2225401503910325      8.4411535957922279      51.738753095233356
    47   1      5.1053494320235382      6.3445536960178268      2.1707138045530998
    48   1      3.4552287858248074      9.0544138327329993      2.6915652708773727
    49   1      3.3424833623201082      10.724312659934334    0.083999791989199171
    50   1      4.9420575549950865      13.970221416663641    0.044432845271131734
    51   1      4.5958757190927066      12.057285901129829      2.3833583104728735
    52   1      3.2868774292909535      14.956485905370558      2.8202568929419849
    53   1      3.2579415482673539      16.750721711057764     0.26901853593194486
    54   1      4.6549514975118456      19.425208845208683      52.078386773532209
    55   1       4.957277980976702      17.623300891270897       2.767758966379843
    56   1      3.5848148343284723      20.488231607611063      2.5751115368875865
    57   1      2.8830160548157933      21.926658439288371       52.09607978218645
    58   1      4.7513203939568838      24.798727326584501      51.953949628282508
    59   1      4.9787761835535367      23.437411300759614       2.616895251827922
    60   1      3.0933005409141421      26.005695570384276      2.5161269683616974
    61   1      2.8266696048901672      27.631191004956467      52.130163461433803
    62   1      4.2569934781740981       30.62688346743386      0.2495561323675651
    63   1      4.5807678526471802      28.939489222542175      2.6077615828032785
    64   1      2.5520125475404951      31.585359405118169      2.5125977009863849
    65   1      2.4298046864302512      33.527103700740959    0.030203222513436892
    66   1      4.7195970325911123      35.936326218136145     0.23049613494694338
    67   1      4.4030982308267212      34.167361329449193      3.0048821961089267
    68   1      2.8404237121493603      37.255108107064416      3.0812128312833664
    69   1      3.3362504294396897        38.6724032533645    0.041630383548309023
    70   1      5.0623448846720036        41.3848239177482     0.16860257075024845
    71   1      4.6529033747450397      39.852695141755966      2.8532167357799847
    72   1       3.066614437968898      42.333708355643651      2.5594133631783569
    73   1      3.3552832807707063      44.382945199935847      51.927725761215001
    74   1      5.0304891658373485      47.153097338767978    0.050590625171661595
    75   1      4.7445018113423982       44.77377326454814      2.7168789840107763
    76   1      3.4213817785371639      48.220098740978884      2.5385124221087216
    77   1      3.6145546731329694       50.28389445818771    0.070833897717673691
    78   1      4.7411136303462511      53.000194547802238      52.028698187050409
    79   1      5.3078330256189323      50.651062225610772      2.7594033843536101
    80   1      3.5054203834768582      53.224937648128211      2.5763994263545515
    81   1      6.5126545768195516      55.598725846728328       51.69480979661828
    82   1      8.0567224429271853      2.6713174878337234      51.903325541878992
    83   1      7.6689909043508768     0.68492455454379386      2.2003927316703313
    84   1      6.4465152760308788      3.3937592759687321      2.4906774881401113
    85   1      6.4014645261225693      5.2910294932803978      51.644876704071713
    86   1      8.3618090454923149      8.1331200178534981      51.949708112808324
    87   1      8.2800344806276502      6.8149244729824572       2.321472531462526
    88   1      6.5598753164944759      9.3500526381378144      1.9906183815193079
    89   1      6.7849271479094142      11.260177990834062      51.815558859003218
    90   1      8.1759923677400419      14.112621397407649     0.11350762910893812
    91   1      7.8753754267710425      12.325495540696103      2.9035848642856101
    92   1      6.6371778907567522        14.5285579501314      2.8781361458022543
    93   1      6.2606919042257285      16.726762050735982       52.07805787281017
    94   1       7.848404285387236      19.257771900022625      52.015384836212185
    95   1       8.246492093936352      17.427421857538615       2.647378893272887
    96   1      6.5207087525770495      20.231261642077108      2.3615530878764273
    97   1      6.3297858877550901      22.136643133920693      52.002976398382543
    98   1      7.4649366259717711      25.199802592858557      51.882199672181571
    99   1      8.1009950729493703      23.070696101542374      2.5048967633954624
   100   1      5.9138405323741807      26.381514899648931      2.4753829164971362
   101   1      5.8523979785880265      27.864412535864222      51.842687810777115
   102   1      7.9658059688619351      30.993912492374495    0.021571325062570031
   103   1      7.8761217805579387      28.844958152957176      2.1358855334686377
   104   1      6.1673984547760012      31.051466352022402       3.039441876391777
   105   1      5.7035201179534676      32.963935390257802     0.60928248833224019
   106   1      7.8520296141866757       36.10044826547648     0.25448379561705475
   107   1      8.0541287116618836      34.085177238527834      2.7798518912131245
   108   1      6.0254404314382795       36.72424913953877      2.9056712030515599
   109   1      6.2262464921798406      38.470324256428427     0.00382141861644932
   110   1      7.8910382319032886      41.566536019907112    0.065247777234648197
   111   1       7.847682213924255      39.500357484661983      2.5011547677267907
   112   1      6.4064209501459288      42.313596555478284       2.975148470931567
   113   1      6.4077447870476005      44.061380449675923      51.952864913626655
   114   1      7.9053470638989083      46.746058396993448      51.619108305457772
   115   1      8.0094743636728776      45.047932767212387      2.1118582618832082
   116   1      6.6109874581499426      47.538022952853268      2.3660786853492968
   117   1      6.5311527290041056      49.871306310157188     0.10136102977497301
   118   1      8.2552989289547281      52.411252349189603     0.28578906395194859
   119   1      8.5937914331733776      50.650156713380056      3.1526285241537502
   120   1       6.642933996259262      53.253541854596079      2.6365241484687885
   121   1      9.5136615393799584      55.562548901652399      51.927351381413736
   122   1      11.371867635637013      2.6058211060400667      51.862335482030993
   123   1      10.994671326932609     0.76305985433331636      2.4166169627711493
   124   1      9.6057159503814837      3.8779042027236037      2.6229074432131951
   125   1      9.8564854924536309      5.1868836682158568       51.82855827916319
   126   1      11.417304283441926      7.9282602457586968      51.698918003125783
   127   1      11.422921564401216      6.2649978671322861      2.0320962120614672
   128   1      10.291764645095231      8.9876505395736359      2.4202002948564898
   129   1      9.8036612272319221      10.919293650619878     0.12255715644475877
   130   1      11.344504386751012      13.840447990979932     0.20877392873154574
   131   1      11.535462400398361      12.083544922802256      2.7548888323813761
   132   1      10.110853791864145      14.861782455234771        3.06747670103079
   133   1      9.9456017480107839      16.911412431763619      52.119099457593784
   134   1      11.414217052787539      19.541911437446874     0.21019349891343755
   135   1      11.644301966393636      17.523661060405939      2.4031932459847245
   136   1      9.6171955751621834      20.211710235836684      2.5723772464157189
   137   1      9.4676360810973677      22.166438288992481     0.30408357102226424
   138   1      10.700594876632337      25.188243509442572      51.796558169861406
   139   1      10.888526299679349      23.155644872999417      2.9759908956101806
   140   1      9.1275938669751611      25.863759017031168      2.0578908258286734
   141   1      9.0787496184999057      27.652983578139683      51.762702423200679
   142   1      10.934536462050385      30.663586632139769      51.942233626933458
   143   1      10.997855410258545      28.781741289402671      2.1513595489232862
   144   1      9.4510398857257361      31.323174207618433      2.6892851033892247
   145   1      9.2575605957171963      33.494257394858089      0.1000114372535298
   146   1      10.974152836748173      36.146930496440042      51.944188598711811
   147   1      11.095506194589383      33.905534112993436      2.8027324444466752
   148   1      9.4608503306185252      36.677460237807082      2.3435916453079502
   149   1      9.4765153401099305      38.943293172843156     0.10596215370278809
   150   1      11.490145954202635      41.389477788666561     0.34098820772617289
   151   1      10.873921539132443      39.637921321242146      2.8579818169836266
   152   1      9.4905808615761469      42.563105681803954      2.8808528128174773
   153   1      9.7365688943573598      44.113298788457996     0.20803892878956132
   154   1      11.279889023338203      47.078021733278753     0.19206114032698718
   155   1      11.181207249633367      44.977453403678389      2.8009168309554657
   156   1      9.9481110846922896      47.528011383308446      2.7692644594544715
   157   1       9.488861027354714       49.57290383226669     0.22154490828483092
   158   1      11.401365421583144      52.370887675188186     0.14398228763153756
   159   1      11.412416730400725      50.647951041939479      2.8622509886612044
   160   1      9.6094994394780233      53.335205174866104      2.4182505919087913
   161   1       12.91827334227478    0.050708570084431692     0.13161444342945919
   162   1      14.954914032971425      2.8647435525414586      52.048754418134877
   163   1      13.880424039766591     0.95977224830862273      2.6741632201672272
   164   1      12.876920197704546      3.9542848963244155      2.1754581946576379
   165   1      13.345958634724651      5.5279630023019903      51.925796183343273
   166   1      14.393967795967114      8.3301742325001378      52.044005539375377
   167   1      14.622970947185211      6.3584925892360316      2.4263671580690485
   168   1      13.140152287488805      9.0895680426023926      2.7120360060501625
   169   1       12.82082522593117      11.239316805819607      51.762472742041666
   170   1      14.464990562396409      13.977063813614105     0.11998351535616317
   171   1      14.724037758398426      12.016476068956029      2.8730689700807388
   172   1      13.357380796416258      14.592276823874457      2.7873608247510075
   173   1      12.992768014610522      16.561230742355558     0.22546324269067708
   174   1      14.974452802775009      19.344775994589014     0.14399880300885751
   175   1      14.470778236546556      17.391591517177623      2.6575866448052388
   176   1      12.966105989866604      20.401537398890529       2.396545292856513
   177   1      12.480611886402096      22.802918102677165     0.25369883221984718
   178   1      13.973268769795224      25.158931921940795      51.833621418003986
   179   1      14.505685904775401      23.238135510648394      2.5689485467698794
   180   1      12.336059031655791      25.792627658869126      2.2574142225641975
   181   1       12.44956506013472      27.988732882744991      52.075149678526166
   182   1      14.842271461001392      31.030031651347752     0.14402411791767677
   183   1      13.891063881851899      28.718562217672943      2.5301957375964403
   184   1      12.492097670029608      31.271544858794321      2.3361668829197177
   185   1       12.56428130751147      33.428362506406842     0.13804978888126285
   186   1      13.802956658008375      36.113186151404079      52.008023244648378
   187   1       14.37083843360519      33.862740756014517      2.7285577017257889
   188   1      12.278166728909564      36.539841276826884      2.6235209320515653
   189   1      12.647902137613716      38.582399342585504      52.004371394197577
   190   1      14.414647064519709      41.489319241028781    0.057639625523493207
   191   1      14.439054935172411      39.380801687273497      2.5813777305754249
   192   1      12.698721610103423      41.979016493678841       2.524546206172253
   193   1      12.904410797588971       44.16581726100155     0.22873550116432445
   194   1      14.801896847788891      46.970175856909513      52.007800238021311
   195   1      14.214948620326075      45.028181357961287      2.8916638508801622
   196   1      13.221803122872652      48.064530790881726      2.5568616982820869
   197   1      13.063930305900129      49.435250173583647     0.11882326329903513
   198   1      14.194640503536352      52.688490969516607       51.77329749145764
   199   1        14.5812264414445      51.495076493673395      2.5329047714173796
   200   1      12.752476251426101      53.660529032250999       2.251865640271983
   201   1      15.903986046583492     0.13387721115131662    0.096700390699497374
   202   1       17.69937431273506      2.8854088389546462     0.21260966211792076
   203   1      17.621526853190996     0.74526018083347623      2.5511421726623977
   204   1      15.862113400501448      3.2054805347389386      2.6618488957297894
   205   1      16.198494317548775      5.3860760803803185      51.958437781944724
   206   1      17.503649480281553      8.1883322687993552    0.053795383124625874
   207   1      17.478305142161133      6.1756078826444991      2.9522718528970877
   208   1      16.105242925595373      9.4057477444259945      2.2753870973578469
   209   1      15.956510033888547      11.286343043669644    0.013218613953224847
   210   1      17.606069240613493       13.81040352589028     0.14577783862214136
   211   1      18.056764224471411      11.794600153085035      2.5803081081330492
   212   1      16.160971073060519      14.766489280300737      2.3313483247588334
   213   1       15.94248013643654      16.477354768261669      51.853407104937681
   214   1      18.268570591895969      19.552694557550591      0.1172396343196818
   215   1      18.028650653100215      17.713413390930082      2.1986087766018647
   216   1      16.401956609021632      20.757194286953453       2.377888056200117
   217   1      15.861194833280233       22.03115727642718    0.078003775934140582
   218   1      17.006570592530295      25.389479286170236     0.21802762277981666
   219   1      17.439140946053492       23.37402856661063      2.7669395379756034
   220   1      15.569386551726041      26.032107363847999      3.0067243405876147
   221   1      16.020588746129864      28.149104715771635    0.045461032366089685
   222   1      17.562309534632345       31.00833936453186      52.120013010715859
   223   1      17.521389461971623       29.02507577202509      2.4455740141336357
   224   1      16.212819915537228      31.675293488056319      2.6671884435990001
   225   1      15.877335409599212      34.003496859381926      51.819961613901114
   226   1      17.572264655859129      36.461320213483134      51.892767330939272
   227   1      17.766874935727238      34.559596538980372      2.1656681696721103
   228   1      16.143420189572918      36.984306108729321      2.5715479962584555
   229   1      15.729925463794897      38.703409543513146     0.13289882452678775
   230   1      17.781512489328971      41.468894007943192      51.672476978772423
   231   1      17.514101757915849      39.817305911539911      2.4265753492816757
   232   1       16.05303633270135      42.198074809486499      2.4133644682841946
   233   1      16.366521370391204      44.167279323653773     0.04043067885004941
   234   1      17.669818792265058      47.267999347586205     0.21838102835928536
   235   1      17.527980500146551       45.54982143850436      2.5656239684782114
   236   1      15.946147525483935      48.404475590825214      2.3399649562952436
   237   1      15.968616545595642      50.230110444943314    0.050251086037122486
   238   1      17.477703270993551      53.162825502906998      52.081360360776195
   239   1      17.811922028996662      51.168630860242388      2.6372645355707376
   240   1      15.951998706827197      53.989518203492125      2.2285514235624042
   241   1      19.346776197804687       55.51437095051066      51.986518390035251
   242   1      21.234577208471546      2.7680790485949962     0.17543144774282521
   243   1      21.062299877232334     0.75941053008550075      2.2716531865628857
   244   1      19.013590616897382      3.5115019597645705      2.6131972907865095
   245   1      19.583296618902615      5.7508927827731533    0.072354147830299087
   246   1      21.280008283405312      8.1114741313489649      51.882414055656888
   247   1      20.685355702190574       6.438271654699995      2.6283921344552139
   248   1      19.323156119805162      9.0287338809321636      2.1248924290824096
   249   1      19.338299565939902      11.539649029939095      52.018713824955157
   250   1      20.843049670353764      14.315570666156606     0.24483282788599187
   251   1      21.156703629470915      11.908653758226952      2.4461606483302254
   252   1      19.225125147908809      14.930414666877445      2.6514089214031067
   253   1       19.14893618620016      16.921167514825445    0.020909797673717014
   254   1      21.099145735634501       19.41880535968739      51.951745590692617
   255   1      20.926925570828917      17.611210197846997      2.3877465116812546
   256   1       19.43608765335722       20.42309326823684      2.4257386670769026
   257   1      18.918475862688577      22.560867812114182      52.052215541287232
   258   1      20.748367645585095      25.336056390953377     0.14949843007481625
   259   1      20.878833429329564      23.142795869577647      2.9916991573815332
   260   1      18.826204695090894      25.778355224743759      2.7407236364212686
   261   1      19.440716240296009      28.066074066124159      51.970819372905261
   262   1      20.869658055134437      30.698774747462423      51.838334882840307
   263   1      20.676654050563211      28.775308651325705      2.4250187042375044
   264   1      19.460308597588927      31.378647712141532      2.4468655082942954
   265   1       19.23913282560796      33.338452859699203      52.126321491368294
   266   1      20.828531470033891      36.289092319619982      52.051402520851006
   267   1      20.849920184540629      34.596701330311703      2.4504254845716917
   268   1      19.033508016641004       37.26725250363139      2.2898791739727877
   269   1      19.342815355248202      38.944022378058428      51.923572095135476
   270   1      21.057581491799766      42.019663554683206       52.09998917377186
   271   1      20.387352167670212      40.064437503621818      2.3737342191280657
   272   1      19.272286700962614      42.915215432250442      2.3933007600719765
   273   1      19.684016180531668      44.541590626839721     0.03217021848944359
   274   1      20.832037990895373      47.551611870826854      51.983724813912104
   275   1      20.528033285134686      45.930830271262245       2.638864825512873
   276   1      19.192426207784777        48.3437685628178      2.6739279166268481
   277   1      19.103483837154307      50.530450812719984     0.13722403646141898
   278   1      21.110697793175103      52.968745242560836      52.058436129657558
   279   1      20.833913609878476        50.9950056398092      2.4281579139669893
   280   1      19.092847146404651       53.65694561475199      2.5106577990843824
   281   1       22.84877957494718      55.434358317122026    0.021444417037978308
   282   1        24.2207958842158      2.7009080352844856      52.108801477549008
   283   1      24.203272071744781      1.0158774823554053      2.4233498551819799
   284   1      22.569051248637802      3.9672184428730528      2.6878173481349901
   285   1      23.050059183525786      5.6383045516088348     0.16918347468760581
   286   1      24.341319822884447      8.3405032711347342    0.094303021727840317
   287   1      24.316767712235656      6.5649450690579734       2.641748445391515
   288   1      22.621182878033373      9.1411902945787791      2.5119123047941869
   289   1      22.310529460550828      10.892738200764985       52.02225611084453
   290   1      23.972287455518625      13.953520345936875      51.892466299556794
   291   1      24.094386195274389      12.208431820942753      2.4295317441715074
   292   1      22.346424401419473       14.98838725319443      2.7446767661735785
   293   1      22.590160926119946       16.83237200759104     0.12857891694649884
   294   1      24.255103879519925      19.755533592132252     0.25102298082556929
   295   1      24.076711738968793      17.717965406290858      2.6246509501121382
   296   1      23.262754502797048      20.949637211938708      2.8903317486341433
   297   1      22.239693173333233      22.004774619344033    0.087722765537712105
   298   1      23.792018654435122      24.992286647493511      52.083405261554468
   299   1       24.25948145476972       23.72465209840945      2.6364358307025917
   300   1      22.285330377477919      25.934590905111861      2.7611084964988719
   301   1      22.649171908582549      27.546054728248169     0.10529909517446245
   302   1      23.945952647583347      30.789131408063358      52.020368213033024
   303   1      23.809964929717232      28.747014222421125      2.3121462667916628
   304   1      22.732127179966074      31.157921434122116      2.3649624715642443
   305   1      22.309060075153976      33.542436366236458      51.653683063528909
   306   1      23.897876272896422      36.164845266026845      52.095965595913299
   307   1      23.866339056089863      34.184247249094177      2.5551029937483594
   308   1      21.915455411660471      37.344008728535357       2.513942097893652
   309   1       22.31010151420827      39.044171626964676    0.032236144209831147
   310   1      24.050466419329098      41.706014379094334      51.988163825161251
   311   1      23.283315952538125      40.032988705761781      2.6230809496211931
   312   1      22.291751934025182      42.984431859465523      2.6630210608560132
   313   1      22.878392656998457      44.685998177845192      52.054113018631107
   314   1      23.961926278611312      47.686056197557555    0.042216372996580397
   315   1      24.134269448159184      45.595232082466367      2.7557067882062878
   316   1      22.594007935926783      48.241175448789569      2.9939233533782752
   317   1      22.479607451644316      50.498630199126154     0.17105752124688728
   318   1      24.435561124882973      52.926366357917203      51.922335439104288
   319   1      24.011572753058694      50.978351853776203      2.6725588613884654
   320   1      22.542526789167734      53.608090479811352      2.4751716540387059
   321   1      26.142130504685237     0.54884067606327236     0.17581843970786851
   322   1      27.473350565875958      3.1547516209249422      51.989447110459054
   323   1      27.603788687084705      1.2134113392703552      2.3174438234217454
   324   1      25.655600269036611      3.4409935287536833      2.7175182822566333
   325   1      26.031681560940395      5.5828584196505622     0.36879411218878727
   326   1       27.65494963831765      8.7853733173927093    0.017946634799295046
   327   1      27.332975691190224      6.5463699040471415       2.856070879879931
   328   1      25.810015496704526      9.2394572992671886      2.5737374676182876
   329   1      25.431793880860866       11.20038942312714     0.12107371966557628
   330   1      27.045297429880641      13.718179540679197    0.028378447171688914
   331   1      27.428231330458775        12.0303602244272      2.6985745411963524
   332   1      25.773874859903231      14.611648339035328      2.5610936226908643
   333   1      26.026107090943665      16.375595470146969     0.27756119786814071
   334   1      27.151731864162546      19.442534619569319    0.041777404360198049
   335   1      26.835566351075105      17.524101223370742      2.9183885802894216
   336   1      25.900426270801905      20.417672557964913      3.0219006419844288
   337   1      25.413244097919641      22.391846403125871     0.49105736965566682
   338   1       26.80890538112034      25.362749966217109     0.44392885036044794
   339   1      27.638250714806777      23.685225191261591      2.9445193345692044
   340   1      25.688291380357807      26.489982859613278      2.7053143313178198
   341   1       25.64204197003145      28.262526363801218   0.0066692476202359777
   342   1      27.045869283019311      30.621929540535067      52.066780700791206
   343   1      27.300411715143554      28.890341475395243      2.5519195387505191
   344   1      25.731750613196834      31.406937848212017      2.8700750254729801
   345   1       25.54591339404119      33.764762898875645      0.0821332416025949
   346   1      27.022423025072008      36.575461856881482     0.61911068525131008
   347   1      27.192829839385954      34.424846135193171      2.6415852152429209
   348   1        25.1019182364324      37.055214844270317      2.8629100447242268
   349   1      25.213655135446277      39.119935963538836    0.096114799894034555
   350   1      27.110968786288577      41.379462696129764      52.108227081435935
   351   1      27.635940587319372      39.368792421212007      2.2981912614692406
   352   1      25.518591837114602      42.234563201030596      2.7656672504401505
   353   1      25.856889001965637      44.057076169612046      0.2075867637332659
   354   1      27.176189372820165      47.137736520050368      52.032636252749178
   355   1      26.899130848844241      45.375456289227891      2.7942367802360231
   356   1      26.000273035417184      48.154755227824701      2.7821207776502925
   357   1      25.635019899388499      50.155329412768914     0.30932353578555549
   358   1      27.403501714015281      53.045670338417615      51.992234083426538
   359   1      27.412128103065548      50.696048488525783      2.6502968994600251