dump/Mg_1000_0/steps_41 (written by ASE) 

4000 	 atoms 
1  atom types
0.0      32.100000000000001  xlo xhi
0.0      55.598830921999998  ylo yhi
0.0      52.130399999999995  zlo zhi


Atoms 

     1   1       32.07426104834672     0.11402643638039889      51.820634719927341
     2   1      1.8830160914694141      2.4756745529503248     0.10333022139193328
     3   1      1.6577896655194782     0.62664990934434539      2.8998852910652131
     4   1     0.12045007586084504      3.4536656882158994      2.4620099004038432
     5   1      0.4089864060089119      5.3004479811282312       52.01780937204169
     6   1      1.6549542612526704      8.0609072894534943    0.048804746253382804
     7   1      1.8772469985413089      6.2014299225500427      2.8210778038228761
     8   1     0.29523729236241336      8.7023431608920241      2.5452478842200223
     9   1      31.893125125767575      11.010286253701931      0.1052315783143081
    10   1      1.1991162950309027      13.901729775583222      51.888706167563491
    11   1      1.6326389723819159      11.497156934213852      2.4184842287341612
    12   1      31.964940217058629      14.516535153583884      2.4721743916588452
    13   1      31.874892574797649      16.649791253085592    0.087582445989426314
    14   1      1.6851622333938567      19.290858025159224      52.096204278159504
    15   1      1.5911078908539056       17.46570975974609      2.5471352243707708
    16   1     0.13533508013655507      20.411141095275276      3.0642402209566311
    17   1      31.993610429146646      22.170168817312184     0.11606191101132474
    18   1      1.9282842436638514      24.890084927043205      51.930623498986854
    19   1      1.3712883300083851      23.297091165287515      2.3113494036363709
    20   1       32.06945260779824      25.979675351161188      2.4665564178232415
    21   1    0.099839071236057869      27.809373000575647    0.011197301993735156
    22   1      1.8787121038702987      30.821805721647635      51.884335276377783
    23   1      1.9636927195051974      28.856111846961522      2.3426309172419657
    24   1       32.07185532492997      31.401393094530739      2.9153563183108147
    25   1    0.034645069204670913      33.208840428449449      0.2368579685348737
    26   1      1.8105686917849704      36.015677277504601      52.052727022303138
    27   1       1.822467503331987      34.311812619654297      2.4063913074982892
    28   1      31.746050168092037      36.724651976203468      2.9958286671078862
    29   1     0.44596129517126692      38.680149173536861     0.37285664905212418
    30   1      1.7309005639134525      41.667891207015828     0.27405909226570252
    31   1       1.140705619811641      39.881906246646786      2.8005532419499222
    32   1    0.088413506524253005      42.424413345721817      2.5116608732470178
    33   1     0.03668553172832649      44.497001812869371     0.37965056750502385
    34   1      1.9818382134514669      48.058633022370294    0.018319477226357208
    35   1      1.5458533498680156      45.389749251190388      2.6453080731942658
    36   1      32.004349695359643      47.922140289031276      2.1866009438907521
    37   1      31.402275280694166      49.881189412553681      51.940870471035524
    38   1      1.7038088958657938       53.08424261156118    0.031160967710189474
    39   1       1.423723273420799       50.51089159193031      2.3004222669422854
    40   1      31.776630843426769      53.461263108419644       2.707304580217027
    41   1      3.6116386872629511        55.5220485619081     0.11985156710535155
    42   1      5.1952635475792928      2.9820125213814843     0.43572375474982761
    43   1      4.8342887034919055     0.88708794984650752      2.4730976066388446
    44   1      3.0572076699039386      3.5086839834712866      2.7296064350811271
    45   1      3.3992072929442307      5.6268786836245646    0.019129272993470406
    46   1      5.0558822609262766      8.7864416512902181      52.098131664014353
    47   1      4.8610018000912305      6.5264381761738735      2.8058599475818102
    48   1      3.3133117728141372      8.9734917928125295      2.3128770554526183
    49   1      3.0694910055360909      11.146123762885594    0.054393422675454058
    50   1      4.6331587215178027      13.970840427058896     0.18063747831559626
    51   1      4.8379505905348728      11.978848838444511        2.33405430511359
    52   1      2.5804834945227881      14.724972833193334      2.4637434327694767
    53   1      2.7226656956091282      16.299228554594787      51.714625447615369
    54   1      5.0295691160030325      19.494506168941829      51.974154840660638
    55   1      4.3849215711317591      17.002534270401476      2.5396896542787548
    56   1       3.294540604816675      20.032056909465847      2.4868918943338829
    57   1      3.4040090524935871      21.831748458973927      52.007275053587762
    58   1      4.9924611991800747      24.788859608694587     0.35009484837843613
    59   1      4.8657987244741463      23.318950514413014      2.7675714704445253
    60   1      3.1765970640551608      25.979228095191758      2.7531625154896937
    61   1      3.7492500048528594       27.66231715099843      52.031848555038884
    62   1      5.0535754244824407      30.584072973522748      51.993808942800463
    63   1      5.0868947199125172      28.870822674256452      2.5157403874674205
    64   1      3.0898689942801889      31.450751873379815      2.4707597979632312
    65   1      3.2510855961265355      33.680371707836095      51.860929360704084
    66   1      4.9226641111057203      36.319643794227041       52.02343079117373
    67   1       4.915827782349349      34.205658323480066       2.364735269622273
    68   1      2.6770980121655072      37.128098605101385       2.621175184253655
    69   1      3.4293008578992552       38.73422748754713     0.34138119865386407
    70   1      4.6369357960175774      41.912232364060301    0.046882874979118076
    71   1       4.495576315485585      40.338757873658125       2.788884540716269
    72   1      3.1119421814314174      42.841581442483232       2.686404207638919
    73   1      2.8254474576803812      44.585088110174645     0.16780121948523594
    74   1      4.7989841448274966      47.700842739925214      51.557324998442454
    75   1      4.6071898176457129      45.594421927840216      2.2850377519364415
    76   1      3.6712150714054088      48.513539486820513      2.4490041175516719
    77   1      3.5758254542372883      50.585573033303277      51.990259306741706
    78   1      5.5898407667699974      52.734935934019568     0.12386925913003365
    79   1       4.265753438042915      51.165612368860629      2.5509835696720198
    80   1      3.0436932924197815      53.643971430129071      2.5583648729119175
    81   1      6.7205743796962638      55.468894553048941     0.03958086694635031
    82   1      8.0982655516498614      3.0177552966652565     0.31849650045134903
    83   1      8.1333196656645246      1.2738786965578655      2.4830849501365018
    84   1      6.6219502178716905      3.5808260434958319      3.0621157765751197
    85   1      6.5113583612816468       5.388610771148449      51.999008781418723
    86   1        8.30356669082434      9.0877508264776345     0.26529776737646604
    87   1      7.8426928063647621      6.4277068643895063      2.6559905524064038
    88   1      6.4604442420341908      9.2230044407837699       2.548618753082446
    89   1      6.9578249520220199      11.370306319836304      51.968879101376778
    90   1      8.2586520674638386      13.982956436544793      51.995801678938264
    91   1      7.9237023162299227      11.908024405060454      2.3315226375082023
    92   1      6.3867870387330576       14.86899970584847      2.4197340253039186
    93   1       6.013846578523018      16.720576660700154      51.847325419791012
    94   1       8.071616617312463      19.334410630422703    0.025810308733548205
    95   1      7.9859959756951948      17.643833826408073      2.4757173776296892
    96   1      6.2557786317913768      20.285635859758919        2.36215467223919
    97   1      6.2192505034416685      21.908002984093866      51.931676002507857
    98   1       8.188784187237502      24.673386955736444      52.045461796098309
    99   1      8.1211332761856045      22.836550932207334      2.2786614667881118
   100   1      6.7196719168594115      25.910536721797573      3.0270466910856424
   101   1      6.7406501328933057      27.697878465911259      0.3002336737082682
   102   1       8.120910472817771      30.378870130390332      51.747204441255512
   103   1       7.902497935333912      28.633864553575343      2.6845905060792572
   104   1      6.5597027065950462      31.341076845404388      2.4034628677376562
   105   1      6.6596929984888895       33.29086870683723      51.956039697764112
   106   1      8.0456437499607318      35.857650957837812      52.039433576470671
   107   1      8.0026391766842355      34.624907046688918       2.789859443247265
   108   1      5.5846255539842975      37.371979984726529      2.9018839166372667
   109   1      6.5205089360220674      39.227807406977483     0.41403328344510032
   110   1      7.8522278628651803      41.871468629530014     0.46052500962527654
   111   1      8.0862810440485937       39.91295052401685      3.0870753077996831
   112   1      6.8379835307686907      42.863837008391137      2.8284827694506474
   113   1      6.4824333412416877      44.328893387021488       52.00178839211187
   114   1      7.9377912403193411      47.297491036209522      51.840303153499569
   115   1      7.8681831377555751      45.973381228017999      2.4148917814342252
   116   1      6.3670370365148816      48.861889897028846      1.9840136775443244
   117   1      6.6394933380220973      50.296480311585974       51.74373005308059
   118   1      8.3698858072913911      53.073841767840058      52.083277406092378
   119   1      8.1578521298212348      50.895979403283071      2.4093516395073884
   120   1      6.7820217244626049      53.927100316004825      2.8306776849837667
   121   1       9.709295459697465      55.305716593768231    0.044599932370682521
   122   1      11.037523768597566      2.8356709084630349     0.40250525844263796
   123   1      11.236651237101647     0.97071141428660435      2.8939146348421501
   124   1      9.4573983321507811      4.1471883318850056      3.0604668407839872
   125   1      9.5480326508349851      5.6992280899639898     0.52479761546550319
   126   1      10.958093143902818      8.8390117565048349    0.064513419587397841
   127   1      11.450586884993177      6.5333075850654767      2.7823077309219455
   128   1      10.039144416973247        9.23523798506268        2.76913190910272
   129   1      10.050517893851282      11.460814352626821      52.094543630289003
   130   1      11.376832268692404      14.088408117976632      51.897936862774159
   131   1      10.759631073100943      11.805499093892273      2.5135271839346971
   132   1      9.5250884238344842      14.794252648138393      2.4931656191787708
   133   1      9.7232540839040489      17.045259518578387      51.816634764665864
   134   1      11.520155496781744      19.387800499316171    0.010886077433061629
   135   1      11.089681033714097      17.302145370139929       2.237330407123781
   136   1      9.8847162479527633      20.239653558310074       2.416950198324797
   137   1      9.4860599557440199      21.990340437977217      51.893643319515199
   138   1      11.888052103926624      24.635319427745966      0.3177804311711489
   139   1      11.035054744068177      22.857162921567106      2.6580832084791113
   140   1      9.3548558998861004      25.655158841032499       2.371068878121164
   141   1      10.070971547261216       27.41062925519044   0.0035593572206261358
   142   1      11.027577664517949      30.857864017023307     0.17585904541075981
   143   1      11.043981175039068       28.20101987999896      2.7029826511175381
   144   1      10.020536037094375      30.740349578217707      2.8874213128792312
   145   1      9.4398395409650853       33.45591238419734     0.57758931432572702
   146   1      11.239665213239734      36.323383831849974     0.29312758568413372
   147   1      11.163517689145607      34.212330048672392      2.7304669913164634
   148   1      10.028366098923057      36.975363646312175      2.4152885500987362
   149   1      9.7419567131815068      38.817910529069515    0.052597848861743658
   150   1      11.301495542084778      41.419435901986112     0.18559293551609013
   151   1      11.404590911639188      39.866675495435977       2.514281017663238
   152   1      9.7917460032043842      42.458449482093535      2.8922707621003423
   153   1      9.6923154498891773      44.406746608354268     0.16446143300953869
   154   1      11.100998485240188      47.141585505925825      51.842001740008314
   155   1      11.129190248698476      45.519525640286943      2.7788237035669936
   156   1      9.5680609968988328      48.213361525468372      2.7602621378598329
   157   1      9.5327769951548031      49.656575571758516      0.1321518049624433
   158   1      11.233441738774607      52.714831615477713     0.45494824643231335
   159   1      11.213609788188631      50.688526768754748      2.7248617804276809
   160   1      9.6866368569324397      53.634412681674767      2.5201316092615316
   161   1      12.752044428107975      55.489792954563896     0.86436862897758182
   162   1      14.399562599051533      2.5426974807136924     0.51334892070787808
   163   1      14.583847462617925     0.72868263363199559      2.8791967724261123
   164   1      12.960325616374755      3.4528134800673524      2.9413842613455787
   165   1       12.68060690542093       5.215391037208911     0.56351844582150401
   166   1      14.325654132606731      8.0785337916319389     0.25314026582783311
   167   1      14.303360443975615      6.3976307994481019      2.8715461050896205
   168   1      12.891765968082593      9.1867755304870915      2.3848916463094922
   169   1      13.137471333643507       10.95114133675283      51.821881645008304
   170   1      14.678063687906196       14.44463037917407     0.42221915767935392
   171   1      14.140614976477476      12.091248302936014      2.5789441793639001
   172   1      13.302160806064835       15.04119798738958       2.970851176759298
   173   1       12.92836923984358      16.731022107131899    0.077351182757415593
   174   1      14.678371942865827      19.280431422935241      0.1852794847809274
   175   1      14.987209837951241      17.564703128716022      2.4824337523459215
   176   1       13.02163038764505      20.707259260083841       2.718813603077701
   177   1       13.05418816311828      22.178705915721199      52.008210299942448
   178   1      14.886049582779673      25.165399921296721      51.952285696379711
   179   1      14.148252889460908      23.479540559330001      2.4501994399822884
   180   1       12.81701165354079      25.889117976086705      2.8116134470227903
   181   1      12.972438628741182      28.035499139051876     0.17549931070700828
   182   1       14.18954325421501      30.740633726880958      51.968016423570404
   183   1      13.956669877369688      28.882692040310026      2.7888501155533687
   184   1      12.980778921031163       31.83746328294076      2.6033647283481987
   185   1      12.800401659989936      33.546138138608903    0.091555992293856817
   186   1      14.346893474218888      35.967307501868916      0.3362862198900331
   187   1      14.220000996540827      34.264630606506898      2.4773466869298653
   188   1      13.520314936763512       37.44240706556527      3.0101398811092581
   189   1      12.830588096404661      38.669110011261921     0.37726478802520969
   190   1      14.343845312606531      41.640859785242611     0.41663533399739894
   191   1      14.084312947840065      39.978688973070057      2.8130838958066295
   192   1      12.888816259643413       42.76484293983529      2.7670413990421161
   193   1       12.78386793590767      44.619351939157085    0.057935132288790755
   194   1      14.153375056640044      47.164708433916687    0.028032240620018658
   195   1      14.164796875012009      45.595177372821937      2.6668799581608078
   196   1      12.695727612336407      48.184534679313117      2.5585863134566149
   197   1      12.578136061858528       50.16462836513395     0.25060394012769138
   198   1      14.582050468611239      53.024754531643893      52.021115238384617
   199   1      14.403936328531332      50.909082687285263      2.8185208044061758
   200   1      12.899610782989713      53.527947577922262      2.6824359972535858
   201   1      16.174627739325924    0.021392495243160423     0.36106325473164969
   202   1      17.519889319366854      2.7956482787521613       52.02019328305817
   203   1      17.986782349599398      1.0468608964692292       2.581515888347012
   204   1      16.111799697762233      3.6165044030889426      2.5275101537383908
   205   1      16.050953367296696      5.3554798639785455   0.0045341934751196291
   206   1      17.492365612864752       8.305109954182381      51.989008903842411
   207   1      17.568714699573363      6.9767123102324069      2.6008870906107049
   208   1      15.887199571872568      9.4470974310572817      2.6934365588691946
   209   1      16.074309190960907      11.190205509256277      52.075577361079922
   210   1      17.876114956650934      14.083320155167556      51.862975019916512
   211   1      17.463552352993258      11.668599602891412      2.7176892075496419
   212   1       16.45867020208803      14.421165793065274      2.6742207683198629
   213   1      16.224619848627054      16.940218386689516    0.039047196255251944
   214   1      17.854149486968446      19.320744350660821      52.005301111946537
   215   1      18.065042738669252      17.603812192111828      2.4154365857773148
   216   1      16.110012458468663      20.538975881514229      2.1935960378245234
   217   1      15.993558765615802      22.584502867467204     0.20750062404175795
   218   1      17.979713150578618      24.884235302514281      52.125112077133082
   219   1      17.728313498538395      22.990527601333543      2.6494561465813931
   220   1      16.065796362466415      25.581609830373196      2.5214860370101642
   221   1      15.821190048288925      28.272513470776602      51.945629163082003
   222   1      17.607102382109908      30.690305645533833     0.35348392249411031
   223   1      16.847260548145361      28.849150394022075      2.5708475302254614
   224   1      15.706068738408836      31.421830350363457      2.5397704075096312
   225   1      16.042643847421473      33.189284105632929    0.055174298318517744
   226   1      17.342908511308707      36.052115646735651     0.20607042225102962
   227   1      17.883693828790051      33.967025339268773      2.6259335826489361
   228   1      16.448266706146548      36.645472472021154      2.7951698167616232
   229   1      15.653264310624079      38.667566015717924     0.56770611534908644
   230   1       17.26653017851762      41.576706020728523     0.24317010650571744
   231   1      17.531945806530167      39.740226108894738      2.5440666884805703
   232   1      15.806074246684007      42.752613310978553      3.1028237823798572
   233   1      15.981364156087457      44.619724064524263     0.28050005842464387
   234   1      17.470362630871591      47.331193856045445      52.046659945782025
   235   1      17.725006364645306      45.703596130332315       2.854982639596352
   236   1      16.005289557496585      48.279772327556259      2.6016094286237434
   237   1      15.637112125577451      50.256219569960244     0.23091933634875078
   238   1      17.644306198573634       52.72457562332648     0.15842344911334072
   239   1      17.589475729687315      50.922336261036961      2.5071239403353096
   240   1      16.237386473033116      53.531456568696825      2.8072725710287236
   241   1      19.099417520288075      55.540394254510232    0.072572442721479405
   242   1      20.574571795433599      2.8593248218539209     0.11440531916723479
   243   1      21.038583206551721      1.2183726488964659      2.4476043955785358
   244   1      19.229090550387046      4.0719636879797161      2.4860399182176769
   245   1      19.287955404589937      5.4864686256617228      51.829793684424715
   246   1      20.817371125971796      8.3980920338754217      51.956470281851267
   247   1      20.625282132953089      6.8151683857295184      2.0907981449282445
   248   1      19.604266904338786      9.2919459705520193      2.7931766126345634
   249   1      18.973949653144352      10.827114196902391     0.29645575734388119
   250   1      20.965869725343794      13.615775499373278    0.079153025920322889
   251   1      20.905055603260156      11.867571803847371      2.5021015226108543
   252   1      19.249989538408151      14.842390710796042      2.4115999788307523
   253   1      19.748889019445318       16.42676644112176     0.15424507920465663
   254   1      21.057447347745374      19.398620428446485    0.043381921750960381
   255   1      21.190432187788709      17.207650062879491      2.4877641697219071
   256   1       19.49391236926099      20.257440284694585      2.6486819681185461
   257   1      19.099446674549295      21.910340690205103     0.18409662623205644
   258   1      21.305186829673048      24.357886074661554     0.31958528044717927
   259   1       20.92503415759397      22.943968922103284      2.9447648856667517
   260   1       19.12255480301134      25.585141487399763      2.6152170735741387
   261   1      18.667875841496461      27.786003800344638     0.49529391852015703
   262   1      20.563337558445657      30.250576737803211     0.12007443327339551
   263   1      20.631888230503506      28.141530227389694      2.7810250207652487
   264   1      19.612725056900516      31.458779027637473      2.6136034700384605
   265   1      19.226010822269235      33.171250401897865    0.075248006423710503
   266   1       20.58201834737098       35.99046531500138       52.06099699548993
   267   1      20.575085480878155      34.410918449192721      2.6472117317122819
   268   1      19.335637395771503      37.025752535785045      2.6390484847067386
   269   1      18.650816210874211      38.477394526342536      51.866255151440434
   270   1      20.480587846339798      41.450880021572594     0.17059650316021321
   271   1      20.770698221769553      39.908636680246111      2.5379682528536915
   272   1       19.13039430177529      42.700050780284961      2.4093156405991145
   273   1      18.998938400257572      44.046375336785204      51.559302661263523
   274   1      20.797940700218994      46.966749334776118    0.036112802141039888
   275   1      20.982327690694646      45.237778021097562      2.2086239172508582
   276   1      19.245052619274922      48.442163338722082      2.8663982297072321
   277   1      19.166030302079658      49.747259950956206      52.124042265687393
   278   1      20.707277597383101      52.882807129756337     0.09423794920405093
   279   1      20.887824612526842      51.282450760091621       2.387817693045748
   280   1      19.693886299799125      53.768566137620098      2.6303469146996457
   281   1      22.000414566296584     0.28320676847726667      52.057645948169778
   282   1      23.963066220531925      2.8750814521491725      51.754360961485681
   283   1      24.465627179637004      1.5798965650531489      2.6144221410189892
   284   1      22.567806684690673      3.9127951956758911      2.2787144636837362
   285   1      22.411112943807069      5.6321044461036127      52.066466270606348
   286   1      23.793285289197957      8.6092053992416648      52.071631366194687
   287   1       23.85579721633734      6.3620054155624359      2.6414595330224455
   288   1      22.896023069891182      8.9889602008556011      2.6794441366248352
   289   1      22.221286186647905      11.102377583919909     0.27400689023766756
   290   1      23.987352050698441      13.521099273862793      51.758708766369921
   291   1      24.603333815982808      11.729243864926094      2.6047614167268427
   292   1      22.834672498028944      14.299671107942448      2.5456063200454131
   293   1      22.771273109367058      16.247667260510497     0.28026246560990187
   294   1      24.136552432683125      19.189724477310865    0.019816715300011303
   295   1      24.611502653497663      17.490571563478696      2.5777309773493453
   296   1      22.548583305404907      20.306642244003072      2.6986378624748872
   297   1      22.761743161230523      21.926061577441768    0.087154634403018572
   298   1      24.212780351132466      24.680525069355948     0.24202781397562295
   299   1      23.920210678253596      23.114930922492313      2.7535956975587799
   300   1       22.36192468743744      25.808609570229706      2.9967021230627435
   301   1       22.55277120365113      27.517025445085167     0.36318077456122133
   302   1      23.922616095039384      30.149314812233971     0.24256107867500284
   303   1      23.714480152755144      29.040323268603718      3.1237142494747756
   304   1       22.68967593724026      31.639732813793735      2.5895122705990179
   305   1      22.160069694899839      33.195474405266637     0.25906408980028339
   306   1      23.910621787224908      35.818445638182538    0.042456609694300734
   307   1      23.648420138343287      34.495040398680416      2.7341740476415137
   308   1      22.324143160274723      37.292189801914766      2.8632232463491207
   309   1      22.110618660217252      38.917699361474639      51.763469640666308
   310   1       23.71194814914432      41.661086724476775      52.000966289605216
   311   1      23.967629367232842       39.86791697739411      2.5151622366984405
   312   1      22.546061451706027      42.494089029878126      2.4430193195899532
   313   1        22.2085187829456      44.262997040209846       51.74594123512373
   314   1      23.661260167407114      47.057466201109222      51.843908060242264
   315   1      24.184238408459521      45.543561339536815      2.0521457639794489
   316   1      22.320773444422162      48.278768169441385      2.4631102915174647
   317   1      22.387576951919304      49.677855018302964      51.765178409925511
   318   1      23.986928719787841      52.959446644650413      51.973973001074661
   319   1      24.004408826520098       51.34719151735969      2.7519876063219635
   320   1      22.495761552040047      54.294073381680604      2.4173332288065592
   321   1      25.076402976224788      55.351590336989808      52.044687472275207
   322   1      26.792055965281175      3.3031309286499702     0.25683767014190279
   323   1      27.231728257048402     0.41223225540347663      2.7616620679197279
   324   1      25.693103327914613      4.0959213838744626      2.5684916001749269
   325   1      25.408939929685136      5.9476577977168432      51.948817876491638
   326   1      27.466819113827157      8.6034969528229333     0.22407639557523118
   327   1      27.665764174090747        6.28816936125029       2.346284048053648
   328   1      25.912076589815445      9.1261160949042957      2.5324642539922873
   329   1      25.442922777561368      11.320968295837831      51.842166386659322
   330   1       27.01991385596488      13.924403902623304      52.003126334332201
   331   1       27.56235789510707      12.478861348779274      2.3516454891673213
   332   1      25.838562016115414      14.559706693414197      2.3881552509793442
   333   1      25.864403003256282      16.767146015930813      51.823846760436773
   334   1      27.620850201886988      19.245245991333967      51.900846417169582
   335   1      27.218203090472777      17.543043740390569      2.5196305980747313
   336   1      25.805280780241194      20.177890528387415      2.4925643512043667
   337   1       25.74817724953083      21.766477881302709     0.23666768004338812
   338   1      27.485837250277484      25.457900495597542     0.37906714893660681
   339   1      26.892989894066861      23.451387944723347      2.7108602349323339
   340   1      25.271855811854429       26.30679436304662      2.6510598287626079
   341   1      25.239105889152608      27.686586708486651    0.057070590123203598
   342   1      27.538724898085309      30.375698370581318     0.50207748302263433
   343   1      27.223075249719578      28.439974968572727      2.9854297157243868
   344   1      25.829053748777884      31.086350050334769      3.0863253830215656
   345   1      25.111133962729067      33.022947395871547     0.26504893664410584
   346   1      27.226560844726261      35.906852942290648     0.52315988487748533
   347   1      27.553751623081197      33.863130846560786      2.8053647425673041
   348   1      25.586513099966659      36.970086002916766      2.4454566016415842
   349   1      25.430488447282844      38.885752324441995      52.114206923903183
   350   1      27.288597155096724      41.476435859492838     0.03902314197489911
   351   1      27.060732677694791      39.650745797021152      2.6999941466115294
   352   1       25.81951968245491      42.555538781248458      2.4215137569715823
   353   1      25.776174235292586      43.940668207096031      51.957929088364452
   354   1      26.742372165406199      47.220529517770622      52.103429844264639
   355   1      27.157154423366126      45.029560611019079      2.4745460445719503
   356   1      25.420365169630536       47.88743808058927      2.6834375907886501
   357   1        25.3573507881325      50.087031790132365      0.4719024978009777
   358   1      27.389559688424182      52.494531315835957      52.044356719722671
   359   1      27.138729595827424      50.900439266888554      2.6245852205187479