dump/Mg_1000_0/steps_21 (written by ASE) 

4000 	 atoms 
1  atom types
0.0      32.100000000000001  xlo xhi
0.0      55.598830921999998  ylo yhi
0.0      52.130399999999995  zlo zhi


Atoms 

     1   1     0.31419482832488144      55.334518213108851     0.24462944965231889
     2   1      1.7519570928643853      3.1208603116236366       52.03543404714074
     3   1      1.9519182649515978      1.4261930058169394      2.7834969242075318
     4   1     0.30075777287961536      3.9719106349877853       2.575604749227363
     5   1     0.14209074953302342      6.1067263018270381      51.977364036815928
     6   1      1.4189254776686122      8.7519513093773078      51.576964370729314
     7   1      2.1045746957746485      6.7789367710422637      2.4762479471400298
     8   1    0.055932554121955851      9.1926358929355434      2.2182316071857238
     9   1      31.901262281765977       11.56801830953318      52.095531953443903
    10   1      1.2597947009249102      14.111628480706308     0.26433319386293885
    11   1      1.6229266148662866      12.475608503427081      2.5824302506285153
    12   1      32.094299281868693      14.869359896031385      2.8691840425988997
    13   1    0.029706104630444898      17.109058278014611      51.972138194891556
    14   1      1.7156764722790545      19.578843667432036      51.933808020255228
    15   1      1.6780368864249253      17.526334258678659      2.2462923062404467
    16   1     0.38897610510719188      20.299109646880769      2.3116147750879357
    17   1      32.015856995322828      22.275208933009768    0.055707978699509393
    18   1       1.338078300523583      25.169350812436953     0.38268657222422958
    19   1      1.5631114109792887      23.177256948983633       2.828256921782407
    20   1    0.098971354811034709      26.255469507449678      2.5167205884202861
    21   1      31.601029045220418      27.872639047318113     0.12631095220487962
    22   1      1.0940165433690763      30.344532404168898      51.959398672074919
    23   1      1.1759008861350375      28.904191878599161      2.6972782240171771
    24   1      31.462909199582519      31.668500457465885       2.489234836572797
    25   1    0.036841603080523158      33.465110220102467      51.964108981129264
    26   1      1.5970293712602386      36.398814079321838     0.16371762290976866
    27   1      1.3098497833882468      34.290215757507276      2.7473321330146114
    28   1     0.20476606063090463      37.137970223572147      2.8059991302952039
    29   1      32.015742242472292      39.185118831789779      52.119069294908329
    30   1      1.3200027999162949      41.724474333054438      52.130174212219451
    31   1      1.6173161088622368      40.016193403977518      2.5874391054772912
    32   1       31.86232710552542      42.322807944049238      2.9472420061535867
    33   1     0.11236349494862721      44.593100979090806     0.25687668598515967
    34   1      1.3703340649648952      47.454755819359974      52.118414192200341
    35   1      1.5041384810475666      45.413461460110121      2.5641594412149145
    36   1      31.485885507482269      48.194966001433478      2.6104421284501336
    37   1      31.751865500840232      50.172227360660152     0.18818451242555803
    38   1      1.6798490345806563      52.613726837672083      51.998532379577249
    39   1      1.2597359217315265      51.286444091546322      2.4380169974599024
    40   1     0.33451615465405893      54.229193832317733      2.8371782693469787
    41   1      3.1829987492229228      55.561665891328239     0.17679967946472605
    42   1      4.4063320786402898       2.962511981876224        51.8625437732451
    43   1      4.6101773287413446      1.2866528051389519      2.4280581220453521
    44   1      3.4165943301375479      3.8924972170004257      2.2225147789931978
    45   1      3.3715146510451826      6.1248490324698333      51.700791266969844
    46   1      4.8110428866963897      8.7870505910713437       51.91729047920883
    47   1        5.10493266810278      6.7359497151828815      2.4393004014544499
    48   1      3.1039245203770633      9.6380896205778193       2.320938496182519
    49   1      2.5832420994284955      11.721781818978044      52.078399054692795
    50   1      4.8256365636421732      14.210559281849722      52.107143640953652
    51   1       5.023102626372129      12.288453549868283      2.8831420279458109
    52   1      3.3392204711709086      15.180116494974925      2.4715655763360909
    53   1       3.230057864607272      16.706610204532932      52.081004720639157
    54   1      5.0575464181734056      19.455925366897564      52.042874869084223
    55   1       4.847121993053932       17.98113950363269       2.468658431648286
    56   1      3.3039317681294396      20.467881827952731      2.4212551802392359
    57   1      3.4211395145347896        22.3027704519574      51.884122838473054
    58   1      4.9074478217543511      25.757897835735548     0.31423911101448332
    59   1      4.6805418960216505      23.296389398114933      2.9275605951204495
    60   1      3.1206540139098609      25.718033900394161      2.7182832204193232
    61   1      2.4432131801223478      28.206985396410527     0.17999215521996126
    62   1      4.1737655799214926      30.424804094628112     0.22041768625337835
    63   1      4.3583620713715492       28.44330679540079      2.2015160690975839
    64   1      2.4782653786419497      31.432737602735056       2.423216370155552
    65   1      3.0986299047237167      34.021024352751674     0.23140845288021752
    66   1      4.7805505408270115      36.385337415269021     0.63251629406272047
    67   1       4.846839064897968      34.603405819322312      2.9195480667619971
    68   1      3.0673869825206017       36.79938155535811      3.6113539146570561
    69   1      3.1077877016542081      38.975830645846194      0.3756709823701091
    70   1      4.3374621260280648      42.066623198814902      52.127698220261465
    71   1      4.5700577358180778      39.552997411409216      2.8264396748477894
    72   1      3.0142360193070705       42.49724283429267      2.7405804815568287
    73   1      3.0036472680610897      44.663288341569363       52.07957729539109
    74   1      5.0447244475333939      47.177163359331189     0.27886553630553979
    75   1      4.6659888190410452      45.519877688759465      2.8203749035464143
    76   1      2.6644627336839473      48.547692642974617      2.3129577175629374
    77   1      3.4052272745309056      49.866488646884676      51.865999945534575
    78   1      4.9998731997340533      52.886238330814351      51.854968930729314
    79   1      5.3363254547844754      51.178963114119028      2.4041409437991312
    80   1      3.6367387195528407      53.916571877356496      2.8603109789317278
    81   1      6.3204436437045697     0.32841377888737361    0.075914556573268538
    82   1      7.9898151435060063      2.4581601866759142    0.065507190237396346
    83   1      8.0994151509701382      1.3126298725973859      2.9207968403279225
    84   1      6.1918068124669512      3.8697827040375783      2.5860223221028211
    85   1      6.3017547222704202      5.6187823748742094      51.931214515302919
    86   1      7.9659860443774884      8.4395682470070845     0.14596897681356652
    87   1      7.9535652932042158      6.4038776828852235      3.0055782103085509
    88   1      6.7415136168671728      9.3332540017294345       2.666568625209635
    89   1      6.3117994414593435      11.268049198714031     0.10390123006938391
    90   1      8.0275218614756589      14.066127714602985      51.982548769148138
    91   1      7.9404635788434836      12.064821243563889      2.5186721824025446
    92   1      6.4440455070528637      15.175128034645967      2.7059031167122387
    93   1      6.3457391448737956      16.701193403039944     0.32175798547627021
    94   1      8.5658902745471739      20.205082947483174      52.098714669387341
    95   1      8.1285962294656908      18.180684407146686       2.521298044412986
    96   1      6.3747659148490259      20.739700723612437       2.281193005420131
    97   1      6.7242735859884935      22.907253081377274      51.971802008786092
    98   1      8.1915240184509255      25.502344374739536     0.61964213530923817
    99   1       8.189377878852504      23.245332788882806      2.6957663840208648
   100   1      6.2071735384502773      26.219994544825223      2.9690345220045895
   101   1      6.6032816999867885      28.000864041254076      52.061187674125549
   102   1      7.7941198263801876       30.71700435333203     0.26729397440446062
   103   1      7.8057765775693779      28.726430276629234      2.5008202940655355
   104   1      6.0015551255231498      31.706349466264946      2.2665858918423685
   105   1       6.434712815800756      33.540179741951775     0.30941903143958027
   106   1      7.9584722531979999      36.454173830882851    0.025609905178628212
   107   1      8.2434470667302904      34.058122650263869       3.051904706541706
   108   1      6.6552289141904915      37.154254519029543      3.1257447233914837
   109   1       6.493939779000935       39.76220883941474     0.22665370966089923
   110   1      8.0505959127431854      42.120741755687988      52.072367882296817
   111   1      8.0137065630306488      39.747811827628759      2.8813457410389169
   112   1       6.046529734664464      42.306634475351949      2.4695491365083568
   113   1      6.3707784097620026      44.307822972222688     0.23567057422096863
   114   1      7.9464180358521945      47.456393334884226      51.957039710353065
   115   1      7.8036466393294237      45.523964221389448      2.4742408630614587
   116   1      6.2275322790285266      48.634734853973264      2.8838499415064409
   117   1      6.4992147416334669      49.785769478574984    0.020422161882423757
   118   1      8.1571926311432215      53.059571133540317     0.33732187928556351
   119   1      8.4337378174173097      51.242392774607296      2.7325102541738051
   120   1      6.4261805383715744      54.135744782040433      2.7894670530988916
   121   1      9.3718309337579928      55.526093699263228      51.847287601331139
   122   1      11.010209512044685      3.1647396414155868      52.082679251735584
   123   1      11.135704838481001      1.4564447920581374      2.3305470617637143
   124   1      9.7256621170238606      4.0635087800499399      2.4175447710036231
   125   1      9.4389452879813458       5.916294993316618     0.27211269799879018
   126   1      11.241439870167044      8.0918629267710962      51.906783952258252
   127   1      11.805859532585837      6.4180639854906509      2.2212531191846998
   128   1      9.6845366166481028      8.8799350131395922      2.0456586546131752
   129   1      9.3990378152056664      11.203828380392878      51.691775321690265
   130   1      10.801634030148858      14.047382995392816      51.999576258725639
   131   1      10.617783007945924      11.583313305550337      2.2479638754713003
   132   1      9.4238132251321449      14.874572479874836      2.8602314036303742
   133   1      9.6115659309471138      16.921354451768654       52.03481068720793
   134   1      11.452128498177053      19.613280518456182       0.209480194299107
   135   1      10.868640728949673      17.548600338159968      2.4825612346226333
   136   1       10.03735895075893      20.567764326172956       3.141766287953772
   137   1      9.6077436604975457      22.996789832199116    0.082195047387724138
   138   1      11.363598883425484      25.482879120852548    0.060679355043660399
   139   1      11.046488879860098      23.678676251931787      2.9892061400407592
   140   1      9.7713299672647516      26.314921958222829      2.4292978917208217
   141   1      9.6432638267172255      28.553144214295632      51.944624627396003
   142   1      11.159501183412965      31.129324125110553      51.951803937079113
   143   1      12.100609079609445       28.77244079136095      2.6133100294962528
   144   1      10.175670516239432      31.108393009004153      2.5053466262812405
   145   1      9.5852801369673468      33.472930932635485      0.3079468480225801
   146   1      11.536774232647383      35.897040595383643     0.19436884838876139
   147   1      11.453742493066418      34.014693670360941       2.300155180338098
   148   1      9.8489275013261892      36.798808497112894      2.3741274972203406
   149   1       9.902950307946103      39.600099120884238     0.12836771215923187
   150   1      11.083105022727363      42.054612465328901    0.021624983466771209
   151   1      11.378590353593365      39.834329311620039      2.4328169083741868
   152   1      9.3087976023114631      42.683476576354494       2.710110542729439
   153   1      9.5812444762804763      44.873625092442559     0.17951375367782632
   154   1      11.247852281562659      47.653176677735665     0.45440687557109344
   155   1      10.892954584459099      46.024188630578202      2.7862798658385746
   156   1      9.4201283662313333      48.675355899266521       2.617180761390892
   157   1      9.5822194572282093      50.293442452806588    0.060356900998835755
   158   1      11.203286242936583      53.014266847462103      52.046850320249831
   159   1      11.408349935572168      51.392158637501296        2.37483076886567
   160   1      9.4742685908148214      54.201194321448455      2.7328242899236908
   161   1      12.735307730234075     0.45911233431567833       51.46130808943149
   162   1      14.334367223635661      2.9360633682738384      51.977968361039025
   163   1      14.431304899914053     0.86153465037536736      2.0490732485655805
   164   1      13.198541737770952      3.8920199774725033      2.0853670656026466
   165   1      13.003621048879372      5.6109780087555379      51.793307943470325
   166   1      14.379566314384848       8.380013429167505      52.020859966353385
   167   1      14.703975239997972      6.6957108410047415      2.7936774117578942
   168   1      12.619533616695941      9.2709606928130146      2.9461917658212786
   169   1        12.8382065806233      10.988615448173615     0.23963296898118003
   170   1      14.120039954780234      13.775381882686302      52.121764974944895
   171   1      14.336206910760163      11.973645309656067      2.7020533304556804
   172   1      12.480504178841318       15.06024882512736      2.5464283916925625
   173   1       12.81659614756472      16.682930454962147     0.20743048504902839
   174   1      14.658957647612095      19.058376451007643       52.08102889218204
   175   1      14.628894987273098      17.525850433438972      2.5611724391994821
   176   1      12.883121394264419      20.545578319671748      2.4825779785451298
   177   1      13.174828823396552      22.307559600928972       51.97090357046357
   178   1      14.211090014743135      25.351001819730829      52.098716051124676
   179   1      14.558263478792488       23.30691769251499      2.7790421873488715
   180   1      13.302019154266231      26.129013511329145      2.7783187185341585
   181   1      12.712415753047269      28.233527100029644   0.0079586518990539985
   182   1      14.067312526683844      30.697643334678233      51.732285735105592
   183   1      14.858117116116675      29.025494565120049      3.0852454288888489
   184   1      13.179780582568489       31.74032444609907      2.4254185807679081
   185   1      12.882543636058246      33.744909422261429      51.988035150405366
   186   1      14.492024362795648      36.351575251685141     0.36676915011459693
   187   1      14.639632079808813      34.302903607696273      2.9611477674612932
   188   1      13.113646367550645      37.104909864201062      2.7439925895507709
   189   1      12.707107318953542      38.676465020573765      51.854358299179751
   190   1      14.366947088080055      41.789627450487117     0.11369326933187517
   191   1      14.676222585739895      39.613826374289744      2.7718260405135542
   192   1      12.161934472473845      43.328806585193739      2.7394689934409397
   193   1      12.392448631582948      45.011095838298061      51.977952068810765
   194   1      14.325327473677543      47.502651436834178      52.096181127652841
   195   1      14.300563665884312      45.647195912266774      2.2468453222496496
   196   1      12.641186960793137      48.680895172500804      2.7607241391358452
   197   1       13.32289720105052      50.229200356558749      52.019304424439859
   198   1      14.367689430380123      53.286659032982151    0.016800731245960304
   199   1      14.240612752314453      51.566751200682937      2.6937539236990209
   200   1      12.092353189223855      54.302602381057667      2.5680121995069887
   201   1      15.949496171003998     0.52331286910710506      51.619428247621443
   202   1      18.137726019329811      2.9753449978196906       52.01512415806198
   203   1      18.052566434712595      1.1609433568021728      2.9061491795540717
   204   1      16.139445739460871      3.8742200906817263      2.1985862736882655
   205   1      16.025182319878571      5.8538175325711226     0.31367419757040227
   206   1       17.40109630120671      8.3039045028501466      51.981746977890843
   207   1      17.846091775759589      6.8373169478633304      2.6085795819749067
   208   1      16.305962039563735       9.434038787855215      2.6999155336025291
   209   1       16.08106072872669      11.225860996676534      0.2797789687958408
   210   1       17.42843993540102       13.71850574161329    0.073720992753617084
   211   1      17.807668329037384      12.205784790163843      2.5490895811757444
   212   1       15.76484140737533      14.897246539275431      2.6076180661946715
   213   1      16.479588403792306      16.450413746526173     0.15889017351602802
   214   1      17.515368193902368      19.626322668998245      52.117007887749253
   215   1      17.901541480875888      17.520696977391435      2.6845562591629828
   216   1      15.826064651474578      20.632137313869968      2.1521117252711135
   217   1      16.049792325739343      22.554525588442178      52.103661011714017
   218   1      17.481043864133497       25.27086285124674     0.42101208437719728
   219   1      17.318996516803036       23.39026021536111      2.7051499295929515
   220   1      16.189796879881353      26.331521128507639      2.8984019809658275
   221   1      15.625290093272699       27.98569399878615     0.30632534034896813
   222   1      17.081263458954002      30.693831916761862      52.084158879097643
   223   1      17.729324818341816      29.181771591763646      2.5351143201297295
   224   1      16.233577277250436      31.652097448514983      2.5220232633765427
   225   1       15.67661814263862      33.263705814536046     0.16968471241048086
   226   1      17.820639318475791      36.479556494959702    0.054758655098779446
   227   1      17.614929782046151      34.454954152614192      2.6587543370825761
   228   1      16.259735318132098      37.050093164559058      2.8753806734366987
   229   1      16.402562435271733      39.167722850627776    0.053711965937579889
   230   1       17.28627769430036      42.168112835274755     0.24196221401937756
   231   1      18.128873127042628      39.897512226891173      2.4285907955604844
   232   1       15.81229209900815      42.732821924890473      2.6875912195368836
   233   1      15.907529675838585      44.791785701911017      51.979128772730476
   234   1      17.401056766602814      47.494071823385468     0.17465653594765829
   235   1      17.154703004215428       45.49152802006131      2.7374661757305847
   236   1      15.247468358942761       48.93760615720312      2.4558684023393829
   237   1      16.268742160621105      50.292936377966754      52.021624440879854
   238   1      17.859812632930641      52.768599721588181     0.32493750237696151
   239   1       17.39531235986826      50.796335984542658      2.7193326356053502
   240   1      16.084145081100591       53.77401179913322      2.8692285308376233
   241   1      19.355708088524207      55.340234227598238      0.4095835226163726
   242   1      20.758135691709189      2.5725627320730036      51.971528051031065
   243   1       21.08376554331447      1.0678831938457694      2.5873854835627972
   244   1      19.443377863595078      3.8572464331473508      2.7002736253863295
   245   1       18.92572360957519      5.7472235298673517      52.095531065828915
   246   1      20.684521308720182      8.2226229471757595     0.10798399698847121
   247   1      20.669258921690819      6.3597341489849253       2.642242947684283
   248   1      19.295572707963657      9.3547037580808947      2.5313072604062938
   249   1      18.699012330140643      11.034703411921457      52.024815071308979
   250   1      20.467251904146426      13.618232134127219     0.52306700659702032
   251   1      20.588664613811069       11.96368394588708      2.9610086122529733
   252   1      18.772981347252358      14.951983652700088      2.7678936846185564
   253   1      19.094535502646497      16.870180168830043      51.933791631246557
   254   1      20.164812276253567      19.828434675532684     0.18955965091384799
   255   1      20.700519825955173      17.720029686962327      2.3924748595064078
   256   1      19.216548485590025      20.568769339208817      2.5522107809729739
   257   1       19.47539254885675       23.01153557285193     0.51722714216117571
   258   1      20.871307979222003      25.221305461517442     0.13164828396878966
   259   1      20.762121369910965        23.3982468151125      2.8046581659630503
   260   1      19.417464858522919      26.290101477119489      2.8133180633714661
   261   1       19.03093846670394      27.756825903602888      52.093539810997285
   262   1      20.506713729755294      30.398570465670716  0.00028203921801759859
   263   1      20.921930248673398      28.644280895862877       2.381270999309824
   264   1      19.474957225161159      31.402795406163406      2.8916722218161199
   265   1      18.919820733334358      33.252048619582041     0.26340419132591247
   266   1      20.814456264564271      35.979272244331575      51.893730816574092
   267   1      20.632302327437337       34.64767988565351      2.4480980801687537
   268   1      19.308654665884731      37.332660338428234       2.819934956124118
   269   1      19.456289122502657      39.172125172769789      51.971193865713772
   270   1      20.408377962382218      41.760818136146803   0.0019046327879067577
   271   1      20.974126198584873      40.356296094176635      2.6968909860888597
   272   1       18.76923159986946      42.902044849027654      2.5816896671862133
   273   1      19.313778286726716      44.638240051532641     0.28344509231446502
   274   1      20.528995437976388      47.385461148110558       52.09539434051694
   275   1      20.965513765208737       45.46135463775947      2.3817314509851855
   276   1      19.187058306942326      48.583118694207869      2.5078265394783319
   277   1      19.410498777347915      50.156755695549869       51.93512416638783
   278   1      20.929135293855325      52.844728721292157      52.094579584656358
   279   1      20.649455358751286      51.332181878167702      2.5251939739183609
   280   1      19.200559692242173       53.93900789941577      2.8585380467897004
   281   1      22.544004475833891      55.473997046157969      51.995868800548543
   282   1      24.575571683628517       2.783236749687823     0.10619251744217262
   283   1      24.337818845994889      1.2091417662010528      2.6131415771766542
   284   1      22.509788258119428      3.6694913650171577      2.7013089969653552
   285   1      22.249228521960323       5.300800793551959      0.1108459197555679
   286   1      23.786065352901048      8.0929887105997711    0.095768433100566902
   287   1       24.07700541003376      6.2457240115809114      2.4582514379080744
   288   1      22.264390889958143      9.0076150795122398      2.7157447931087164
   289   1       22.56445496576314      11.057311773230985      52.107001613889089
   290   1      23.933781084246409      13.576288468920094     0.51148803796068443
   291   1      23.956521194370197      11.505515705057496      2.6536479525555778
   292   1      21.459357904585982      15.062343962109404      3.0498114977954049
   293   1      22.332188681276193      16.120219940215435     0.14659863196195616
   294   1      23.577566592927155      19.749226468125368      51.665388799212259
   295   1      23.930480305732136      17.805632667824561       2.491857675508359
   296   1      22.303277534453343      20.497843488213942      2.5171247796972569
   297   1      22.297257953189145      22.231833590323447     0.11456800205909418
   298   1      24.002959768204096       24.84870649219507      52.124030561899275
   299   1      23.943439454650932      23.451767745372347      2.6124585940346119
   300   1      22.435856179578927      26.063915276473235      2.4278419060956233
   301   1      22.395659035751578      27.636306599062049    0.062517014204025154
   302   1      23.573771055666803      30.520583786342122    0.019163166984267736
   303   1      23.714566565325953      28.775038906399942      2.3153673613893422
   304   1      22.219921787420404      31.638002847973887      2.5422781745098582
   305   1      22.058341083752037      33.270784312768903      51.960972529582023
   306   1      23.434522026891976      36.285987485488043      52.079925944329283
   307   1      23.810495459436748      34.405072141760108      2.6688700095699116
   308   1      22.370032483086852        37.1866168358804      2.5672432277705868
   309   1      22.183804193245109      38.930934639112564     0.24721981648670974
   310   1      23.824682266795318      41.923238920601563     0.33591753538142599
   311   1        24.2634883713528      39.636523422546226       2.353467905277824
   312   1      22.034184908453465      42.971678741528251      2.3479786491418269
   313   1      22.431507754729353      44.319101662985695      52.017288897897913
   314   1      23.558255842430821      47.062640479861827      0.1554318857539245
   315   1      24.154561190804774      45.399218683412414      2.5621829115335193
   316   1      22.145587351393342      48.392531292391453      2.3584135293285535
   317   1      22.724377999888514      50.068148921595188      52.117328992525294
   318   1      24.212926817358273      52.817185269624424     0.35708165294322541
   319   1       23.96842556880738      51.070277796294064      2.7790865492456089
   320   1      22.722716329824973      54.113436464948187      2.7342158795633824
   321   1      25.806973903924952      55.549985170037161     0.14665114362209011
   322   1      27.512751415307619      3.0267291734802662     0.18296156043040995
   323   1      27.276330125059349       1.305703736937369      2.2792283655698622
   324   1       25.52944008731151       4.220083964091363      2.7045142430993021
   325   1      25.682352492326711      6.0662328103944239    0.067260229022278101
   326   1      27.428646547070766      8.5420332045949294     0.13383929967835501
   327   1      27.634770398132385      6.5869577855004735      2.4642421831352297
   328   1      25.529885128259686      8.5444618107424617      2.6903063862424998
   329   1      25.861464981815946      11.207596834033824      51.972451235809423
   330   1      27.027705872298629      14.057934885514049      51.772068500155875
   331   1      27.203341358976449      11.835133285590786      2.7831248085461864
   332   1      25.471013931895932      14.736191001242519      2.9395826115479005
   333   1      25.430492988100234      16.530662590810348    0.080742843410863407
   334   1      26.501904777687596      19.465127653405371      51.753464044248247
   335   1      26.962495015686528      17.456911603358577       2.388950639362482
   336   1       25.58236331357514      20.417047247004323      2.3279352601560888
   337   1      25.273414027960037      22.315831322919607      52.013062686087295
   338   1      27.044744263105397      25.135044427948806      52.080245383643806
   339   1      26.987829577898388      23.447307795525127      2.7304773498184645
   340   1      25.427831796336527      26.225220690771582      2.5383300719098205
   341   1      25.710939939184311      28.113172953470073      52.102766425586395
   342   1      26.841973933161427      30.850545508906077      51.966840701402845
   343   1      27.086499645489116      28.829463800224158      2.3677999402228713
   344   1      25.255162998219806      31.491374406292678      2.1807127647987583
   345   1       24.78473804495578       33.32700365726005       51.91539456779617
   346   1      26.619061166223588      36.046889403846286      51.879794840098434
   347   1      26.796456342413165      34.058810940823136       2.530339394800373
   348   1      25.364388247008197      37.083030992779086      2.3679927798766109
   349   1      25.847375326251317       38.77308822557525       51.84717032762385
   350   1      27.046600643965643      41.254139975694869    0.069777047793487576
   351   1      27.383204950520756      39.560250897431878      2.8699353700290939
   352   1      25.880560814859585      42.143683439215792      2.7512081967864455
   353   1       25.82517164110515      44.399885784694881     0.13432258663955002
   354   1      27.330801771189488      47.215775930379564      51.799494594743173
   355   1      26.997327872477928      45.308831026626649      2.6925206955965257
   356   1      25.420058705434926      48.243072750681613      2.1374138416433004
   357   1      25.597450423977243      50.066616901398199      52.001611010753997
   358   1      27.260602591271859      52.522971641944395     0.18033538514897393
   359   1      27.267452285124776      51.080344578730966      2.6501261112182601