dump/Mg_1000_0/steps_31 (written by ASE) 

4000 	 atoms 
1  atom types
0.0      32.100000000000001  xlo xhi
0.0      55.598830921999998  ylo yhi
0.0      52.130399999999995  zlo zhi


Atoms 

     1   1     0.13825397338700104      55.532731746281307     0.35327023663778129
     2   1      1.6205703981709827      2.9069785980580805      52.103915445104235
     3   1      2.2139086335574145      1.0760702218813054      2.2859175914034475
     4   1     0.13014234633511748      3.6272465750867462      2.4305664284555779
     5   1      32.085017317265631      5.5002596042044578     0.54922130121350721
     6   1      1.2265232892437929      7.9737576113873176      52.115590460313932
     7   1      2.0848756069389647      6.4007072099075355      2.8665829384261916
     8   1      31.801075516070206      9.2313104551778036      2.5909760913535114
     9   1      32.078577565558952      11.224781570828441     0.19122437513879242
    10   1      1.6967198501022513      14.284277128987837    0.072416745596791302
    11   1      1.7140539035579221      11.675871667007495      2.4790413682396921
    12   1     0.14632850701854175      14.268856757637078      2.6318140704250554
    13   1     0.29028880292189685      16.931130704733693     0.43399817228687376
    14   1      1.7655395096298143      19.433316316140743      52.119667106079923
    15   1      1.8799056118038271      17.664132209662554      2.9559055997436978
    16   1    0.091166866547599895      20.101744241814309       2.522088009300548
    17   1     0.30256072206673712      21.876951286115588      52.073842022595201
    18   1      1.6242101786930376      25.154975360298156      51.850073198766403
    19   1      1.6321581909323537      22.959628260454238      2.8399350138799684
    20   1     0.19042168410749302      25.443951409494534      2.3644760281158179
    21   1      31.939580157436072      27.708882101092286      51.971884173467004
    22   1      1.9646747302822132      30.707863580964219      52.107150251787139
    23   1      1.4995015193197456      28.421659410581714      2.2903157773150742
    24   1    0.058033370433908792      30.919204356904661        2.25667661556083
    25   1      31.979105228546992      33.247782879732227      52.095190303812039
    26   1      1.8281462895910212      35.810259139657653     0.08345574345779444
    27   1      1.1463571508423018      34.305444188812551      2.3539644847992718
    28   1     0.18375146382488999      37.171613317703496      2.5693838243095359
    29   1      32.086784179422089      38.878905737737895      51.933808469267703
    30   1       1.599993591676419      41.887441745464741      52.004286643328577
    31   1      1.4701221697678779      40.090907603878215      2.7699831850159682
    32   1      32.076984343009109      42.614407754946271         2.5301683311345
    33   1      31.974918462525416      44.744054267577859      51.957809867308619
    34   1      1.5537029782170355      47.089592947465221      51.937265754457741
    35   1      1.6894888076658408       45.98585140665493      2.2966410382582212
    36   1      31.439153127889675      48.176493819070899       2.819155287634346
    37   1        31.9004436946779      49.777027584935603    0.015953991032552493
    38   1      1.7605711033754039      52.987569813755051    0.064333801209481498
    39   1      1.3449279839831356      50.878559118514723      2.3087274829471158
    40   1     0.17253281992946451      53.581783623543352      2.8058203906572743
    41   1      3.5153037180753279     0.28361902781790166      51.755175944560918
    42   1      4.9479361986197468      3.0651772480817594     0.13048725372728412
    43   1      5.1657801610533767     0.73745399306961712      2.2658589206734581
    44   1      3.6826575881500885      3.6832673454471485      2.3936654458134425
    45   1      3.2933381081206008      5.5621039391303633     0.10506549572778331
    46   1      4.6787386093282697      7.9576117095768799    0.035755441929375742
    47   1      4.9740867860850786      6.4180501323250354      2.8362475126784732
    48   1      2.9783506033886629      9.2711039143798377      2.2914902787546079
    49   1      3.0646506834412826      11.444614881688169      51.984499749173416
    50   1      5.0824823967656085      14.357496383453197      51.837021600308269
    51   1      4.8490155803146413      12.044988125071873      2.2816968395543942
    52   1      3.4828309947399516      14.452863455411391      2.5394593870530775
    53   1      3.5082692273890994       16.94201292007121     0.41380001335404654
    54   1      5.4163995603499639      19.352214357600783      0.1794057129069643
    55   1       5.162609440342413      17.805002120958218      2.7199123437505901
    56   1      3.6711233099166476      20.336974299777683      2.7487931469596107
    57   1      3.5796830116582807      21.762322828838116     0.23112065311834257
    58   1      4.5788732592686658      25.411783784587325       51.49075673950869
    59   1      4.9414263361034312      22.982746905326128      3.0537184325957636
    60   1      3.5225070174750597      25.483357567973563      2.3154990628767926
    61   1      2.7456986828640662      27.706027140710027      0.1072043357587124
    62   1      4.9754770668900639      30.264681240830082      52.043794887528392
    63   1      4.9764797637415121       28.32302327091643      2.4264637141233716
    64   1      3.4156888452723586      30.884633067799427      2.5562268358738653
    65   1      3.1169732048249843      33.299864502640105      51.939405824610262
    66   1      4.9024645203706561      36.766983683595235    0.098870582579163757
    67   1      4.4332423111226316      34.196438108991394       2.644603928018376
    68   1      3.0279937286072638      37.261632875658584      2.4810087186761476
    69   1      2.9184065527999592      39.266436075076186     0.23650567673605485
    70   1      4.7673640847638348      41.714004384592094     0.19234390910804516
    71   1      5.1632384906239404      40.009369309942073      2.4780984642674424
    72   1      3.6384776033973969      42.580403546036223      2.8771855666580288
    73   1      3.2012059975442093      44.432914012503794     0.21276684317718758
    74   1      4.4348323347329419       47.50540450274768     0.32838577006029201
    75   1      5.0396868468296097      45.229938872595525      2.6056459275225632
    76   1       3.497994752215881      48.402660666364469      2.8784832388280446
    77   1      2.8980397639981934      49.918728984711137    0.025379418463531891
    78   1      5.0442201441781069        53.3403617811205     0.10475606229798005
    79   1      5.0858484001041013      50.992168054377188      2.4207302402013817
    80   1      3.2543558709166098      53.556811024831951       2.756373646441117
    81   1      7.0633397077469136     0.19657917780404496      52.117974292892654
    82   1      8.1580295950899107      3.0018789829918551     0.31384749611092472
    83   1       8.313785167103326      1.2866512348615207      2.8163410642892446
    84   1      6.8987796815639966      3.9827869561466946      2.6991459795598325
    85   1      6.4994705420911156      5.6390581166038185      51.919569211691915
    86   1      7.8312106994073956      8.3071278549588747    0.075716161416187491
    87   1      8.1673887125116185      6.8468774410189974       2.850364002623345
    88   1      6.3755743549483128       8.887249363828051      3.0073058120504701
    89   1      6.2189843035005063      11.600559411332863      52.004865217000635
    90   1      8.0808226644594221      14.389473765679474      52.058765666984861
    91   1      7.7683426545541048      11.738272738908657      2.1993265956338304
    92   1      6.6409802209417101      14.634701652596462       2.928791345893524
    93   1      6.7263171244778333      16.832394023363801    0.095187554937733607
    94   1      8.1370593545516527      19.544976814587972     0.19362934865584297
    95   1       8.286648365662975      17.579818298132704      2.6566624048241603
    96   1      6.7368862031826486      20.738564077962849      2.5791427506221982
    97   1      6.3575349084198969      22.975970129156391     0.32514030618071343
    98   1       8.167377027133087      25.073777572011025      51.788599488214082
    99   1      8.3796950052714596      23.285905588794414      2.6811855150245951
   100   1      6.5609332322833502      25.632894888512709      2.2126120247863215
   101   1      6.7054051795725407      27.749920703190725        51.7914657143399
   102   1      7.9526675447148687       30.64993924951019      51.790604171614156
   103   1      8.3103665437576648      28.876490622178064      2.2269990972118694
   104   1      6.2256764654556864      31.971495163031218      1.8936401148600608
   105   1      6.2178106290443464      33.889560985738079     0.24761269985362108
   106   1      7.9558883739118684      36.301605990892718      51.931923962388467
   107   1      7.9499949842045776       34.27235031007244       2.543705915838101
   108   1      6.4173099646272167      37.028422578958597      2.5328504903175117
   109   1      6.7479834393340221      38.993397943651573     0.10600273275995367
   110   1      7.5947085614527978      41.748600111735612     0.14654156752761766
   111   1      8.3907556941711494      39.509086103734106      2.9816164589733254
   112   1      6.8434939580342409       42.50220622668482      2.8940746203402976
   113   1      6.0203127774834169      44.232676438096753      51.701958603106561
   114   1       8.021193103988665      47.294862997413695     0.26748040967278169
   115   1      8.2910610966865139      45.205276094081533      2.7761869283896394
   116   1      6.4102713268297968      48.094861563731307       2.623677105913083
   117   1      6.2298754168565313      50.325157638541931     0.26385593967530446
   118   1      8.4140153082737132      52.983063209005074      51.951985046331579
   119   1      7.7371030122203122      51.347451355817626      2.6297168252365992
   120   1      7.2591183461433113       54.12158473933335      2.5768287850583835
   121   1      10.014519416910728     0.19492102359383426      51.818635757766323
   122   1      11.426284143056998      3.2805809945326923      51.993619189321478
   123   1      11.252714317764045      1.1752495477395355      2.8729553478838468
   124   1      10.041403533023839      4.1760945205191469        2.86679933193507
   125   1      9.5315663016155412        5.93371330935343     0.49049765415489649
   126   1      11.019378205087426      8.1244452807730543      52.097340523947182
   127   1      11.482199006941423      6.6779417890842172      2.6628109676802816
   128   1      9.5254467406196213      9.2356227991549549      2.2338498658902348
   129   1       9.533375853260539      10.922507955840187      51.890677706600108
   130   1      11.197963107271299      13.850881770408678      51.992800527607095
   131   1      11.129252068426014      12.098898890161498      2.6994531440195964
   132   1      9.7832656310138635      14.615488143135259      2.7065049264613288
   133   1      9.9334536350597205      17.167758431604636      52.054253254864086
   134   1      11.837348715859562      19.398642454421136       52.09221183880608
   135   1      11.583571127536135      17.308108782256618      2.7369987214507514
   136   1      9.9128105561592488      20.648318120328057      2.4949222451799797
   137   1       9.077772297510295      22.584182158698997      51.944299338464688
   138   1      11.172134943879103      25.343558902005565      51.450601698241172
   139   1      11.230938402200636      23.513457803062558      2.5999472156043186
   140   1      9.8451907311360838      25.726629622751084      2.1633798148225956
   141   1      10.086069860054382      27.890052599515997      52.043412824231346
   142   1      11.363728781693947      30.801166646974281      51.629268458218561
   143   1      11.545539750428617      28.833549939172279      2.3170844420524017
   144   1      9.4892973606824196      31.626418757446665      2.3027387473564449
   145   1      9.1413851446887868      33.662119355009779      51.958736671922985
   146   1      11.041269515689837      35.767394511066065      51.613134784377714
   147   1      11.444682553929027      34.251192337604451      2.3461878458315586
   148   1      9.6228223498004191      36.996794775134717      2.5498035720004748
   149   1      9.7205333839313859      39.225475836931359    0.078183944123129817
   150   1      11.049091407041864      41.699923043846297      52.000969356012014
   151   1      11.202955890707159      39.564803610393831      2.5509007913126815
   152   1      9.7822035466666062      42.277195977370404      2.5091973383108073
   153   1      9.5026096061005916      44.448307130854985      51.854329918797582
   154   1       10.80892471411584      47.182839401664189     0.22261584060522316
   155   1      10.846435610058807      44.984497252310049      2.5121741169849146
   156   1      9.2701185780227764      48.264880753831015      2.7969841063703944
   157   1      9.4383387046704534      50.077711311639575      52.110385079275154
   158   1      11.445710832023959      52.936729141076029      52.060321181316247
   159   1      11.086769855680577      50.812627608450263      2.7237477643815806
   160   1        10.0535767337865      53.646293511774992      2.4586065859081772
   161   1      13.192145272932729     0.34608372247735042      0.2707793624575085
   162   1      14.721702015400137      2.8910986685204554      0.4220971304748265
   163   1      14.654109964728663     0.68783770830993141      2.9472631215514893
   164   1      13.286899927274263      3.6238098596576949      2.8306219081614339
   165   1      13.041721417437659      5.8261999865231786      0.2748925831885311
   166   1      13.945260659563276      8.5423076972099476     0.13000101045961215
   167   1      14.743308462977131      6.5974556043582666      2.5598923812703345
   168   1      12.607920362871402      9.2519630319186081      2.9126235552209923
   169   1      12.518287085431883      10.927004557489013     0.21174887161237588
   170   1      14.756852048714606       13.76307803269731     0.28073339991272939
   171   1      14.308676071787211      11.903070949615339      2.5569074456202263
   172   1      12.706485191692227      14.437483230081577       2.480978683384643
   173   1      13.226891835592927      16.443165081830706      0.3659328875977732
   174   1      14.705835957509224        18.8481500805979   0.0083601005094718819
   175   1      14.160739713132472       18.28029932616834      2.6660411700725315
   176   1      13.444825317181021      20.869834788588456      2.4116777769523101
   177   1      11.945066719606453      22.729880388509919       52.04037805172284
   178   1      14.541242960738069      25.271005979650504      51.906755478073769
   179   1      14.780314547112171      23.532943621043064       2.160584386279266
   180   1      12.653080561404012      25.938191468733518      2.1070649624890261
   181   1      13.002390131189115      27.896340711528001      52.089151575560159
   182   1      14.324836791037329      30.340898864139604      51.825599586384776
   183   1      14.545228646475733       28.74657310846467      2.2977036001582665
   184   1      12.951178170833048      31.678180285082178      2.4799895231977915
   185   1      12.412361699313893      33.200526241922809      51.660302917711533
   186   1      14.024339979037233      36.151217501201913     0.50742096436628803
   187   1      14.550497911111998      34.300653875280275      3.0856111508384791
   188   1      12.634601992048706      37.219298381313209      2.7745107232352177
   189   1      12.673579762801694      38.805321793285422      51.809941113979491
   190   1      14.359923927154409      41.442283419731822     0.30750713784561873
   191   1      14.449097409023663       39.29202045823174      2.9045323269704619
   192   1      12.946499738650187      42.643551974032064      2.7103632857607205
   193   1      12.584154965927937      44.383810753546307     0.25214626153583553
   194   1      13.895095091444214      47.222308052618843      51.954212063177785
   195   1      14.579810957205694      45.126377787955583      2.3948250394023076
   196   1      12.453150714848546      47.629531864713975      2.6599684535326644
   197   1      12.749922576716248      50.257524547469473      51.701865496947654
   198   1      14.440004993145937      52.619901644516659   0.0032356623597601373
   199   1      14.298523450246304      50.866729999837098      2.7329946283351165
   200   1      12.914881024115557      54.033492574125304      2.6347283605647394
   201   1      16.382072370894988     0.37864659460468264     0.07812953028061291
   202   1       17.51512306085964      3.0463298233549603     0.22478567621091736
   203   1      17.980585793505981      1.1440294591744884      2.8998186082115169
   204   1      16.205960205123208      3.8476344687868065      2.7363667003030043
   205   1      15.915853621781492      5.8007797664399945      52.086380352106893
   206   1      17.550159257129188      8.3667094281255334      0.4204659684196132
   207   1      17.745153783936374      6.7948984742935297      3.0354766369455497
   208   1      16.067477850745771      9.3891359783073849      2.9615386736217442
   209   1      15.860470986632325      10.842255571194427     0.36701624873850225
   210   1      17.529641171339904      13.439899968684159     0.19352414647851446
   211   1      17.289598362294932      12.053149242404622      2.6288153257107858
   212   1      15.451653098381747      15.156724832396344       2.752443538482864
   213   1      16.292249423830892      16.290272109131035     0.26158076076357673
   214   1      17.832213404751457      19.402818980923268      51.913478153158714
   215   1      17.492036744810314      17.769498487364103       2.699434305005834
   216   1       16.35047820120009      20.773289677937107      2.1349884544247941
   217   1      15.975795723910593      22.011656898078442      51.429598353654704
   218   1      17.619773585530872      25.013465817771273      51.891782599196688
   219   1      17.962109337900163      23.456433209365013      2.2249468179472132
   220   1      16.103327840364326      26.038901275805827      2.5474764147520466
   221   1      16.107846524798493      27.672143405904496      52.051787232944136
   222   1      17.442559623394896       30.79661474655191      51.791498031239804
   223   1      17.961709768518784      28.501664945495016      2.4512690342084071
   224   1      16.124979092265054      31.535638875372239       2.776556919327017
   225   1      15.042465551900287      33.191168412048782     0.54846716244001048
   226   1      17.269347085395211      35.802248923332691      52.079907991872624
   227   1      17.348764901934921       34.33143557292599      2.6471426479163522
   228   1      15.964163035358272      37.046095636543185      2.7099326343184265
   229   1      15.701899839840729      38.809687194104548     0.18112924541517886
   230   1      17.355902844356677      41.716941502844328       51.97692892842565
   231   1      17.595314737858356      39.675545092134641      2.6913304292337683
   232   1      16.096609341790838      42.278339942955981      2.7407720994127951
   233   1      15.538474442657654      44.075995884709037      51.957302842076132
   234   1      16.939823496799931      47.000037403318473     0.12237264848142435
   235   1      17.545285492428565      44.792541735636142      2.4465095159340629
   236   1      15.775917368235934      48.041689343679046      2.5116122817147595
   237   1      15.626022641008749       49.84757097527595      51.947185988455971
   238   1      17.504654247123206      52.822910074656832      51.903138255686898
   239   1      17.451234708670253      51.037995694320195      2.1376358387375487
   240   1      16.030091386450934      53.824274699991491       2.730845051997087
   241   1       19.37064356126492     0.21810657770853603     0.25459197601128064
   242   1      20.378493295500192       3.018503005172938     0.11039349502198165
   243   1      21.011455725085071      0.8780658659036823      2.6653955430283469
   244   1      19.193718959270793      4.1955078584469323      2.7498335552741247
   245   1      19.195516746543472      6.1280265465199388    0.010756328414687313
   246   1      21.024785163900365      8.8213948586384614     0.29314677343923712
   247   1      20.852806584836706      6.6666264634278782      2.8036402075847926
   248   1      19.038841070864194      9.5842816496990366      2.9309167761313071
   249   1       19.19841836119916      10.843758629504361     0.42021997495324165
   250   1      20.756141717142988      13.704582710240045     0.19483313954364054
   251   1      20.319632010986844      12.046525659917961      2.9984795143633427
   252   1      18.761749777871739      15.060349832584157      3.0222769091635717
   253   1      18.922512638032121      16.680583621169315     0.50878426358276641
   254   1      21.068956168944549      18.754598356079534     0.12698090351295904
   255   1      20.995769924637003      17.531929972618418       2.779150446566081
   256   1      19.487936705547302      20.362205772940758      2.4052959984581888
   257   1      19.151631147416211      22.266597200678657      51.526371293667928
   258   1      21.191599470744816      25.000246708678926  0.00098318449772632219
   259   1      20.763654943633405      23.034131547124503      2.4023212302028711
   260   1      19.775105153957618      25.976834868173249      2.4019166829778875
   261   1      19.219223715244009      27.947141523420921      51.692359597366803
   262   1      20.576889117153478      30.744486104148056      51.797687146948896
   263   1      20.813593100660107      28.875232266178465      2.2514957426183528
   264   1      18.935838841445399      31.246552538818538      2.4064942212131895
   265   1      19.306796789441602      33.565656574509681    0.065848126707907323
   266   1       20.72016391105544      36.692544200067843     0.24965458493850121
   267   1      20.597447903750371      34.408195923989432      2.7613810820494282
   268   1      18.924766985166503      37.086057657014045      2.4844021700100525
   269   1      18.531891402226069      38.674303617951054      51.875119692117366
   270   1      20.436204612831744      41.365541303994483    0.038409234313852632
   271   1      20.522687597031076      39.721413149971333      2.4341090396023719
   272   1      19.084734490795114      42.587937723966519      2.5104732125706839
   273   1      19.267839979380103      44.228003870271877      51.955877882470332
   274   1      20.393107468013561      47.037062950555082      51.641963330948577
   275   1      20.555641176145901      45.382951179781102      2.4017845966979534
   276   1      19.237097992695464      47.911055452243573       2.698590491750676
   277   1       18.66921693293639      49.280050263785967      52.127149952060002
   278   1      20.805716148595419      53.312974004368606      51.757270815399529
   279   1      20.596163661940519      51.230923033174726      1.9407324256489826
   280   1      19.122130104536929       53.98664080937683      2.6107292920749496
   281   1      22.499488760717103     0.35623526088960111      51.958847399917609
   282   1      24.145011509854474      3.0369997878807276      52.107528415198416
   283   1      24.309527148056798      1.1043733171841366      2.5637412745395007
   284   1      22.517064007004066      4.0844054963932797      2.5171011636430749
   285   1      22.235913717043061      6.0891501768208416     0.19579739193350648
   286   1      24.209625985592698      8.3716817028300188      51.876359438252607
   287   1      24.277985526787102      6.6125106783383156      2.5148106783801087
   288   1      22.740221109514621      9.4844497147181706      2.5876088756520321
   289   1      22.966094904459588      11.096724980968016      51.924725090692185
   290   1      24.524935321386049      13.619740443601458      51.799792389911651
   291   1      23.934724487736965      12.246893768570029      2.6930231122979245
   292   1      22.760296204529929      14.820317038983525      2.5528171269908535
   293   1      22.641531065943127      16.152198539320096       52.02988701610861
   294   1      24.279175559297386      19.361431629276183    0.065664338819222193
   295   1      24.153818699027454      17.418939244566978      2.4699675229517428
   296   1      22.543975792349425      20.357236937293514      2.6778313716531259
   297   1      22.307879774406079      21.832582138887926     0.18112819887112883
   298   1      24.023529154582604      24.481193927951256      52.037497149696335
   299   1       24.04697213410935       23.24843145305092      2.4474111032023043
   300   1      22.875323184539706      26.033444622066281      2.6131099456011402
   301   1      22.571658774301611      27.870786540891302     0.08862560922657739
   302   1       23.99611814699615      30.383569239530765        51.8907975148635
   303   1      24.277884485004023      28.581265865282521      2.6714374423052627
   304   1      22.595821042605522      31.454144000395992      2.4014852205004069
   305   1      22.819823598747831       33.31358951704695      52.013884297977164
   306   1       23.86724887144231      36.223066886475351     0.49598314732301318
   307   1      23.923458651406726      33.993252494791776      2.6922376132185155
   308   1      22.532670500620718      36.667927378261268      2.7538998049549561
   309   1      22.397015925001465      39.138742912491942     0.14641342201177296
   310   1      24.338328271610845      41.561824806354153      52.118271188160413
   311   1      24.055211617065115      39.640833140884318      2.6212558328040436
   312   1      22.258154732766073      42.067188597921735      2.6539922440998285
   313   1       22.23870050872053      44.188866600432355     0.36105424131131081
   314   1      24.162701163108633      46.712064753690086    0.026251984583918433
   315   1      23.413427670885071       45.16321967765407       2.640796749627826
   316   1      22.215382776084184      47.953100515460477      2.0096330595691128
   317   1       22.54994013546969      50.490736534637968      51.917249611861031
   318   1      24.326145403442066      52.968480985799843      52.124031782188737
   319   1      24.012520490262528       51.32614414751432       2.513052592470514
   320   1      22.656149973641774      53.946861372246325      2.1739170764023688
   321   1      26.117669058596995    0.097486420818319167     0.19275673165018137
   322   1        27.0941482032542      2.7600396141670878     0.23711543968890467
   323   1      27.366337426790885      1.1213132889213169       2.632033349080444
   324   1      25.828220846153531      3.8926780087070081      2.6213062348232539
   325   1      25.697552813060408       5.661252303897208    0.065007786843943788
   326   1       27.50861896458661      8.5222034931323911      51.946939457413876
   327   1      27.456499294212243      6.5903265581067902      2.8097459118881742
   328   1      26.070231297514692      9.5386445599213623      2.1294275054935019
   329   1      26.157791226820997      11.373137192880284      51.738532484273932
   330   1      27.687820786920213      14.023600578502339      51.942359361831983
   331   1      27.418381031396027      12.056422340042579      2.5247861536073928
   332   1      25.768173795614896      14.607700508225662      2.4591139597456961
   333   1      25.686423955769204      16.433007059567309      51.795591346914691
   334   1      27.227205700693045      19.530408412381536     0.19777997269554462
   335   1      27.490157877711464      17.283461113405856      2.5786274855251219
   336   1      25.727822042893116      19.948436584032056      2.7131113250119818
   337   1      25.246360388069252      21.943325988598115    0.096251765696121941
   338   1       27.26885267342897      24.468327181421014     0.27319219655834798
   339   1       27.27372403075357       22.96978980006498      2.8421783378448797
   340   1      25.787033777004915      25.793019308315309      2.6536540845986876
   341   1        25.5827897662653      27.503637941727309    0.069554383726395094
   342   1      27.222303924356503      30.251377161599091      51.909772438735736
   343   1      27.446044835359309      28.466060423509997      2.7822773236926142
   344   1        25.3501364892381      31.411563208223679      2.4529519441942074
   345   1      25.957854587870052      33.225121825036176      51.957579649762167
   346   1      27.201781531891974      35.969044030999378     0.23501234449546288
   347   1      27.221371013666911      34.413433327815191      2.7239583551259305
   348   1      25.471288435321544      36.944418346209766      2.5915773021368049
   349   1      25.856636064570704        38.8274324644266     0.39670353838192718
   350   1      27.751141027745451      41.523912746587648     0.24650390462727392
   351   1      27.350662046977952      39.469417767448647      2.5412090892668759
   352   1       25.33461848883853      42.135786464653698      2.5992263464368905
   353   1      26.060733101339832      44.191406041569721     0.32624926874292648
   354   1      27.096823006894326      47.061858038165951      52.071994619971399
   355   1      26.623553767205678      46.125144847400897      2.3796704962670803
   356   1      25.377057835873892      48.545496772753374      2.5268294953173545
   357   1      25.647658157525782      49.857827361696678      51.997398497000461
   358   1      27.563657923406602       52.73644969319615     0.41017445636388178
   359   1      27.411544363560555      50.799729978290685      2.5806314085767301