dump/Fe_1350_0/steps_81 (written by ASE) 

2000 	 atoms 
1  atom types
0.0      28.699999999999999  xlo xhi
0.0      28.699999999999999  ylo yhi
0.0      28.699999999999999  zlo zhi


Atoms 

     1   1      28.617881209503143    0.097320535259859661    0.036179051378530953
     2   1      1.3574929662719113      1.4456710209549433      1.2120402566075774
     3   1      28.556820834938197      2.6574004966769387    0.012020453430750425
     4   1      1.3216537146992084      4.2453141921868882      1.2353844177856104
     5   1      28.693861734791298      5.7361950779584294      28.563739983287721
     6   1      1.5173537734206102      7.0279639626369876      1.3960531369931568
     7   1     0.10045845182984517       8.673191941947108      28.610896087130858
     8   1      1.3921479403740016      9.9468097888077409      1.4671743412001208
     9   1     0.24077591213896565      11.511483097307204      28.685571300624819
    10   1      1.3859094184121443      13.264400577249422      1.3797916107017714
    11   1       28.58222441213319        14.3398543157671      28.595724841758145
    12   1      1.4484484266170621      15.790826541214079      1.4374243249268719
    13   1      28.695647769756295      17.199026184039564     0.13387551128989802
    14   1      1.1996325014970939      18.827570475587191      1.1781768212504515
    15   1      28.262447879374307       20.42154931363438     0.07384471794706543
    16   1       1.325726281934908      21.638131222466363      1.2456528359572872
    17   1      28.433416995374035      23.465452613800359       28.67007257746161
    18   1      1.4202247940532879      24.578971202433138      1.1779368968941288
    19   1      28.524139509676445      25.935318116786334    0.085400184624847858
    20   1      1.4586640608916595      27.347506520774381      1.6720703431745729
    21   1      2.8689920260380544     0.34262576459417515      28.511343002334517
    22   1      4.4373650810676182      1.4142782201780955      1.4998263226601458
    23   1      3.0097396647274235      2.7393732008440352      28.492160521212426
    24   1       4.289347254436696      4.0870024194577868      1.5004278188048947
    25   1       2.987507983658829      5.7315658601409618      28.589585066521582
    26   1      4.2303597007579992      7.0951464102725579      1.5687352516628381
    27   1      2.8567080019230522      8.7118057656154946      28.634591450922418
    28   1      4.2448646744528684      9.7045743450064919      1.4764265919362389
    29   1      2.9694953598536618      11.338379678940166      28.678219003677118
    30   1      4.1291253392822096      13.027564908199546      1.3571980874196137
    31   1      3.0503862218389979      14.372356453609218    0.069308174963612149
    32   1      4.1949958663561446      15.896304356874854      1.5809944899551509
    33   1      2.7308632958960173      17.252119562715254    0.031378875508573913
    34   1      4.2995543604052715      18.564718223268475       1.363147243631238
    35   1      2.9801339327000975      20.063665191792946      28.609489880785276
    36   1      4.1130222640184053      21.507845124588179      1.4186481724256497
    37   1      2.9355026173125216        22.8479620878433    0.011033645331167468
    38   1      4.1926031789932194      24.134254648067788      1.3454006023289256
    39   1      3.1802890609521977      25.786151527515109      28.548925839312975
    40   1      4.4832740622161182      27.272832154082959      1.4942567959874382
    41   1      5.8442185508309725     0.10772051301642196      28.506044175582662
    42   1      7.0816640220954437      1.3302106335479833       1.132441209911053
    43   1       5.738937176314896      2.6945562448989469      28.688293998037025
    44   1      7.3014598463977283      4.1128708659575519      1.1551883094291937
    45   1      5.8361925651431195      5.6766418490986528    0.048155037057108496
    46   1      7.0677246649587184      7.1463697951110081      1.3743374062712401
    47   1      5.7258207461997515      8.6630129074498825      28.638839644148067
    48   1      7.1721441938930663      10.194443279802481      1.1973570682940011
    49   1      5.5766471671461533      11.588609953985397     0.26653100899495719
    50   1      7.5071605774108505      12.836991791579617      1.2630438304510798
    51   1      5.6346225773601715      14.442751621518081    0.041751675722764406
    52   1      7.1173009416334079      15.807475259678686      1.4448987189287321
    53   1      5.5817586927501637      17.239217643123947    0.099935993667111214
    54   1      7.2292977965563869      18.655346374198921      1.4720028942636751
    55   1      5.7444337193951593      20.031290351314325      28.535729360624977
    56   1      7.3491839515444237      21.417507273596787      1.2813586847270013
    57   1      5.7697486707397392       22.68368092914039      28.453700663332093
    58   1      7.2721904060102975      24.415339618819662      1.4732254960612736
    59   1      5.7898377594932118      25.468575118216648     0.11688830616108122
    60   1      6.8849095719560163      27.298343033857176       1.298617997437066
    61   1      8.5373060926090965      28.414812047318211      0.1092469321796103
    62   1      9.9165417356944392      1.2099945915692489      1.5318648506690911
    63   1      8.7278770975760995      2.7837491802426939      28.534622412205838
    64   1      9.8465424206110104      4.0756853642779669      1.3280314548917787
    65   1      8.6430873796174801      5.6694831708879816    0.041933664495127122
    66   1      10.116650819309848      7.3246104368999339      1.3621803830051149
    67   1      8.4454112217522503      8.6569984174526695      28.476578488567984
    68   1      10.131333644671454      10.067369919415457      1.3401107564106616
    69   1      8.8454951628028997      11.235177588709753      28.517136830503009
    70   1      10.177995878448721      12.724828494241645      1.3945725997926375
    71   1      8.5760832741504753      14.479232053189449      28.421937448517912
    72   1      9.7780032690432392      15.923210259195043      1.2391487115221012
    73   1      8.6027524625192999      17.354079118435578    0.018781863235085426
    74   1      9.9717617899334048      18.599958485632531       1.600386972422301
    75   1      8.5984852331318269      20.008532064330819   0.0067794623767440353
    76   1      10.034225457376108      21.376773627406315      1.4024686519800855
    77   1      8.8016222011671381      22.839812282842164     0.13075550037441405
    78   1      9.9237882200424536      24.324785308690959      1.7065525441249747
    79   1      8.7956538934451132      25.639415251917086    0.065653972786469686
    80   1      9.9885648545434957      27.340929457698515      1.6666847959649214
    81   1      11.485451210740916      28.544861908100135    0.013171021995219686
    82   1      13.067067894705614      1.4766006081280343      1.4040824796939082
    83   1       11.35672601408478      2.6620687761875859       28.55993276346479
    84   1      12.795474167927686      4.2514272956398145      1.2673935606236337
    85   1      11.291823550812074      5.8646696442240822    0.052956290196732342
    86   1      12.749705184560984      7.2630837724833146      1.3340217735288895
    87   1      11.397027136765034      8.5600755037887666     0.18048760703675273
    88   1      13.060060532669018      10.156616324936621      1.4227174068324202
    89   1      11.489084184927837      11.469075864536615      28.552620036505857
    90   1      13.054569179891024      12.984034918694299      1.3083004700630345
    91   1      11.617576909138418      14.404852951298606     0.17214783649975507
    92   1      12.866045183754817      15.701274377097599      1.5844975673907129
    93   1      11.505828366968395      17.313310094074431   0.0073206561326855943
    94   1      12.974124304953856      18.703093566528665      1.7322518748082403
    95   1      11.669576772298353      19.927839199828789     0.11533594883148912
    96   1      13.051631105624466      21.325921644064309      1.6159864124229324
    97   1      11.492994576674944      22.832569531510273     0.33906788191671805
    98   1      12.801162661227647      24.446226261047261      1.6289244232398925
    99   1      11.493212893438931      25.943631323408237     0.34903150089692053
   100   1      13.076216656665869      27.006609551566388       1.570120216811959
   101   1      14.590833559326207      28.430054856333584     0.11187176123027036
   102   1       15.88599266782232      1.5875402134159919      1.3753516283659324
   103   1      14.694939649282572      2.8957879647337905      28.668070041538218
   104   1      15.825575953882929      4.1933272923920768      1.5735108086160026
   105   1      14.242564686089951      5.6372798785610314    0.018928208997567721
   106   1      15.801553742547277      7.3000064473998352      1.5337765562556109
   107   1      14.326914288349487      8.5204564529954325      28.645948985681489
   108   1      15.746065721376116      9.9522092609169697      1.3388726071561121
   109   1      14.482292838121126      11.403454800288458      28.533378258719313
   110   1        15.9555669165007      12.891526530732177      1.4148414545733323
   111   1      14.476148492914691      14.436667840221375     0.10769954422073608
   112   1       15.99167442285092      15.487462776632917      1.5754669174782643
   113   1       14.58613892523276      17.118022298300119     0.34306069655252674
   114   1       15.91242943844667      18.686991448022521      1.6621280764651138
   115   1      14.572492527338005      20.118003258633852     0.14787790625932756
   116   1      15.750633698563513      21.447729758251473      1.7167375708356198
   117   1      14.248919507675931      22.860665572564802     0.18808166580328142
   118   1      15.876648644367558      24.400119243574942      1.7240967959703193
   119   1      14.535013402943143      25.691132456021037    0.059632326753558007
   120   1      15.735855811265109       27.14400876653794      1.5711091803416235
   121   1      17.463468627914356      28.677776945262085     0.25994967781155093
   122   1      18.940075292481001      1.4430014414196417      1.3892509932032109
   123   1      17.292535465798753       2.988443957858212    0.039252770851669526
   124   1       18.82393369011908      4.5227374690934399      1.4124260243715057
   125   1      17.217288995579239      5.8114295109163825    0.079778821996637703
   126   1      18.651595117733493      7.3926713708870899      1.4677248727951557
   127   1      17.455542840567176      8.5578537174280758       28.69027138104363
   128   1       18.69083088127098      9.9114505998087186      1.6495866938874433
   129   1      17.446210580888309      11.238800854813192    0.058057218581382131
   130   1       18.61941058412657      12.836573918637967      1.4424351809977101
   131   1      17.203983842563762      14.305352738142899      28.634454576492104
   132   1       18.65524799591692      15.626540874573909      1.4684080391989593
   133   1      17.342237625995075      17.290416096445373     0.16590433770186347
   134   1      18.717704816615665      18.706254625299248      1.5158538666592001
   135   1      17.361668771149404      20.031537126708436    0.068530687685972758
   136   1      18.851456995596358      21.387569181889141      1.4860374223412345
   137   1      17.158815819712036      22.930139091762353     0.24534985724162642
   138   1      18.544603744807752      24.213735616170165      1.5569546948577682
   139   1      17.311199937147421      25.728379390895324     0.18821737977364142
   140   1      18.839679019160283      27.309323938755185      1.5342033961981532
   141   1      20.235838895114483   0.0043283773275561536    0.081622579968472914
   142   1      21.435225969842133      1.6340107296283923      1.4117988392641678
   143   1      20.344535899505278      3.0365686228513877      28.587844618218444
   144   1      21.427885527216635      4.3400618079573769      1.4415875242836027
   145   1      20.111562323504181      5.7537165049508303      28.519312681939059
   146   1      21.615947815239984      7.3108816431162369      1.3013083941386399
   147   1      19.853495153563298      8.6517961725159243    0.097219062761644257
   148   1      21.793594370287014      9.9788832207604408      1.3888729127039818
   149   1      20.157223713428259      11.358459084528315      28.579206043574658
   150   1      21.527376987128029      12.897358767150443      1.2621188742269975
   151   1      19.884928129350559      14.291262525413975      28.634769280281311
   152   1      21.520236292458474      15.572180211296484      1.2842634935427424
   153   1       20.18989714019812       17.01711231281751    0.062311771747533815
   154   1      21.537040199024219      18.286734016145097      1.6172067063224986
   155   1      20.236000970601122      20.022627035404824     0.05239014010353446
   156   1       21.55225833559475      21.621187160100824      1.4197763909807561
   157   1      19.989138927007463      22.902195654146123    0.063545369917369476
   158   1      21.381718623990505      24.560413502924845      1.3530532045674375
   159   1      20.216299316777338      25.954587945351463     0.05863280339309529
   160   1      21.777817993750396      27.280939494767171      1.4916383039119849
   161   1      22.884149075767898     0.02372589120127486    0.045346508593831922
   162   1      24.364461539417253      1.5252153337933791      1.3235156101744572
   163   1      22.844987042478309      2.9645446913858837      28.685194859845357
   164   1      24.399726009864349      4.3969312925427353      1.5368206091141707
   165   1      23.105034788245792      5.9106880868208922     0.26078704754427212
   166   1      24.576480173142475      7.3647613778728926      1.4870295365794377
   167   1      23.051924823791669      8.6650355593350934      28.537674983270378
   168   1       24.49639652884386      10.073057460228737      1.3991879278934218
   169   1      23.024699119807313      11.572729824293733      28.589634229057609
   170   1      24.127998609714727      12.941395987828372      1.4050148911144227
   171   1      22.960560572102267      14.288489713370598      28.438194820138321
   172   1      24.331795724843815       15.70827561299865       1.450409299557156
   173   1      22.944003035444666      17.003898192746497      28.667386588039562
   174   1      24.263206756841463      18.535998842503766      1.3953381868435837
   175   1      22.835634596634964      19.932943201913083  0.00036435576339499676
   176   1      24.261954984552951      21.691073761410383      1.3268691494794096
   177   1      22.623744666682313      23.125891377741791      28.553663839722915
   178   1       24.36288243438165      24.281849109794777       1.409061647051647
   179   1      23.044151569843251      25.637970037187774      28.670258194123907
   180   1      24.486226670601464      27.380599180563056      1.3530212095447836
   181   1      25.762535244768131      28.678482526185945    0.010836107173531661
   182   1      27.073718094158714      1.3896232845566721      1.3255599764177428
   183   1      25.637287132611601      3.0455987239294449      28.682601899838534
   184   1      27.183144717144636        4.36047943101463      1.4709618084993612
   185   1      25.777623052372331      5.7428963927060916      28.424178663664421
   186   1       27.37740902513573      6.9651548511311079      1.3777586629374816
   187   1      25.824081524004711      8.5467299408795423      28.664449128245394
   188   1      27.269121187713885      10.078940917764678      1.5558723323586028
   189   1      25.838553952716868      11.443670145090055     0.24231449967002172
   190   1      27.141006021639324      13.076446498371151      1.2192630935835502
   191   1      25.609076622269491      14.380815324323637      28.620708831676112
   192   1      27.174556662821942      15.731556428416081      1.5619208421851223
   193   1      25.624477853669813       17.25737443945636      28.567844588419433
   194   1      27.037130527234929      18.664365518120494      1.1970660870210181
   195   1      25.610623288484497      20.141123539127538      0.1369471456008797
   196   1      27.163591240904449      21.766308138055457      1.4180903758430878
   197   1      25.742522052260863      23.042269503724704    0.024273284881257955
   198   1      27.274438904871239      24.578301813674926      1.5764410658467669
   199   1      25.622104241575194      25.728231048298287      28.680330527433682
   200   1       27.32899926863395      27.221470483783296       1.648291290953851
   201   1      28.535358721659154     0.35519602248593751      2.9410201516790027
   202   1      1.3761048106974143      1.4126157208787056      4.3369855629696543
   203   1    0.026990698418649442      2.7678242334169219      2.8275628537935398
   204   1       1.614530166056908      4.0558878326479375      4.5974404671874245
   205   1    0.028488751096791103      5.7341913734816714        2.96844701460292
   206   1      1.5043405155722429      7.1031698463826176      4.2190808946059635
   207   1     0.13626008258681929      8.3830914785563682      2.8705488904957628
   208   1      1.5612834576539627      10.127074812392292      4.2045325569715821
   209   1      28.659063147682076      11.587275309512398      2.8571427021205853
   210   1      1.4607434887149462      13.096294455005747      4.4589087164055039
   211   1    0.086090790358026525      14.588312683610651      2.8660108385888878
   212   1      1.5513519455815068       15.87242283690029      4.2228367828030375
   213   1    0.023893696887729538      17.150835544477101      2.8141633232715879
   214   1       1.366591789650909      18.831381934106684       4.341937927842026
   215   1      28.537623946561936      19.834788319420085      2.6463698813661498
   216   1      1.1940090233756244      21.697941811948802       4.309922279550233
   217   1     0.27069933064389201      23.217815908172092      2.8797372789028133
   218   1      1.5135491277705577      24.694676403745696      4.4898017738016085
   219   1   0.0092037343103260581      25.780538308236519      2.8152689076524875
   220   1      1.2727569923157172      27.161641621413587      4.3942104550786816
   221   1      2.9235027770407052    0.075478880302910251      2.7977272172289536
   222   1      4.4217266969688156      1.3637631044145571      4.1443195536377111
   223   1       3.006838276011059      2.8532356163266162      2.9312329840709355
   224   1      4.4219849648979723       4.300177392468159      4.3266839128464687
   225   1      2.7215575012265956      5.7023439194283059      2.9165595664280963
   226   1      4.5157558334895658      7.2930030892775939      4.2220198934360473
   227   1      2.8445115254425772      8.5655717326732539      2.9626237337559327
   228   1      4.2416156435983003      10.144172658502146       4.091244571415281
   229   1      2.6807401015889147      11.684898437679463      2.7956103311628215
   230   1      4.1120588267479237      12.993858595836864      4.0763491810142387
   231   1      2.6597989645652769      14.609983361665817      2.9223489239042997
   232   1      4.1290244007040853      15.847869517265778      4.1966853200182781
   233   1       2.684431419005763      17.543697274443989      2.8874171289092279
   234   1      4.1674037225196683      18.667999295771658      4.2516830233097842
   235   1      2.5116362460027073      20.190758474134984      2.6727734698980155
   236   1      3.8810521025097486       21.56643015813259        4.06335604050133
   237   1      2.6747044537584665      23.258139420123083      2.8590188781974124
   238   1      4.4110788277927648      24.415720544256253      4.2396265647328661
   239   1      2.9260465604552781      26.081005338131003      2.9153291149861689
   240   1      4.5069807636081052      27.263592498621065      4.0344631813215539
   241   1       5.872671500054814    0.058380098894872438      2.8027933139802945
   242   1      7.2113099641108764        1.47454111198946      4.3515570684242659
   243   1      5.9022016520905352      2.9849897060292792      2.7112912587405371
   244   1      7.1348124533668251      4.3436124494690755      4.1009369234778044
   245   1      5.7789954474720675      5.5820440457699272      2.6833044696911421
   246   1      7.3854440475899681      7.2100977592547189      4.2375657674859077
   247   1      5.9043039639607064      8.7982857983870293      2.8479333598158281
   248   1      7.2674889626462873      10.154491608342969      4.1870344187061708
   249   1      5.6116177859427845      11.717289048628258      2.8321101731769547
   250   1      7.2230753952851607      12.859452898550487      4.1730835947942904
   251   1      5.6912977155295721      14.460671809255331      2.8857436820949371
   252   1      7.4029043461865198      15.700399556838581      4.2940606697733505
   253   1      5.7447348475410882      17.278170087489567      2.8959326670307726
   254   1      7.1538644167411727      18.638182941889042      4.1834560054254544
   255   1      5.4307032914177871      19.952927040402773      2.7990377642217008
   256   1      7.3249644138957537      21.225282832750665      4.0730863018513705
   257   1      5.6086342316561284      22.796294245752293      2.8088544362597405
   258   1       7.237416035069371      24.569624874362763      4.1732239022757147
   259   1      5.8406942135307753      25.659331350890987      2.7925304230158172
   260   1      7.3587486396175841      27.108129497910827      4.3756651538751585
   261   1      8.4584790272402444      28.589786736593709      2.8461939105156486
   262   1      10.229264975697832      1.1720001774329944      4.3074040921178707
   263   1      8.8283161628033699      2.5953497516805206      3.0846028567975594
   264   1      10.233337106666175      4.3128500879588394      4.1283177297480496
   265   1      8.6957088532395286      5.5453267866796443      2.7487436277944082
   266   1        10.1171302455503      7.2226954882114356      4.2563139561722654
   267   1      8.5503900484695237      8.8007842453974483      2.7560691858978981
   268   1      10.022185579357132      10.107344109721781      4.3620151062508539
   269   1      8.6860350263612229      11.553052007225379      2.6506681220481809
   270   1      10.053098232720673         12.912412209511      4.2069123651205684
   271   1      8.7819764482963478      14.445596583547818      2.6440135275416425
   272   1      9.9523438431515476      15.825328088530059      4.5107440735381852
   273   1      8.6386948903916263       17.13308635852384      2.9443187162781439
   274   1      9.9712964093459604      18.658979943118204      4.2999975358652858
   275   1      8.5708622419604019       19.97106255426576      2.9799172608991942
   276   1      9.9357109779868615      21.430355324542973      4.2938925849631167
   277   1      8.6188132292165509      22.840671556645905      2.9785346935059787
   278   1      9.9972582040360596      24.416807298993383       4.407791981498991
   279   1      8.6205391320087514      25.903067005792479      2.7060451995407004
   280   1      10.000315759397067      27.075244937507048      4.5122658355850476
   281   1      11.726636611797062      28.619405024470694      2.9789984040458215
   282   1      12.994507132849522      1.3567001174686775      4.3118675063267773
   283   1      11.440856508772514      2.5942473638735111      2.6480658855121408
   284   1      12.868046850859843      4.3081493887933773      4.4333878100908386
   285   1      11.333323464548858      5.9219844105583217      2.9015587348659078
   286   1      12.935333749973825      7.1254741921853322      4.4623435121731543
   287   1      11.475005910045819      8.6523634866304509      3.0764801684579788
   288   1      12.918022581072297      10.055690415018249      4.1769224348406366
   289   1       11.49657538996942       11.51435291887959      2.8583442497836478
   290   1       13.05656318711687      13.019905565203009      4.3991528675939033
   291   1      11.297142463039664      14.470656296980346      2.8495838703162231
   292   1      12.778963941248199      15.569100782786149      4.3129501175468601
   293   1      11.440230160341597      17.078368142834815      2.8645585424280728
   294   1      12.851933861730275      18.587179593270964      4.3790197765414547
   295   1      11.501917806142352      20.079336397926387      3.0433942422850135
   296   1      13.024407188271265      21.693259891935092      4.4147850891343987
   297   1      11.460998384930617      22.714570148249013       2.938588505786496
   298   1      12.787628117257865      24.405659213286405      4.3150215215927892
   299   1      11.493808411171972      26.017008215410822      3.0092193475894646
   300   1      12.931309241675228      27.158637360827779      4.3786326476504858
   301   1       14.42374462553032     0.24486849033265812        3.03185481593483
   302   1      15.731830318876233      1.5971883070031259      4.4362864189955751
   303   1      14.311696094604713      3.0900444658201098      3.1023757111321189
   304   1      15.993284483018268      4.5752789120391819      4.2508374797266422
   305   1      14.144138055035997      5.6707772902573375      2.8895796605896731
   306   1      15.759118449046539      7.1012873563399328      4.3828975966584771
   307   1      14.157729076057207      8.6561344282196391       2.815663823277522
   308   1      15.572080264114058      10.136071790539201      4.2204120538408185
   309   1      14.540486760825466      11.737218147748976       2.805249867176518
   310   1      16.043625003708385      12.749856454657573      4.3232379598695285
   311   1       14.32778853257531       14.25284516345906      3.0448817057735713
   312   1      15.646878623403436      15.918950548834383       4.543857075072026
   313   1      14.130618003724496      17.088516279831364      3.0510688995192075
   314   1      15.890140858852888      18.355762673808083      4.3112740633214415
   315   1      14.337509146729184      20.205453399968619      3.2331450437976992
   316   1      15.772452504202949      21.481414538836532      4.4001739410526737
   317   1       14.16333814715292      22.976394832487717      2.9061244515280551
   318   1      15.819047896099983       24.28836202975052      4.1403648652631375
   319   1      14.408929382921027      25.843968184366091      2.9671060855783344
   320   1      16.069644107036378      27.291512750468375      4.4052048818765348
   321   1       17.38424074392212      0.1489330887526992      2.8887750426628078
   322   1      18.793298156698349      1.5551568721988485      4.0897287638800215
   323   1      17.267117749053543      2.8377658582276806      2.9936355811273763
   324   1       18.64577097550081       4.440888137495393      4.4397853771894153
   325   1      17.225391271191192      5.7971730737576914      2.8201653307312657
   326   1      18.655169982102276      7.2526606506141418      4.2775903241020785
   327   1      17.195152855904674      8.6156460697701309      2.9658366804879814
   328   1      18.587785749599071      9.8785724267710524      4.3822105433969574
   329   1      17.190098108754338      11.359475547460459      2.8275713921131236
   330   1      18.865151991950569      12.784134600070979      4.3132148649512905
   331   1      17.363603162896514      14.348197805691472      3.0947796651595705
   332   1      18.878218466214399      15.560962678053517      4.3951327677363912
   333   1       17.36775406839762      17.083360726739475      3.0341119996156172
   334   1      18.882172043493725      18.586054489964152      4.3773788736560091
   335   1      17.380812610422286      20.081208271975484      3.1084594173221602
   336   1      18.832813820818959      21.286908236531659      4.5516505504885494
   337   1      17.463888462948127      22.901602620193042      3.2508817232317795
   338   1      18.820790987473384      24.354336270352597      4.4485661320285539
   339   1      17.487177491712295      25.822872347132922      3.0948834719780969
   340   1      18.896999407721317      27.328424465748672      4.3946607591994136
   341   1      20.284825593366318         28.686679270513       2.962899639792258
   342   1      21.584565585289603      1.6451518118393991      4.2653058772473313
   343   1      20.094606893066825      3.1023170320282798      2.8836762346395322
   344   1      21.722807657009749      4.6145099802854155      4.4165799516884929
   345   1      20.111554962749832      5.9258154788926083      2.8391159032103461
   346   1      21.475672124741912      7.1277198385000453      4.2699331740677513
   347   1      20.210419750742076      8.5547724878127607        2.90319224599707
   348   1       21.52181528264963      10.080701228083345      4.5456221373569461
   349   1      20.331101572846173      11.577963482660119      2.7987837744005906
   350   1      21.657764941129603      12.998152684939443      4.4112520652981058
   351   1      20.184618899933323      14.274243897670697      2.8267419000327103
   352   1      21.566062953248913      15.694460863333614      4.4614417991043176
   353   1      20.270574607645806      17.119138926145432      3.0932631008280715
   354   1      21.579040082701674      18.770153732327227      4.0066103868089922
   355   1      20.147440030529769      20.044446694034722      2.6436366225847223
   356   1      21.571921347433925      21.549305384291067      4.3554083390380578
   357   1      20.077313670771346      22.825297847696561      3.0106304019177266
   358   1      21.636003100495142      24.517316433322382      4.5212413192025842
   359   1      20.388891749483015      25.794909600709371      2.9962732027708103