dump/Fe_1350_0/steps_1 (written by ASE) 

2000 	 atoms 
1  atom types
0.0      28.699999999999999  xlo xhi
0.0      28.699999999999999  ylo yhi
0.0      28.699999999999999  zlo zhi


Atoms 

     1   1      28.488483202814837       28.53408181773715    0.092434602683647352
     2   1      1.5265939615398685      1.2856431863298785      1.3461337960233082
     3   1      28.530267540815146        2.81936378264087      28.612708967833044
     4   1      1.4670592968059857      4.1216808618720506      1.3904045246034917
     5   1     0.14777010020859718      5.6415417808854826      28.625827383289504
     6   1      1.4371247314381315      7.3186464748424767      1.2096881857200839
     7   1     0.20501690880691065       8.659765379661982      28.507404605215729
     8   1      1.4884996379556006      10.178298908794631      1.6329027285868729
     9   1     0.30764084020283156      11.683724830877383      28.639227210151478
    10   1      1.4455559499982553      13.004963384058003      1.5340981153715916
    11   1     0.11370194693748858      14.748992697160231     0.22874506352544591
    12   1       1.673521095937101      15.961105897508261      1.7950520051297538
    13   1      28.607516783342252      17.166417630760574    0.058596153107396298
    14   1      1.3959351819355794      18.573234322662255      1.4830535950159396
    15   1      28.569866307856532      20.013249809748888      28.675695181847644
    16   1       1.424149266326334      21.565678248637212      1.1589254090025514
    17   1      28.551046068820327       22.85539740492117     0.02614152763567288
    18   1      1.3967640177469896       24.25906884609374      1.6378443759171533
    19   1      28.299889154209101      25.768446853831804    0.052089667626228069
    20   1      1.3519814264027918      27.078626070101919      1.3636733856101377
    21   1       2.768613599282288      28.487447235910238     0.17822470817812935
    22   1      4.2703061182316313      1.5258145348857848      1.5402784784393579
    23   1      2.8010899367595914      2.7725732167807902    0.020815194109002275
    24   1      4.4608625317946098      4.2823760501609947      1.4553403219765859
    25   1      2.9559946131926611      5.7234791131889278     0.17724795900240897
    26   1      4.4348581371426619      7.3377619518556649      1.4095261517926245
    27   1      2.6884406795269244      8.8224071097713406      28.617763437476288
    28   1      4.3124283016328251      10.019835330114049      1.0702467359504111
    29   1      2.7298611428785566        11.6126635131257      28.699270703481972
    30   1      4.2572955125112601       13.08814247296163      1.3997117775803183
    31   1      2.6403914781800153      14.542256362178172     0.35324443088281987
    32   1      4.2856403885938459      15.966894334522282      1.5501566340923303
    33   1      2.6903397840542547      17.118274902936715      28.619415096372393
    34   1       4.499563148063193      18.547875294828916      1.2922925951086193
    35   1      2.7513147228431656      19.878213193448303     0.21718246609549402
    36   1      4.4505690359025385      21.449054648677773      1.4843592649722959
    37   1      3.0166294043403838      23.092172593687206    0.090658264380635886
    38   1      4.3817056920673343        24.4555212249028      1.4286283987286301
    39   1      2.7829736529135323      25.544727333747044      28.670942807472375
    40   1      4.0407153426705928      26.921501178231562      1.4696324190497765
    41   1      5.4875583447901537      28.532630639267357     0.28343772975666742
    42   1      7.1977987922068207      1.3728981397171658       1.582547051044104
    43   1      5.8965637578465691      2.7527107798278849     0.24975694798621367
    44   1      7.5517859588425313       4.249878509402766      1.5454661047471872
    45   1      5.6232519938334882      5.6690904797276227      28.525766409705586
    46   1      7.1014904467174755      7.2513555330225277      1.4405696408698287
    47   1      5.7798843589818745      8.5883251263389244      28.491774071958705
    48   1       7.366862385045601      10.137703815615998      1.0372006683831601
    49   1      5.7029495064315947      11.390061274822333      28.558542359959745
    50   1      7.0633223661009055      12.762910599145485      1.3319112364026975
    51   1      5.8775880870522341      14.310995531192729      28.655419122209793
    52   1      7.2950076673005544      15.627359698308908      1.4933248972819797
    53   1      5.6663002399208109      16.957043015226414      28.539561303477772
    54   1      7.0880298072787014      18.548981103965364      1.3625697489780568
    55   1      5.7613544818749043      19.937670002450822      28.405367551735328
    56   1      7.3147450945259695      21.375958195465763      1.3972359053674268
    57   1      5.8927194884317222       22.84106344833571    0.096575268024719121
    58   1      7.0187908583779146      24.407622320727555      1.5843952841293336
    59   1      5.7461045257231511      25.766245141515579      28.666036628095569
    60   1      7.0374809922799733      27.111333052973912      1.3858390128622662
    61   1      8.7638837868487496      28.562822232441224     0.16783993395853242
    62   1      10.257360427145871      1.3086916016415659      1.4840347893915917
    63   1      8.8720378336628034      2.8663151378979483     0.25850355748217457
    64   1      10.073312194884624      4.4865817742464076      1.5656589671592196
    65   1      8.4508349484461327      5.8241020152454297    0.024968873069030898
    66   1      10.126770444042133      7.1907309476219554      1.5697876368624395
    67   1      8.7123325161545502      8.4542844480347306      28.697232214663103
    68   1      10.158142601449661      10.119848241744373      1.0758430670237551
    69   1      8.8092813500524603      11.727609548337536      28.598066441281105
    70   1      10.186257313333844      13.004653866216836      1.3944496471312275
    71   1      8.6583555607616969       14.32424592179073    0.064692174025265045
    72   1      9.9757775851366084      15.946471628434233      1.3416432185044171
    73   1      8.7806573859314039        17.2500110708209      28.611973806370859
    74   1      10.069715724842036      18.644887659253946      1.5571606211705775
    75   1      8.6783414213498915      19.974130892790537      28.530793209053286
    76   1      10.000188535897134      21.775550422949209       1.452884279244073
    77   1      8.6193434002334577      22.901119511705829      28.681173733857865
    78   1      10.241871770440376      24.334171619386556      1.5255439508159827
    79   1      8.5601272420295551      25.644814342750401    0.090521936890638838
    80   1      10.039845141434252      26.967169268467828      1.3883844374681511
    81   1      11.556114176578101     0.10398181769621714    0.016108183904418642
    82   1      13.088959585589826      1.5540202738348412      1.5603734369692339
    83   1      11.852437026524804      2.7697711877840336      28.646540749519676
    84   1      13.043355184068341      4.3411984950306959      1.3571515141388084
    85   1      11.420371179228903      5.6033299100005411      28.562297727072632
    86   1      12.743055738237054      7.0618992360882125       1.161472004768791
    87   1      11.583987990221763       8.616787920788763      28.601217360984993
    88   1      12.858709688391205      10.005508528360293      1.3383295214617543
    89   1      11.704018980613252       11.49421428089299      28.653427604741342
    90   1      12.932762766213067      13.069023593497636      1.4590799690950131
    91   1      11.172108980584468      14.342265162526921      28.460559497065436
    92   1      12.800290284283152      15.890266186156413      1.1919262749165331
    93   1      11.431477809487017      17.364868916250639    0.048347077996049773
    94   1      12.816033381045232      18.814136436215421      1.5502798576193639
    95   1      11.473975047148645      20.100868988879753      28.685780243226461
    96   1      12.944062571136225      21.705820443453089      1.6611654390959061
    97   1      11.523047516384803      22.926664510818597      28.653306352057314
    98   1      12.942547764804711      24.403515110220695      1.2151451447341737
    99   1      11.464278736136569      25.948253311786516      28.588665222620179
   100   1      12.928520814451959      27.229611670101797      1.5173456249614103
   101   1      14.308743359570018       28.69726687119433     0.19700150023296584
   102   1      15.502484680692742      1.3148842376079182      1.6818934817410409
   103   1      14.457939895228925      2.8230614214040548     0.14872496920686445
   104   1      15.678374650798983      4.3192543747115657      1.4860089820350586
   105   1      14.571947979466536      5.8791709242392844      28.649783287054863
   106   1      15.661272308569767      7.3090525384602953      1.3725286435007538
   107   1      14.072390134258274      8.6907811253501475      28.652048801626851
   108   1      16.020296226128885      10.005267299127068      1.4390550380399079
   109   1       14.21031819115646      11.443069310183573   0.0069112874827624137
   110   1      15.432071322886234      13.115007189925329       1.343253630380103
   111   1      14.167365236982022      14.446072078399675      28.507233142318086
   112   1      15.524700002177383      16.023563703703566      1.4420441383960667
   113   1      14.068653084429748      17.656338975153609      28.517368554653558
   114   1      15.597834775745506      18.726754952124416       1.385654164055518
   115   1      14.122893608934181      20.145038162627909    0.080555727266880664
   116   1      15.791146747359297      21.406039469189182      1.5508355825641273
   117   1      14.225765973024028      22.855620302500618      28.643609302948164
   118   1      15.765343022058619      24.079753909722342      1.4254957461743636
   119   1      14.389329509520122      25.776964011985353      28.624069036063041
   120   1      15.709633806655878      27.205648970846386      1.4540827970498964
   121   1      17.192793184455919    0.047854253679474733     0.23260977617197789
   122   1      18.681604979482806       1.335025770465962      1.5293143741041828
   123   1      17.179425538497384      2.6904412429759073      0.2293118517431478
   124   1      18.521501071039474      4.3868070363169833      1.4551336055933699
   125   1      16.987105699628493       5.859828841757464       28.60771897713164
   126   1      18.466575326249693      7.3410513011864706      1.3534178897182538
   127   1      17.314890554684531      8.7483796097937514      28.575890739048816
   128   1      18.581010116249939      10.215524306148767      1.4558966188890736
   129   1      16.871138998688686      11.516834560067545      28.645717939218674
   130   1      18.557725394570891      12.977174210214308      1.5101846256416014
   131   1      17.081742444007919      14.386078458012452     0.23527168509019691
   132   1      18.847766471923865      15.959416763415749       1.498178812697359
   133   1      17.061490411970656       17.34655310316473    0.036828988020170067
   134   1      18.751231534715366      18.893624429416832      1.3452381965314764
   135   1       17.16680858700537      19.914066316821557    0.062820932380964228
   136   1      18.678217664553731      21.408496983782808       1.444444278456102
   137   1      17.261964800912658       22.95941044407946       28.60732045647919
   138   1      18.744997669351033       24.29827473477091      1.5579547127463687
   139   1      17.200582073311178      25.788625467559104     0.15512624672659275
   140   1       18.78292657598632      27.021984999013885      1.4161591222328986
   141   1      20.026147232564988      28.593036246580827      0.1910283272728634
   142   1      21.626356539457451      1.4977765975903483      1.3726108696842847
   143   1      19.769157425888043      2.8501357615707992     0.16210856643452878
   144   1      21.179462387549044      4.4279203924518562      1.4350607470500794
   145   1       20.04203458185847       5.921830817195838   0.0076816344286157754
   146   1      21.435174599369223      7.1470151503760002      1.3206338892889571
   147   1      20.047147735954898      8.7714281031616874    0.065408408600456006
   148   1      21.568840000145237      10.128640874365338      1.4715853441707845
   149   1      20.003867443248392      11.519820691558213      28.518859275259118
   150   1      21.490874374356586      12.946775634969681       1.458508413944515
   151   1      19.980264023893991      14.448085543246478      28.636103813353735
   152   1      21.360283603211915      15.700167737350284      1.9080311905559137
   153   1      20.064245413635124       17.19712877523164      28.651235818369813
   154   1       21.63165960322063      18.797103207609233      1.2444757925035892
   155   1      20.116562407090409      20.031673954312506      28.462607874427366
   156   1      21.417848215970938       21.53503566493502      1.2723543545244294
   157   1      20.188530623070999      23.211273519768678      0.2202829872350322
   158   1      21.591695871672957      24.516294123101144      1.6252689759311809
   159   1      20.160095627664013      25.796052827757045        28.6807784011867
   160   1      21.316792705721191      27.186901935949159      1.5820297085859589
   161   1      22.811107530961401      28.544742713469194      28.566977343133047
   162   1      24.074545257336901      1.5707356719135193      1.4053374268325227
   163   1      22.912996420935613      3.0512927895808781   0.0042321816744333701
   164   1      24.253574707650632      4.4202265078501464      1.5074386616226538
   165   1      22.815322539521834      5.7907648556098561      28.522345439142299
   166   1      24.191068397679452      7.2866171765723848     0.93961608794131857
   167   1      22.944408829471698      8.8453632668416287      28.619148824957293
   168   1      24.454868202208523      10.318133718225971      1.3005286774597025
   169   1       22.80173994218455      11.641739323956593      28.539926320283669
   170   1      24.545483809492207      13.108084013185454      1.4225119483187882
   171   1      22.745886955345565      14.403949928399907    0.029111075716718865
   172   1      24.247739432699323      15.842173540637411      1.2971243383444284
   173   1      22.640358578415409      17.109357478527809    0.092777553687437689
   174   1      24.206485270916851      18.593970545269055      1.3389415044514523
   175   1      22.925745159995028      20.212379920144809      28.606986009509356
   176   1      24.203277040136143      21.646892375752124      1.4091792233260882
   177   1      22.834123267808717      22.852242647339278    0.076011906218548059
   178   1      24.189739928555007      24.536765656218424      1.2799024727347057
   179   1      22.776936522183838      25.534689226277322      28.506291221266512
   180   1      24.149101331821093      27.200417096008199      1.2517981551001289
   181   1      25.717725384098657    0.080413191803484177    0.035175543129162094
   182   1      27.081233398971037      1.5834636281640548      1.2818159020975595
   183   1      25.578702251045716      3.0469148254097855    0.095576808569444477
   184   1      27.439638508347382      4.4367216396084261      1.3118277742742979
   185   1      26.016934910092019       5.736284732097177      28.672910131277767
   186   1      27.259119037309485      7.3457268105996265      1.2502562592275466
   187   1      25.723357797013819      8.8865465980537923      28.648793766688758
   188   1      27.377138676053644      10.071422590149332      1.3117832614300606
   189   1      25.751249202935174      11.667269276685756      28.589398469633807
   190   1      27.209023974313702      12.816131006403971      1.3328044531377932
   191   1      25.759591757802784      14.390566313230048    0.035106492279351302
   192   1      27.158234129508092      15.901679458390136      1.5735522486546061
   193   1      25.698791844484862      17.294750214345207      28.536327336939237
   194   1      27.021968982772378      18.592328492849166      1.5661024975740485
   195   1      25.884954829513806      20.026009350844163      28.697313843229942
   196   1      27.139187927408535      21.462305047925504      1.5423759615790791
   197   1      25.616425153755685      22.873904376808859    0.011635476299181852
   198   1      27.010128636681831      24.422721027968148      1.4546648457275853
   199   1      25.798827356548664      25.825896862079269      28.540458326622684
   200   1      26.962307141010815      27.153829381204925      1.3451970772403672
   201   1      28.547287775400452      28.606726085658927      2.6837264622073129
   202   1      1.5064749133572368      1.2079225143301078      4.2627402690545741
   203   1    0.042448515342596464      2.9228354375635144       2.922852638678942
   204   1      1.5753576005235921      4.3379348788964256      4.2273614740158196
   205   1     0.21998538652518454      5.7625876808200918      2.7959096873765938
   206   1      1.5952342402143258      7.2232298361729068      4.2702978211187137
   207   1      0.0836724014902651       8.647696358168167      2.8659602808466036
   208   1      1.4753081628945888      10.293324332156759      4.1563435489751441
   209   1       28.68942495391379      11.654796845298561      2.6964125110605432
   210   1      1.4336586890195135      12.934537489580642      4.2958870585035491
   211   1      28.554608433389678      14.265821781971724      2.9697973978217607
   212   1      1.4732313446326435      15.805386788847304       4.609070389250272
   213   1    0.018968694510239307        17.3585358124324      3.1535145952838954
   214   1        1.49795295198518      18.833015387136935      4.3511717789404045
   215   1      28.459284585793444      20.001694709625212      2.7198446840636166
   216   1      1.3921998694827953      21.517843025036054      4.1218582343915413
   217   1      28.496856939780319      23.015153798420478      2.7443745348149822
   218   1       1.259750179271977      24.303995656153539      4.1925749246151325
   219   1      28.583821443104924      25.992329784862488      2.7429508338851978
   220   1      1.4560072807521152      27.056978956419368      4.2163626301206145
   221   1      2.7994089674403324      28.567374024588801      2.7330175137351258
   222   1      4.4725747157231135      1.3891675385839208      4.1573601022676039
   223   1      2.9684599016573849      2.8059772280262907      2.8260983435724358
   224   1      4.3031579490591048      4.3673117164356778      4.4576501772466797
   225   1      3.0374660909558009       5.754931720113448      2.7197605514547845
   226   1      4.2510029050741061      7.1462811806217239      4.2432282150217331
   227   1      2.9338964020169827      8.8071370889948675      2.7380697822346529
   228   1      4.2303507579214612      10.044434026898713      4.3933397647503813
   229   1      3.1707088216176329      11.413503034917278      2.6573162875160041
   230   1      4.1772409687978289      12.904381829846091      4.2345173309412374
   231   1      2.9392164970825316      14.343583001304678      2.9524436378365038
   232   1      4.4403226008272014      15.864869596645802      4.3884196203805583
   233   1      2.9339683546162534      17.219287136109546      3.0160474293239221
   234   1      4.2122271289597313      18.489137190268885      4.1798817238569201
   235   1       3.027268569834241      20.082997088652657      2.8441657905682303
   236   1      4.4313700727512941      21.201147506142334      4.1478594347894537
   237   1      2.8832283405004762      22.892626193570536      2.8829981256991197
   238   1      4.1266112716332222      24.223301261105419      4.3810731376304961
   239   1      2.9584230750731022      25.746127288967656      2.9545197875384441
   240   1      4.1436483839582836      27.441965272778297      4.3750346639599353
   241   1      5.4349297439952462      28.491756065874853      2.7306013433708691
   242   1      7.1194869457958925      1.2252926720481234      4.3421837171555717
   243   1      5.8250193538731079       2.897209734271224      2.8143101274755042
   244   1      7.3301744573648779      4.1992787383050283      4.3212562553252214
   245   1      6.0108189601714779      5.5854996901899581      2.9071370903920406
   246   1      7.0329725040655564       7.278844436357029      4.1759917954762908
   247   1      5.8161771729783114      8.7018015854155806      2.8757846461652234
   248   1      7.2876703210871216      9.9880444897913225      4.3288150784505151
   249   1      5.9613504323504332      11.609679537851457      2.9641889794581622
   250   1      7.0527610181210862      13.056517678961528      4.3364044368097074
   251   1      5.5794992115764304       14.41876954001598      2.8439177650797998
   252   1      7.2844129206003601       15.99338479374325      4.3790219920758071
   253   1      5.8052557298447063      17.265457943372077       2.819999808664261
   254   1      7.2584387902449556       18.62827747065392      4.3790449520777033
   255   1       5.940862816838159      19.934424499629447      2.9675619565657163
   256   1      7.2215521221549102      21.391374847070118      4.4151343308369411
   257   1      5.5229835841242378      22.940991019382555      2.7702842639422451
   258   1      7.1203948421614571      24.503842143099416      4.2805916322213102
   259   1      5.5420014287897743      25.862084316876391      2.9013583952022111
   260   1      7.3110720787450374      27.301807793745883      4.1798681611947544
   261   1      8.7376082080860353       28.52185224365472       2.669484774539169
   262   1      10.073629385897672      1.0665626024695722      4.2190474945315488
   263   1      8.7891897629929989      2.5738875448664431      2.9160130390639005
   264   1      10.054139001656125      4.0593055774351665      4.3076457895581619
   265   1      8.7155390061172398      5.8523493516507124      2.9987456874341611
   266   1       9.896314589008675      7.1847840487804708      4.2892388387360265
   267   1      8.8224989679364878      8.8081109784135379      2.8196844939020371
   268   1      10.138034298053618      10.022349817549932      4.5623824011236493
   269   1      8.4315666165492988      11.492786312227622       2.889919175359505
   270   1      10.117299561393502      12.826713132171172      4.1072887655419388
   271   1      8.4875187100507272      14.224838303171218      2.8367862319171753
   272   1      9.9153178072308457       15.95449547040876      4.3961649126186328
   273   1      8.4765318022601157      16.988979305839333      2.8698882589494139
   274   1      9.9752391098155417      18.786061064861119      4.3363372201432915
   275   1       8.603184037862837       20.14360992178856       2.728747559693864
   276   1      10.211980440639969      21.552688301490857      4.2234051884978978
   277   1      8.4920088381759573      22.866201283281754      3.1390551007183971
   278   1       9.971496792803098      24.357149726889176      4.1920449673058862
   279   1      8.6964877425182046      25.494301321317149      2.7512688128823015
   280   1       10.13469375982864      27.249611650027077      4.2960536400285321
   281   1      11.648354063906549      28.645848601261012      3.0633778850581779
   282   1      12.988860462322554      1.6129711299529506      4.0829721612259169
   283   1      11.285698216293065      2.8221864401415688      2.7335869849307062
   284   1      12.862200056047435      4.2593297071429408      4.5782644266560366
   285   1      11.653784706251702      5.6934157489668875      2.8331983677474448
   286   1      12.985830808727536      7.2032919118204717      4.5508314403569452
   287   1      11.510421550891058      8.6434907086061603      2.9705342060660769
   288   1      12.783972790359963      9.8875607486085375      4.2081936964454956
   289   1      11.551047875783549      11.396938566297591      3.0302203901590921
   290   1      12.787044015367456      12.988280200207507      4.3908687539971973
   291   1      11.528224793894012       14.41411581120577      2.8247143867301805
   292   1      12.929503346714425      15.928879918201744      4.5690118469631917
   293   1      11.670309672780119      17.308758892603517      2.9562626601224955
   294   1      12.897688304801632      18.908961013426104       4.428115820421576
   295   1      11.324624985360765      20.225739908256926      2.7721744234176069
   296   1      12.826525569781371      21.513219946490242      4.4616121284357648
   297   1      11.636422653989021      22.973966702556009      2.8363134372479863
   298   1      12.925898855808184      24.297141637260864      4.3627018760131397
   299   1      11.618907332325238      25.662131139901881      2.6513563641251272
   300   1      12.729757474166723      27.162075835608707      4.3165022271707256
   301   1      14.320199762236841      28.564716949973931      2.9001486659330311
   302   1      15.790041716909295      1.2885936884165961      4.1310285283023322
   303   1      14.406145473645356      3.0012117524752568      2.9649130396046584
   304   1      15.808785703980972      4.2283336165476593      4.2136943252975385
   305   1       14.22665821036405      5.7905329480680647      3.0444634231826182
   306   1      15.635688033289343      7.2561987115310362      4.3694561018945093
   307   1      14.307490628138657       8.586900783212652      2.8109107604619226
   308   1      15.606251272911171      9.8760084531362793      4.2247559461179112
   309   1      14.172356903272943      11.699856345279279      2.5154733845185651
   310   1      15.614722261795087      12.809735921568079      4.1098589783849979
   311   1      14.251153139040204      14.464155208582152      3.0670796883704967
   312   1       15.79030228157113       16.01861774001204       4.329863713605377
   313   1      14.231935767324151      17.304681076276211      2.9915645635909205
   314   1      15.849601566595892      18.654327270493358      4.4061268266489231
   315   1      14.379931144074293      20.340484501333428      2.9120352651898798
   316   1      16.071437826108539      21.217105841250749      4.4345898688114396
   317   1      14.495693974948388      22.929540586262391      2.8586590564803256
   318   1      16.059301108761886      24.293401517664378      4.3720626396686759
   319   1      14.447101636168718      25.600352242923478      2.7098262591889557
   320   1      15.521674412075678      27.072805288304828      4.2292999548105845
   321   1       17.24274681479929      28.508124159087345      2.7564187865130396
   322   1      18.656332328410745      1.3590851955390697      4.2937970625488884
   323   1      17.440293287943735      2.8848834177601153      2.7875134299605877
   324   1      18.812531487758953      4.6266291224710887      4.0976422239473269
   325   1      17.242432147881473      5.8932048605079688      2.8437190243409316
   326   1      18.668174448485768      7.5158617665178671      4.2878218064854527
   327   1      17.102118128645078      8.5022353311679915      2.7431453223607489
   328   1      18.304821838395107      10.291293423154176      4.1810925001919026
   329   1      17.030567585119396          11.63649221943      2.8127515499500189
   330   1      18.726860142303508      13.007104750890214      4.4946889951755953
   331   1      17.135529404023252      14.277678273566613      3.0827150424587337
   332   1      18.492619160297963      15.995390304056061      3.9704551013404519
   333   1       17.16017052768732       17.50439968252326      2.7783215898407536
   334   1      18.704085146797834       18.72854148847432      4.4671562582426096
   335   1      17.276672824206447      19.965649216786971      2.9162866709853517
   336   1      18.722770034603599       21.53978368558985      4.2964401831696923
   337   1      17.393864895247521      22.871266366385008      2.7011040420042138
   338   1      18.627118013520015      24.184170518609395      4.3696615726436825
   339   1      17.135327631965399      25.677186420109955      2.7404674031523983
   340   1      18.736797557384094      27.351899379729051      4.4050622612831072
   341   1      20.054973526136617     0.10750559875544949      2.8871430202909063
   342   1      21.583583768953432      1.4955643818377773      4.3654796355631289
   343   1      20.040705393845109      2.8208398911056043      2.9904626419647227
   344   1      21.450735052528827      4.8426260485344521         4.0683649445393
   345   1      19.931719016790158      6.2192104615434687      2.6963579288612327
   346   1      21.651525176979217      7.1775902876771189      4.4252194351102982
   347   1      20.052899829916136      8.9724848068375938      2.8614907170588468
   348   1      21.764451159210822      10.126740387159314      4.2926840740737129
   349   1      19.979037737738611      11.546499990478408      2.9596154866400175
   350   1      21.466044220092652      13.090025318458352      4.4785305813273215
   351   1      19.994994383447668      14.345967653489975      3.1221070933648707
   352   1      21.371544604569479      15.730354033681277      4.4412653178369306
   353   1      20.152526484922692      17.300332151962827      2.8527105901283556
   354   1      21.368584869614867      18.665595935143003       4.284565077661636
   355   1      20.209148698022894      20.146462848264672      2.8236382710090422
   356   1       21.62940122859376      21.274694583527573      4.2684019512423044
   357   1      20.307355721593265      22.830732688540408      3.2072207123914827
   358   1      21.642594971919436       24.42252681393753      4.5245309581471558
   359   1      20.139575693562492      25.828012857854446      3.0617991343542079