dump/Fe_1350_0/steps_11 (written by ASE) 

2000 	 atoms 
1  atom types
0.0      28.699999999999999  xlo xhi
0.0      28.699999999999999  ylo yhi
0.0      28.699999999999999  zlo zhi


Atoms 

     1   1      28.487909851083234      28.593611799186959    0.047566522895090245
     2   1      1.5079610699133028      1.4965003468980411      1.5374750561369415
     3   1      28.622230556433937      2.7843658490940948      28.410244438037346
     4   1      1.4104068165314398       4.352536261498555      1.2289391072247098
     5   1     0.11263559126008643      5.8115086630511392       28.67762604048788
     6   1      1.7414570190743568      7.2190297678959707      1.3521223930473301
     7   1     0.33246709787608963      8.5623025363143199      28.676066694434713
     8   1      1.4960108769938985      10.113634593453156      1.4467378116892049
     9   1      28.582992718796859      11.219033036299365    0.013625818062178047
    10   1      1.4716163496803694      12.918397469174053      1.6434573174325238
    11   1       28.65347316025802      14.490616938036544     0.13935150410844707
    12   1      1.5093214674207278      15.890322681711243       1.386829370676435
    13   1      28.618458607475933       17.25113877339162      28.686861122806821
    14   1       1.450263506909871       18.55675007620685      1.0686195172994981
    15   1      28.659771804357888      20.167602693921101    0.049471000928326597
    16   1      1.3242510442005622      21.531495660693714      1.1489252449917098
    17   1     0.11783225299978169       23.20806391394752      28.607767299558777
    18   1      1.5711967994415341      24.441072531423686      1.5759336414731915
    19   1       28.51584241259123      25.773777775812178      28.422776678497346
    20   1       1.310468738658177      27.250550085029698      1.2029075615635738
    21   1      2.7474570305189232       28.61844785980178    0.051173835357372049
    22   1      4.2420336359458055      1.5878332503748893      1.3584903795031789
    23   1      3.0679749892628041      2.8705205358025121      28.530292375798627
    24   1        4.48645675820537      4.3440622408062231      1.3121975187124124
    25   1      2.9482658471573155      5.6519526409920546      28.629558439798519
    26   1       4.346901098887531      7.1565368265540084      1.4218706427584844
    27   1      2.7351172585877768       8.684445792120794      28.661652985094378
    28   1      4.5000921765019894      9.9708596189028036      1.4237255220095322
    29   1      3.0263258719315362      11.577696707721318   0.0072172481799270749
    30   1      4.3406325967776898        12.6486148845137      1.5193098657958781
    31   1      3.0808712735923525      14.335331979900175     0.15033100510318029
    32   1      4.4001886985664731      15.721728315600981      1.7790756743523835
    33   1      3.0111920915051282      16.987544710539353      28.520954676928557
    34   1        4.47365778240568      18.488135783988422      1.4806741071217633
    35   1      3.1456559759122014      20.089158882511075      28.546636215922465
    36   1      4.3878643855460817       21.26727371865562      1.2285093915862821
    37   1      2.8193900234200595      23.040931515378176      28.633768210357637
    38   1       4.286939819224437      24.421321454076427      1.3972048382853131
    39   1      2.7553254543738643      25.821016761355772      28.649979923803517
    40   1      4.2911546877351814      26.978733551254493       1.363996177938634
    41   1      5.6747002568763323      28.645420015107039    0.014345200363698041
    42   1      7.2295893136973159      1.3669247943794294      1.4423790138155717
    43   1      5.7383046307006982      2.8338965658587312      28.693869821077616
    44   1      7.1030236222708023      4.4447376142313271      1.6534724864904087
    45   1      6.0412827976971588      5.8608780710475852     0.12453210644804365
    46   1      7.0170412333158083      7.3205167876261239      1.7859076526775406
    47   1       5.695809131197862      8.6090365247784426      28.675437130335922
    48   1      7.3699181330435319      10.140341665209297      1.5231079883827527
    49   1      5.8202090841900391      11.316860936817173    0.034529192341017194
    50   1      7.2617648598650959       12.91563032789508       1.414357791130703
    51   1      5.6625844082842915      14.208156896228676    0.086588814210619924
    52   1      7.3048908064783413      15.437268352181706      1.4445811257903967
    53   1      5.8145133816150762      17.039216030435828   0.0035624074410634445
    54   1      7.2097243863312093      18.405613684298341      1.6123917607717198
    55   1      5.7289799073905145       20.02684605843481      28.648190769952198
    56   1      7.2892433905334766      21.518533383882037      1.5303957680277438
    57   1      5.6537248125467725      22.721195725783186    0.097053461907512309
    58   1      7.2018888581916993       24.41128994236858      1.5468483159620521
    59   1      5.8183088852273857      25.866569223288288      28.610024633359942
    60   1      7.1883057417181755      27.403336902504329      1.5316157419237368
    61   1        8.51122393126467      28.699511163280466      28.613262099620261
    62   1      9.9414724596201243      1.5300564489907751      1.4012660842999249
    63   1      8.4327701869928049      2.8811185699132675      28.680636611102969
    64   1      10.199026523525207      4.4773042583543621       1.725515222231309
    65   1       8.516413806165648      5.7245802442389548    0.098440261253063113
    66   1      10.317962456764564      7.1911012533942866      1.5297587488662985
    67   1      8.4629057611390319        8.59420643522167     0.20458523403244733
    68   1      10.002638944092254      10.159812304242362      1.3926521874047004
    69   1      8.3501748380064313      11.485512729607271      28.687006788504618
    70   1      10.033495463812068      12.845668351896574      1.4710139634665442
    71   1      8.6823425251373809      14.314442498144031      28.592072954779585
    72   1      10.175159714357289       15.80189236126402      1.2771644019023143
    73   1       8.627643665683923      16.985166314199454    0.091274333811008995
    74   1      10.074945729775571      18.639797613649971      1.4083508662997486
    75   1      8.5133245402241862      20.048384846516015      28.602302589558011
    76   1      10.103142768706606      21.279963367907957      1.3336372638930583
    77   1      8.5058999878001593       22.72660011392923      28.507284722328805
    78   1      9.7693979356499856      24.234709731902129      1.2555550614838473
    79   1      8.4614409878895938      25.905885571341617      28.557038185536172
    80   1      10.055704071453651      27.175116983832563       1.469986986004483
    81   1       11.24601478399852     0.16021050796480441      28.559109624451782
    82   1      12.867811147786448      1.8231472472455486      1.3529084413113082
    83   1       11.25853910575516      3.0081863247823479      28.670664392534096
    84   1      13.045723138867466      4.4925498615491648      1.4638943201613992
    85   1      11.256158965194109      5.8411367950349629      28.435707545941586
    86   1      12.895022205881075      7.2853511750226385      1.4578846520329516
    87   1      11.480573842971797      8.9047643118150948       28.66967513937438
    88   1      12.993816542259053      10.389336307704916      1.2648123968234251
    89   1      11.471796851515787      11.843345817818706      28.636063103504785
    90   1      12.925505923927316        13.0829028522529      1.6068028011384154
    91   1      11.401136398229976      14.436334975633898      28.490137548522625
    92   1      12.831979037729933      15.850452295613145      1.2892965480163745
    93   1      11.454707308143934      17.203188802863686      28.462129807686583
    94   1      12.737992433343631      18.839186518798531      1.4711668682320809
    95   1      11.417392627583885      19.908906087209434      28.445042677513513
    96   1      12.731255919804935      21.535507746973423      1.4824748400786927
    97   1      11.619146458698816      22.970095543851912       28.52924679418085
    98   1      12.683057112989491      24.390334765349657      1.4183996921436104
    99   1      11.210686733471952      25.542507420994305    0.069195219526284282
   100   1      12.840489759131458      27.071688859931545      1.3813960248433668
   101   1      13.958324657907022     0.13048550365323314    0.026663172170492536
   102   1      15.264062890190537      1.6871434267512302      1.3130491450585162
   103   1      14.178755720736644      3.0073522191865667      28.640454047823287
   104   1      15.763470778437327      4.4675112709888234      1.4324196508770235
   105   1      14.341695462755032      5.9235367564060875      28.574983179581668
   106   1      15.957388454202377      7.1346390775802337      1.4261778037766817
   107   1      14.426198521916437      8.7108672815108132     0.21144632069848521
   108   1      15.954009185661924      10.429856095584871      1.3760355491417169
   109   1      14.510711116741245      11.509605537925237      28.595845076294669
   110   1      15.718606033702919      12.920287065807759      1.5647591234958433
   111   1      14.505620663638139      14.405538606321093      28.595613330552457
   112   1      15.871121906834556      15.832607603732654      1.4222906874475247
   113   1      14.372109591277466      17.221070722002764      28.574912805579917
   114   1      15.769536294145654      18.599821626026792      1.3756927291953056
   115   1      14.374157452606054      19.997679794063139    0.087900549405389952
   116   1      15.699698704139152        21.3636149647742      1.5764244659762536
   117   1       14.32095505951018      22.834625557001985     0.15836107854336204
   118   1      15.602979736708027      24.359536508594555      1.5310097580352482
   119   1      14.105791060413644       25.63891207058612      28.671969161055372
   120   1      15.654511654543676      27.192389947692252      1.2319721602850777
   121   1      16.878365894309432     0.13041120690284044    0.022443829218491359
   122   1      18.350981895004541      1.3993426057135472      1.4537770950415387
   123   1      17.171946877109075        2.90712320817007      28.654227528306894
   124   1      18.683014385474216        4.21765126741073      1.4772661890571035
   125   1      17.331426384537487      5.7478821336288224    0.098898759319842919
   126   1      18.767993166696684      7.2945787839794178      1.4165494776797583
   127   1      17.264270826380347      8.8288083053520836     0.15036687907122528
   128   1      18.761788702683575      9.9645945279424222      1.5756322357695911
   129   1      17.338160209851708      11.614353147498704      28.681367535309153
   130   1       19.09134869243362      12.763459505233557      1.3747394040096999
   131   1      17.381152218508532      14.082066511944449    0.014630029385591579
   132   1       18.84122864965326      15.686240223797842      1.6937265303953946
   133   1      17.370647813989347      17.094038973222798      28.626432764234753
   134   1       18.49314506775244      18.743002006117472      1.5627245723203591
   135   1      16.911434243428985      20.235223576052608    0.058626502759091106
   136   1      18.650191949302691      21.388251444888734      1.3802993814032889
   137   1       17.22708591284551      23.068071292304872      0.2084973256688499
   138   1      18.573763133106063      24.221511452676864      1.7108459927766597
   139   1      17.137443619844579      25.673805655260125     0.11882407181643649
   140   1       18.60749756483164      27.399690061140241      1.5685939065255514
   141   1      19.873377660746449    0.046094273968537831    0.050962759990773016
   142   1      21.260909811005465       1.384286319851286      1.4587930539353815
   143   1      19.946404329563197      2.9095132876128433    0.099100266195887243
   144   1      21.457775967607052      4.3206141880157176      1.4794988576177057
   145   1      20.098574731726526      5.7629477412804047      28.595041319381529
   146   1      21.551646966385707      7.1125273993395357      1.5445497895853815
   147   1      20.108696444338857      8.4643854771712785      28.629174320354242
   148   1      21.422933471234703      9.8370364619281112      1.2962569658719982
   149   1      20.134303021058415      11.250039591373014      28.554186362717729
   150   1      21.472049206927345      12.644021821445582      1.4133124722003112
   151   1      19.990130510552522      14.351298626539874    0.023841522826569397
   152   1      21.510985289555535       15.65207970769915      1.3089209545612688
   153   1      20.128539631991632      17.167552522830398     0.26979278085399283
   154   1      21.608728300426826      18.681056487399907      1.5870408902169395
   155   1      19.871682565068546      19.864551981178742      28.641583166547505
   156   1      21.371027944414305      21.494522826303541      1.3735602259002468
   157   1      19.838530587950391      22.663219083603071      28.634457262621854
   158   1      21.510024313590744      24.084563355649717       1.306470003424419
   159   1      20.007107189127947      25.901306501163567    0.026382949916467148
   160   1      21.303021133091985         27.126063237556        1.47927845097679
   161   1      22.763465422005872      28.656850934892137      28.598556658163687
   162   1      24.336124433881899      1.4112583934492031      1.4263852031839626
   163   1      22.895791024517504      2.7280507076035621     0.18006675016196136
   164   1      24.429252884235513      4.4033751562943726      1.1778473235719846
   165   1      22.983313120379819      5.7190246655893722    0.044386623374123246
   166   1       24.40847321528361      7.3292440721768877      1.2804970122570452
   167   1      22.917819146812281      8.7047010353884833      28.547187748006664
   168   1       24.13830173271052      9.7563878334663787      1.5258674523558735
   169   1      23.021023016789322      11.408295932902742    0.026815122387256432
   170   1      24.353686436509111      12.972504807199961      1.6953318753781672
   171   1      23.086187850024867      14.139925768649592     0.17274254084305746
   172   1      24.310345294661097      15.721731909601733      1.2901958513417284
   173   1      22.958869244026289      17.096365774376665      28.646493207542537
   174   1      24.313240789459563      18.820041321474665      1.3446221677361674
   175   1      22.726487703228194      20.064168898019048     0.15479045965124677
   176   1       24.47108590396223      21.697491613262596      1.7338259997091074
   177   1       23.04191039121902      22.593923741521447      28.574117830056085
   178   1      24.255650941418928        24.2200879385333      1.4400390491752664
   179   1      22.708267008545299      25.709430712002369      28.541932449485088
   180   1       24.34032985128832      27.188617340437407      1.0862699770538269
   181   1      25.900039385471125      28.692929867798746     0.18007133910834908
   182   1      27.234431260481127      1.5122291190627835      1.0362498050415978
   183   1      25.886896715180395      2.8652522789307464      28.581929131713537
   184   1      26.989655148957311      4.2303223425203322      1.3884548469595059
   185   1      25.831688882600812      5.9393746317329885      28.697260812344499
   186   1       27.35323190646071      7.2479285157568727      1.4319509459080568
   187   1      25.776674914973377      8.7521153288875446      28.468991218738147
   188   1      27.054583304951404      9.8176968942522755      1.1800207069385458
   189   1      25.873490948973998      11.622049316600812    0.047372163623640599
   190   1      27.345046231902845      12.999744309721688      1.4596616359062065
   191   1      25.837318128150763      14.519154542901289      28.687503624393372
   192   1      27.324920164794403      15.949923466578241      1.5098258260852826
   193   1      25.611452012750149      17.183298886737713   0.0069119085036049837
   194   1      27.277924143768331       18.63738337394393      1.2566026336471154
   195   1      25.828849827481548      20.420987965314293     0.15759744098684234
   196   1      27.245780094829009       21.68600279188388      1.2572003311605953
   197   1      25.842643148222592      22.923881305171641      28.582738424333499
   198   1       27.36647617923354      24.287415203013435      1.4540687357386681
   199   1      25.833681488021391      25.422662013976296      28.666453308660422
   200   1      27.199309650803084       27.04511040604142      1.3318675964651454
   201   1      28.680709110786115     0.10490217180193913      2.8144195133146677
   202   1      1.5697700733823237       1.588614143229119      4.2267062409032707
   203   1    0.023437256095849408      2.6536740019089837      2.6299895490822789
   204   1      1.4190128869222023       4.451236670628365      4.1976343708219694
   205   1    0.021385383214636101      5.8942435639495079      2.6660895436132126
   206   1      1.6347948668534531      7.3125067952943938      4.2850027827722119
   207   1     0.24531317546979009      8.5816618375862657      2.7688769065760179
   208   1      1.4604809066138615       10.01977326065464      4.3254750854284101
   209   1      28.511251681582284      11.537034119117841       2.667892092210955
   210   1      1.3011033951692768      12.734990442738713      4.2599610658145677
   211   1     0.14483504033029349       14.27122468171415      2.9402245830378977
   212   1      1.3510401437351225      15.700095580512029      4.5861133561997303
   213   1      28.621532140262374      17.372393419119941      2.9027316191116799
   214   1      1.4001726192011481        18.5419441139165      4.4793209475513409
   215   1       28.63052712705624      19.829549418461603      2.8349448480393105
   216   1      1.3331709789519319      21.519961736351998      4.1965390783753831
   217   1      28.545119768491009      22.782292313518152      2.7568227918598716
   218   1      1.3798137938639694      24.165451327223892      4.0741587220689262
   219   1      28.525613196162173       25.70075910116277      2.9860785552178095
   220   1       1.523209839282359      27.341134061342277      4.1882883858786819
   221   1      2.9929783964778833      28.673351800951565      2.7429562498696543
   222   1      4.3088509283702514      1.5191667884380997      4.2372439980686281
   223   1      2.8266829989728186      2.9708651766856495      2.7179984785910607
   224   1      4.2212452283376534       4.297731866451624      4.0231953497200701
   225   1      2.9416844962371766      5.8257162323497669      2.7004738344364343
   226   1      4.3099310770219352      7.4035846019007652      4.2797309349014974
   227   1      2.7924797413258253      8.8576955187377475      2.8544039592141295
   228   1      4.4256386776532848      9.9966599638647224       4.532800298999236
   229   1      3.0866043236638072       11.44769545301255      3.0110276119164245
   230   1      4.3634816285112166        12.8148377756811      4.3699716670433713
   231   1       2.981815700165233      14.190421342213602      2.9049046288634148
   232   1      4.4041922914555389      15.564152952188463      4.3508817505358355
   233   1      2.9261234698569178      16.990722364413479      3.0515458344491542
   234   1      4.2447070268308051      18.686574217261089      4.2687638942832793
   235   1      2.8553804995405039      20.028388961566911      2.9167838553130898
   236   1      4.4793431752444093      21.261347807325301      4.5797396194059816
   237   1      2.9544363474517197      22.727617054298907      2.5495015886865984
   238   1      4.4603014358791695      24.327789144987218      4.2703331525659145
   239   1       3.023565709406645      25.699713889970464      2.9881221124500477
   240   1      4.4189391344038222      27.119396833352759      4.3271882947031042
   241   1      5.6023623974743302    0.016380620497864304      2.8887690692595118
   242   1      7.2491943733089315      1.3007440598135069      4.1171259106174425
   243   1      5.7240565253745208      2.8786331111762746      2.9396760360516883
   244   1      7.1791770067624254      4.4356067501339922      4.2678883127123033
   245   1      5.7358948067052689      5.8595953802556364      3.0211785082961082
   246   1      7.4832607120689092      7.2014131715941385      4.5101865535344006
   247   1      5.8004687827435424      8.7147488464912293      3.0954968322823904
   248   1      7.3335070135667291      10.316127305468235      4.5065589064790439
   249   1      5.7965195950625725      11.373582538193133      3.0464454425067169
   250   1      7.3838520116183153      13.055202650877915      4.4214349430814428
   251   1      5.7979399174057216      14.292003312240158      2.9251684657096826
   252   1      7.2095990205460607       15.74871364570812      4.2763253768158922
   253   1      5.6393893012769754      17.100771275642266      3.0638105540376324
   254   1      6.9551286683982951       18.48123261513296      4.3984554713317907
   255   1      5.8120473162738069      20.230989173359035      2.8739414655545312
   256   1      7.2649429691364675      21.340745168291445      4.4744137273961684
   257   1       5.628915130008652      22.757793862717751       2.871415961918284
   258   1      7.2865457318755267       24.25871103844214      4.3771108967395946
   259   1      5.6395642098903309      25.782665238175166      2.8209204134387948
   260   1      7.0138071278271594      27.201993391716783      4.1367145615071141
   261   1      8.7346383763197917    0.041663113092602268       2.605010992394365
   262   1      9.8881555284043738      1.5679298472513885      4.1580762707414936
   263   1      8.6654274170590195      2.9339889908073582      2.7321538340124425
   264   1      10.209779426014146        4.21339031103102      4.2521297818760004
   265   1      8.4638501948350164      5.7275685894955393      3.0486198061232361
   266   1      10.300259506296419      7.6111694088073296      4.0007703118464724
   267   1      8.5301540989675733      8.8779835570631551      3.1633713352044399
   268   1      10.166300887579816      10.141375134558364      4.3209109515434241
   269   1       8.598791776192023      11.675129410051271      2.9569591854813013
   270   1      10.035305638783184      13.126057454305803      4.5603326086473945
   271   1      8.6353996740512944      14.385400029766691      2.8497736094520638
   272   1      10.108186710776842       15.96660150387101       4.332104623589224
   273   1      8.5466942734214086      17.199678094672809      2.8590966956005199
   274   1      9.7948914872124284      18.475062964856622      4.3207287064706392
   275   1      8.5729525523947103      19.879302951783547      2.6499367001587291
   276   1      9.9471080986311211      21.245389935470961      4.2826631194395786
   277   1      8.7996796585887758       22.74154614036372      2.9886262611036849
   278   1      9.9429960842140179      24.343516208244235      4.4287736701137543
   279   1      8.6003449902251781       25.71596376686707      2.9360336202975983
   280   1      9.9216629820383631      27.184630605321352       4.264599806586781
   281   1      11.566043795531018     0.41131367326990925      2.8062702581202283
   282   1       12.89504462003732        1.41497263025899      4.3696176267196005
   283   1       11.66234621318876      3.0857968913166447      2.8026886833114877
   284   1      12.935793270423245       4.184617735796528      4.3958424427571305
   285   1      11.712441736113805       5.919048272252045      3.2427402708276634
   286   1      12.848714618155599      7.5807106670569686       4.365956831429977
   287   1      11.566661238327994      9.1083578513897194       2.823939328319339
   288   1      13.084713576427065      10.259451121182488        4.39033853403485
   289   1      11.740297899290761      11.491240973229999      2.9074081850201932
   290   1      12.992358217683929      13.172783833500267      4.3990036156021555
   291   1      11.568464445876765      14.550283907839399      2.9223184615452684
   292   1      12.747526199663607      15.904019309898969      4.3953074385331687
   293   1      11.525223607197084      17.361530001023517      2.8591566613910904
   294   1      12.955396574602721      18.571653509674956      4.2382564987101112
   295   1      11.393485078201637      19.872873300297147      3.1034464443876684
   296   1       12.78551462886907      21.433301816714998      4.3414890635840457
   297   1      11.366040390563807      22.965898187226436      3.0203829892040597
   298   1      12.693014672336778      24.512218023985422      4.1628033313155797
   299   1      11.210590716699251      25.444481520526526      2.8133513954674179
   300   1      12.472238751702841      27.171135785764335      4.0618068692622229
   301   1       14.10680724266237       28.55619400430604      2.5707684298376297
   302   1      15.279091703562003       1.186743990964545      4.1718617976616628
   303   1      14.385566367752118      3.1223987198785443      2.9044973339819062
   304   1      15.835096670340622      4.5930873902994245      4.4002366292228627
   305   1      14.311941030793971       5.931469625697023      2.8498258032858632
   306   1      15.965197775133747      7.5259874995185347      4.2255303398155837
   307   1      14.374934488943479      8.7601078907672836      2.7317045563039404
   308   1      15.947338932984701      10.145551374641499      4.4613794104831754
   309   1      14.429227180787681      11.609692524408651      2.8599668153217075
   310   1      15.816167605543273      12.736513125518574      4.4432916680545702
   311   1      14.422730958302976       14.44174348622572      2.9359088928229515
   312   1      15.779971729280927      15.945858641539207      4.1383791898795872
   313   1      14.397545789178505      17.277799080578053      2.7428115582387806
   314   1      15.594902901628144      18.629173007108225      4.1322192571358132
   315   1      14.388308607900589       20.03651871158819      2.6806725828545841
   316   1      15.691281075433455      21.310980911833092      4.1782625744930728
   317   1      14.268967309804987      22.902870680472908       2.865966887343153
   318   1      15.677480132759763      24.374605866561698      4.2519636317959355
   319   1      14.051768030056262      25.847948258323711      2.9023544228704852
   320   1      15.440719124201818      27.317731529934537      4.1582419097672574
   321   1      16.923536774552694      28.690638106856738      2.7563436120531026
   322   1      18.531816262205435      1.1302279934311283      4.2213349630254484
   323   1      17.000185784070805       2.680712787171569      2.9696659905840961
   324   1       18.48001208602377      4.1415900109253583      4.1151988894979121
   325   1      17.470834781983225      5.6203951718988927      2.9118931733449624
   326   1      18.701670189054497      7.0574234698608027      4.4739265312675727
   327   1      17.086469615387113      8.8893894895844205      2.7296795841905248
   328   1      18.555893581718767      9.6873545395984078      4.4366269969429881
   329   1       17.50455334687474      11.529698429753942       2.938204784243819
   330   1      18.612211416990355      12.964170257785737      4.3960150878988937
   331   1      17.393612360891915      14.173356163791038      2.8911066742764184
   332   1      18.778549370693131      15.674999555078918       4.463774771599982
   333   1      17.456378753121413      17.065978891308784      2.9687572153180573
   334   1      18.534001319046297      18.635612919969475      4.3922702714026203
   335   1      17.101109003291516       19.85733207295522       2.967923529427603
   336   1      18.754700909029733      21.505862321164585      4.2849186994579549
   337   1      17.188060115729584      22.817957975625976       2.962123016745482
   338   1       18.38655565676229      24.396004179514907      4.3458361374815757
   339   1      17.174643517567308      25.838248060564869      2.8386193115724496
   340   1      18.637353395835209      27.170465998401397      4.3475627465062159
   341   1      20.066103772877732      28.556352007900898      3.0328399160500652
   342   1      21.488734311752026      1.3694687176642555      4.3552201976165446
   343   1      20.025063985200912      2.7047134686546297      2.8253030020100143
   344   1      21.488729846257396      4.0891041813581239      4.1236664732163701
   345   1      19.963469787213967      5.8518106038456752      2.8037846119835983
   346   1      21.578204047524416      6.9548936977446791      4.1883909744087822
   347   1      20.146124715396958      8.6009884384449364      2.8962158601960737
   348   1      21.524932664152814      10.001567393694723       4.505793413775578
   349   1      20.151317023895853        11.2568854238665      2.8954255739435988
   350   1        21.6705122799107      12.631154470400508      4.5356946607404405
   351   1      20.124877867304146      14.149749419030584      3.0201996064538927
   352   1       21.52886916049259      15.832300047915094      4.2521472366424584
   353   1      20.101303414283255        17.3991353549515       2.924379614252778
   354   1      21.381197694673947      18.675108829027927      4.4243275434587321
   355   1      20.166598071209251      20.345444906946518       2.886181688265185
   356   1      21.503086612559645      21.505656543603408      4.4275983610470542
   357   1      20.015196849927964      23.160116217289747      3.1420041849337421
   358   1      21.502778990040415      24.473505069212873      4.2195097227855607
   359   1      19.830286786333698      25.830837411597226      2.8194962722903822