dump/Cu_720_5/steps_41 (written by ASE) 

1995 	 atoms 
1  atom types
0.0      25.526554800834361  xlo xhi
0.0              25.5265548  ylo yhi
0.0      36.100000000000001  zlo zhi


Atoms 

     1   1    0.064064686954136738     0.10608244728220279    0.074084211909359876
     2   1       1.352439649186673      1.4206632860041366      1.9258483589101845
     3   1     0.22890203834958928      2.4942479382530864      36.093189199046826
     4   1      1.2328509139886701      3.7610384648342392      2.0112923194129513
     5   1      25.421563233419562      4.9743381308683334     0.01960985413215895
     6   1      1.1928216248295296      6.3566990400859771      1.6747663465795095
     7   1      25.512507677305457      7.7552128369770896    0.039620376966672741
     8   1      1.2422253216934755      8.8369225452125661       1.734166913575099
     9   1      25.507589889813485      10.284577804217642   0.0034968344677054125
    10   1      1.1566578484977201       11.63331723794639      1.7625648252464428
    11   1    0.051930810802551707      12.855681167855169    0.030283494017658095
    12   1      1.2328514334294125      14.018904506803185      1.6951345045888744
    13   1     0.11950429273577309      15.342899602470766      36.077213454037228
    14   1      1.3448557867256794      16.494682971609148      1.5406019044517054
    15   1    0.032437278305221598      17.757078101534105      36.046568466919645
    16   1      1.4484859161676029      19.029342640944115      1.5898804757829788
    17   1      25.507584791643275      20.461880907207117    0.078494111230122773
    18   1      1.4505519557327569      21.869631669454225      1.6640735446998181
    19   1   0.0074963713982795993      22.993040267694671       35.99013339399167
    20   1       1.247569449312504       24.40189579664122      1.5623884595583502
    21   1      2.4193415449623172        0.27738427290161      36.029272132648885
    22   1      3.7543536857895945      1.3711436525780121      1.7164282344751196
    23   1      2.4866386481128031      2.6873289077577325      36.025862489786903
    24   1      3.8016734012733577      3.7610458182180313      1.8310910495037904
    25   1      2.5452900971530728      5.2861451656611802      35.967730645174939
    26   1      3.7887209156933106      6.2391054502329206      1.8243040087418871
    27   1      2.4636211772027257      7.6411997670137728     0.17078651957472157
    28   1      3.9531480338283278      8.8846689515456045      1.8189835484270809
    29   1      2.7213748313789803      10.437764242500219     0.16778448546820082
    30   1      3.8902934302046486      11.539532496290461      1.8354823300073113
    31   1      2.5939033325093406      12.875432762646764      36.042519418247906
    32   1      3.8116898580684415      14.001260813093529      1.7239948384404216
    33   1      2.6070809656416549      15.327714198841292      35.877899064352277
    34   1      3.7761338289152575      16.625049158605428      1.9164573693928888
    35   1       2.833316232474743      17.827083724307052    0.062630551718689365
    36   1      3.9879117832019766      19.277093047452794      1.8039257551229739
    37   1      2.5936254352550754      20.525620821890509    0.058063111365686218
    38   1      3.9835122404512813      21.899145610566293      1.7316087450208912
    39   1      2.7987327880141257      23.001299225882818      35.914215273989896
    40   1        3.75138047576809      24.345507336396896      1.8565664801289141
    41   1      4.9697470542976481     0.14524773078338074        36.0420329515037
    42   1      6.3128189071801311       1.218646563315801      1.7689030993090324
    43   1      5.1867407367908598      2.6479224865501712     0.16755849989633603
    44   1       6.459751590464224      3.9979402383317226      1.8590429922331742
    45   1      5.0789837878405546      5.1714589664723851     0.23754476437269412
    46   1        6.37027519558045      6.4100682799813997      1.9712429760469257
    47   1      5.0783294339317884      7.6101708864434841    0.022554417141657283
    48   1      6.5155019951400481      8.8459305674266382      1.9602496225438368
    49   1      5.1662860793647765      10.320308532651302     0.11839228433391337
    50   1      6.3055814284964837      11.415594513206239      1.7100927606774796
    51   1      5.1502542493972605      12.957568081383478   0.0051678190875236365
    52   1      6.2829721615449099      14.129608161335897      1.7444798410928903
    53   1      5.1600793442654815      15.494516435017808      36.009614617745413
    54   1      6.3680591587916995      16.489274898972276      1.8527623110566198
    55   1      5.1849190034068506      17.867022998828855     0.28071221105245742
    56   1      6.3761294714463679      19.358571855547687       1.719635283275408
    57   1      5.0398381432592876      20.436129193865447     0.12186499517838453
    58   1      6.6637501199920193      21.772174929217076      1.9304430416619636
    59   1      5.1972287078413268      22.839132052920803     0.11857330325931338
    60   1      6.2420663190771446      24.429796231314661      1.7493152701260684
    61   1      7.6015502468088911      25.397701925865043      36.038240216150299
    62   1      8.8165454265481173     0.85912970826292656      1.7529424498251274
    63   1      7.5279895099681253      2.7603732354619512      35.863263882312069
    64   1      8.7476026319732263      3.5097393180887702       1.831780135104577
    65   1        7.85379664921859      5.1695166381488882      36.096909727778467
    66   1      8.7933897346972039      6.2360938235794183      2.1546590170417503
    67   1      7.7411114667231988      7.7408095740844729     0.13923675848511707
    68   1       9.004115068157498      8.7986644070593325      1.9223969156739706
    69   1      7.5981065502232337      10.315413910508221     0.12541983296213172
    70   1      8.8311399674209312      11.604194035868902       1.679854807748232
    71   1      7.6165772845492912      12.743526725318389       36.00633512843509
    72   1      8.9380540321859101       14.20868036933741      1.6712026391039665
    73   1      7.6725840036253619      15.292821747864647      36.098493729389325
    74   1      8.8695996840930782      16.742700086675558       1.737443257866244
    75   1      7.6358346671258168      18.093300804752623      36.059553772764822
    76   1      8.9092138368092257      19.143613123291971      1.7522879058296681
    77   1       7.728903217947237      20.596682813622586    0.093442333422456267
    78   1      9.1100894672559178       21.73098467818108      1.7712511672150879
    79   1      7.5712343652738294      23.004796546213431     0.10345541978491617
    80   1      8.9763087579526193      24.018335099997437      1.7821112082960195
    81   1      10.372573128869833      25.435251006160922      35.757036490310824
    82   1      11.438104411286355       1.021098278960096      1.7145919481520879
    83   1      9.9335678005745347       2.469077303202138   0.0019749653868302627
    84   1       11.53926675960037      3.6059313924157399      1.9529226891848797
    85   1      10.258621095369529      4.8631344451485017     0.20662648706322662
    86   1      11.304679205162063      6.3072390335712987      1.5945675377574067
    87   1      10.264551976138643      7.6568509915068876      36.062600283605853
    88   1       11.37502551302671      8.8370359388435631      1.7952156532113579
    89   1      10.005763849665712      10.186914227805566     0.08526061529022394
    90   1      11.246662426293264      11.516107764278765      1.7729390052511245
    91   1       10.07425228100487       12.66404068087453       35.93643923598966
    92   1       11.48780969234007      14.044647333454332      1.6739169679908306
    93   1      10.287481232227604      15.361064982035266      35.922422331733259
    94   1       11.65151095523113      16.755276077996122      1.8426677625115404
    95   1      10.221432399822554      17.836710845415084    0.062196587824610121
    96   1      11.394457747633405       19.09649074405678      1.7891226875173616
    97   1      10.178219923091422       20.23278432337862       36.05645177727434
    98   1      11.524620234178585      21.631544441439974      1.9658477919930541
    99   1      10.395992140344941      22.674941847267615      35.991703827198229
   100   1      11.480366051475842      23.999447670903852      1.5808329120299625
   101   1      12.843597460557111      25.297528477137053      35.961673984474238
   102   1       14.22712982536927      1.0815109031446093      1.8157957409818666
   103   1      12.668349821691447      2.3753558436527653     0.14102891481835528
   104   1      13.958790898814305      3.9001657418541589      1.8677915813160897
   105   1       13.06118130213987      5.0162704531995388      35.933205231367218
   106   1      14.048077142400853       6.203919056871829      1.8737084088261196
   107   1      12.673137712851362      7.6690164364724982     0.12073889121913921
   108   1      14.167637923641276      8.8727426891139718      1.7435467195857979
   109   1       12.94849084313562      10.013495351541772     0.21584025043384841
   110   1      13.928223699811788       11.51283886110523      1.9121945783393235
   111   1      12.578871140365314      12.841431881840181       36.00312794756092
   112   1      13.966540723747798      14.016474597044422      1.7354130603549169
   113   1       12.81851822498297      15.512117585784202       35.86054914817867
   114   1      14.114537119705227      16.442550191343237      1.6839918132033991
   115   1      12.732006253599698      17.830918822980863       36.04456919938351
   116   1       13.92779384149031      18.936198209099938      2.0653290739284103
   117   1      12.462277215246077      20.412897427920136    0.024806227631916034
   118   1      14.045722763113808      21.540008743129892      1.6979836856065291
   119   1      12.808124534069956      22.923485756826704       36.07396994635446
   120   1      13.978684575189002      23.917169328767464      1.7165710767163087
   121   1      15.373753203533136      25.487053835575544      36.021091029240289
   122   1      16.713730421264092        1.35377691789232      1.7435690441339151
   123   1      15.128198636814197      2.6190715833970954       35.98493696411191
   124   1      16.368902568708709      3.7056921603592414      1.9722488662295279
   125   1      15.498707455394758      4.9997178020994726       36.02661016557493
   126   1      16.627602901964991      6.1608511260847836      1.9660254946415547
   127   1       15.40234271723722      7.3678973918804367     0.21850432685454288
   128   1      16.688727936501575      8.8947390551362613      1.7798678272923425
   129   1      15.302500223009506      10.110809104695351      36.000726955012553
   130   1      16.492278110889341      11.503996016639302      1.8335099323474204
   131   1      15.286326701339007      12.794695720994309    0.096231959012857249
   132   1      16.629364940175922        13.9782833733335       1.653613950375892
   133   1      15.331495902249085      15.396319401241993      36.085087329820624
   134   1      16.572811389219389      16.421856340385112      1.8410753011525474
   135   1      15.312579281482989      17.936134384518301    0.028786404890968231
   136   1      16.368495106115233      19.084301039085343       1.763869818688649
   137   1      15.054183342182494      20.391956733173341    0.005528021583006637
   138   1      16.579293094875258      21.623061144333747      1.7022812045995355
   139   1      15.210385069083435      23.169458330010254        36.0137691056945
   140   1      16.571089255254751      24.535818114615957      1.7896287330819975
   141   1      17.850500854680668    0.098671054726317126      35.923353622465207
   142   1      19.075548567975364      1.2028315356893431      1.7606223620786527
   143   1      17.656166760788107      2.8398052203507742    0.020376187519070763
   144   1      18.925065662737126      3.7184118213390387      1.7853499639663948
   145   1      17.911996046436808      5.3645538488615081      36.041437188000309
   146   1      19.161223934511668      6.6393408387963575      1.8151667440041255
   147   1      17.993140661720066      7.8735696084761324      36.019137528310523
   148   1      19.268055101212667      9.0423783531816699      1.7171963107151555
   149   1      18.035045917063812      10.333147511716657      35.981988085416859
   150   1      19.171998200639056      11.528449876249708      1.8978145765938275
   151   1      17.865751199164304      12.859948831196744      35.992705524301009
   152   1      19.201615639594674      14.023931128989863      1.8590625547131487
   153   1      17.880298777479958      15.382446127147826      36.077320073014072
   154   1      19.167487696524049        16.5804920244301      1.8906132861503107
   155   1       17.91357038680199      17.989360453927436    0.079423206205660762
   156   1      19.091021663483115      19.142761238165999      1.6996185012119795
   157   1         17.610180755285      20.433146514947634      35.977112183805204
   158   1      18.912796193032467      21.777387140626267      1.6004633330700604
   159   1      17.615484165177186      23.269712500594991    0.037837897723807024
   160   1      19.026003332804098      24.194191811089876      1.6719165903319206
   161   1      20.357003222740861      25.489950222738006      35.968355098876593
   162   1      21.613806927020846      1.2526332158013753      1.8633218980028252
   163   1      20.290761231304543      2.4118716920884165      35.970666788254242
   164   1      21.789302497888354      3.9461737544783015       1.804930328609349
   165   1      20.213125620660666      5.1188434426145122     0.15081016670743561
   166   1      21.794007589203623      6.3830084523112625      1.6665293888943649
   167   1      20.461621242198952      7.7040874747589196      36.068862890235856
   168   1      21.654602666107483      8.8532473485199485      1.8913639847088481
   169   1      20.473052280801262      10.290124805786959      35.906977495976278
   170   1      21.752428196048065      11.510148394501487      1.6759895641015654
   171   1      20.451812327330032      12.758211214698138    0.047765691543725015
   172   1      21.789129795408748       13.82102480237511      1.9195194762519234
   173   1      20.298547410426952      15.255097174250174   0.0042881731769625845
   174   1      21.610479864946697      16.542018800764719      1.8924114436059434
   175   1      20.384593825487226      17.748842224592305      36.086702893884642
   176   1      21.499744201778292      19.157318283665433      1.7522646145702212
   177   1      20.320139469968613      20.325876901433649    0.034566903830295821
   178   1      21.542146793158931      21.531882325941737      1.5978201847217526
   179   1      20.293013950203321      22.961530071686855      36.005837770853454
   180   1      21.593768461289596      24.403834206398503      1.7635923343601361
   181   1      22.918065530527016     0.12920634661179459     0.10166410562835598
   182   1      24.252257734297835      1.3896008880404764      1.7556569280189596
   183   1      22.972921773212278      2.6970474185257798    0.094442555341174669
   184   1      24.303985592040473      3.8251534533822857       1.821362686264115
   185   1      22.956722087540918      5.2420882034418934    0.046705117654505614
   186   1      24.432323486144544      6.4806453677840903      1.9852605159393764
   187   1      22.931776652986112      7.5805836291487525     0.16020353820854313
   188   1      24.064548423229624      8.7685661117775382      1.7257939077069084
   189   1       22.96605755869987      10.348340260409818    0.051014884493645371
   190   1      24.433284642313673      11.430278135153733      1.7595574615746734
   191   1      23.026518796433443      12.930754856058689      36.083614849240597
   192   1      24.213175336049755      13.763742839284888      1.8616343540374933
   193   1      22.990833000429653      15.347523196690092     0.13789931921413645
   194   1      24.368583555898358      16.653683273620533      1.7700667631850147
   195   1      22.970603113366973      17.911727401013447     0.00531407070700425
   196   1      24.497701644708339      18.970364457734917      1.7860237294490044
   197   1      23.033106765769865      20.338002312359524      35.997606672202828
   198   1      24.247672486426094      21.770934174259054      1.6179207648256915
   199   1      23.000012682446322      22.952761271161002      36.025033471296716
   200   1      24.222157173534058      24.514371796014057      1.7844051625706481
   201   1     0.13343569397395441     0.21176264565078995      3.5940942038457706
   202   1      1.4770951107940167      1.2651310943251592      5.4970118825767873
   203   1     0.09865882239512444      2.5360661465148229      3.7288043174316723
   204   1      1.3485304861858989      3.8842703297859975      5.4104728747731023
   205   1    0.073645644377036329      5.1384442277785976       3.638981364746078
   206   1      1.2399594774407976      6.3225253526429235      5.4042344812253233
   207   1     0.13198077494865801       7.668987122569872      3.7641499961631451
   208   1       1.270232017131834      8.7691493266176845      5.3674809576646521
   209   1      25.456890983533576      10.148951488393172       3.544826603921468
   210   1      1.4924188906787357      11.258337795164179       5.267206234057225
   211   1    0.058015615487183508      12.672120632577393      3.7556469218232089
   212   1      1.1866251028995427      14.170692014385232      5.3094413936170239
   213   1     0.16477809403181429      15.305942592169158        3.58323857820452
   214   1      1.3514002116764532      16.776828823961932      5.0924606772723582
   215   1     0.15695379473450821      17.897744540509297      3.5984636860692598
   216   1      1.4811900767172597       19.14137229740744      5.3410747348853551
   217   1     0.18657864622316417      20.475347287027525      3.3904412553295527
   218   1      1.0659327817901036      21.742572600148584       5.432564830856486
   219   1      25.345289277234457      23.232619971441576      3.3665809015836534
   220   1      1.1113610833483836      24.324322519335979      5.2765282437090866
   221   1      2.5817676032005408      25.425518191016835       3.523481072301978
   222   1      3.9089648173345672      1.1968119768709564      5.4313164933970128
   223   1      2.6759891679593597        2.61206097405389      3.7550576623662164
   224   1      3.8331985750997339      3.8781478795396995       5.517200577313802
   225   1      2.5274526655603826      5.0684264841992377      3.5713042551923304
   226   1      3.7084904233169218      6.2556901582723006      5.3624908678201795
   227   1      2.5079063646603679      7.7978998301496496      3.3926990487897917
   228   1      3.7772194955024085      9.1347180227682383      5.3473362351068072
   229   1       2.465320573109667      10.310182035963233       3.402174187879734
   230   1      4.0555310035421366      11.638029432037316      5.0960611113486953
   231   1       2.553220738424876      12.739736266927949      3.6660166424981067
   232   1      3.8453705232901823      14.064283602484668      5.4049397594748623
   233   1       2.525259069666911      15.262227150499818      3.5000506604002792
   234   1      3.8037339517818367      16.645187222745445       5.240396480424975
   235   1      2.7230511551142178      18.089740703760679      3.3486089510723014
   236   1       3.917885759666631      19.164657553250272      5.5938339958460279
   237   1      2.8151193052162471      20.598735702420647      3.5013192067880023
   238   1      3.8755126488059592       21.75364047599712      5.4149168668097394
   239   1      2.5193445327082009      23.023829472205392      3.6187920020717357
   240   1      3.7388524157929304      24.292927767910275      5.6751388538366072
   241   1      5.2984051956712133    0.038944651910305342      3.5724024728736716
   242   1      6.3686563976352248      1.0967857266471142      5.5409064599971041
   243   1      5.1123048867348695      2.6101586538433428      3.5814508921211554
   244   1      6.2772819344491433      3.6305518836581596       5.547224128183359
   245   1      5.1741054679254921      4.9575246797619208      3.6857866907751471
   246   1      6.5298536422368096      6.1571494624694116      5.4835040471521284
   247   1      4.9858900013525966      7.6469002491549833      3.8211487330425538
   248   1      6.2524372429759856      8.8141139044187806      5.4375950907563642
   249   1      5.0394085210443222      10.097408499703288      3.4403826514104718
   250   1       6.454518875429275      11.516825616710294      5.1959568672134031
   251   1      5.2112959076496077      12.643092527481386      3.5020783459182794
   252   1      6.4332245915330537      13.849689236191496      5.5381269028758506
   253   1      5.2464082406288952      15.314180433488582      3.7614006362330241
   254   1      6.6209240876895938      16.564064947833696      5.2746214008669181
   255   1      5.3975899413367259      18.045634500150996      3.5151339779279613
   256   1      6.4539557182504961      18.956695007658894      5.4402225839856291
   257   1      5.1505971287836747      20.508893337394223      3.6896341483007729
   258   1       6.472861765754268       21.55603981428191      5.3803689391771465
   259   1      5.0119791993815275      23.204536812905911      3.7541309009789896
   260   1      6.3319749791040341       24.23239834149993      5.4424090254300204
   261   1      7.7911061242530817      25.477895815239673      3.6168988492382059
   262   1      8.8130286605599846      1.1759435040719506        5.53243766386991
   263   1      7.4028880829535399      2.4023574550985201      3.6797164504187592
   264   1      8.7481883774502833       3.513890938364812      5.5486147480239083
   265   1      7.5573173596907779      4.8747407596777457       3.814915287325868
   266   1      9.1395738889704354      6.0545022092476151      5.4821145564506644
   267   1      7.5239329235106567      7.6250370859472154      3.7612921727712849
   268   1      8.8667616311878508      8.6139163294404355      5.3158688108809233
   269   1      7.6691497451890971       10.00165068341242      3.7531879898431657
   270   1      8.9513698136153419      11.448488712409642      5.2362835842081976
   271   1      7.6067616236370377      12.862652604531474      3.4195907430682619
   272   1      9.0884583778447965      13.905407167170996      5.3727477934371493
   273   1      7.7858885068171038       15.27776057017847      3.5843212399053517
   274   1      9.1432823465796247      16.404938715436515      5.5132830571475546
   275   1      7.8191915999965227      17.755168861808233      3.6373440359160805
   276   1       8.900760366127642      19.018457522786822       5.467743604418982
   277   1      7.6647482279645951      20.357384273974915      3.7248958564966368
   278   1      8.9195166241556691      21.662261869467887      5.5857950971895738
   279   1      7.5829629045016951      22.888952926462903      3.6295802025689712
   280   1      8.8728953592145459      24.136009257358239      5.5450593209783312
   281   1      10.163629842696015      25.375363092514615      3.6800500705195667
   282   1      11.530871864258172      1.2028299426733062       5.384010373907901
   283   1      10.185754454657518      2.0880567394593426      3.5037176396986069
   284   1      9.9154530941411885      4.6033968602425892      3.7887377315082684
   285   1      11.570305418587362       6.254626598617369      5.3360766468536145
   286   1      10.245368581461014        7.50721340115554      3.7758937112457431
   287   1      11.502064854218421       8.974015235873507      5.3002552559224911
   288   1      10.104264686836785       10.26051589906848      3.6913794287872506
   289   1      11.503927540919216      11.543671270318583      5.3692214159587222
   290   1      10.197726665475981      12.755766601660017      3.6718914180857252
   291   1      11.604581929821743       14.19131629504721      5.4378768877662065
   292   1      10.349634022214811      15.283642218994387      3.7023149683085137
   293   1      11.718416938080782      16.627007684471021      5.5687441081627131
   294   1      10.284937797712258      17.677999981847005      3.6353769030383005
   295   1       11.43400134981913      19.180697495627857      5.6127859036675849
   296   1      10.306222850998019      20.529417367670128      3.8231684459171849
   297   1      11.803539986729978      21.702888098733919      5.6030002088947448
   298   1      10.291088362047629      22.810981969376488      3.8187494290419557
   299   1      11.559626680994102      24.390671997042478      5.4903403889237739
   300   1      12.798959381529889       25.15950213053312      3.4301950034028321
   301   1      14.147604518612088     0.91563845390722154       5.515798418790073
   302   1      12.637010540524226      2.3905503162813866      3.7190031244803623
   303   1      14.145274788258478      3.6516464603251491      5.4987806943712014
   304   1      12.695776334812845      5.2415445035286412      3.6338105580704205
   305   1      13.816515463077243      6.2613347753207602      5.5928745258653594
   306   1      12.823155391721968      7.6331535620171476      3.3098898796393792
   307   1      13.989087061749938      8.9847216154003089       5.245369904787947
   308   1      12.740039640948179       10.18739606914087      3.4727194418646037
   309   1      13.980694427912949      11.778778916174739      5.2880021919590847
   310   1      12.776293690754178      12.895292535584424      3.6099257393637125
   311   1      14.024860901775693      14.154653585595014      5.4419955519230445
   312   1      12.877810706783741      15.416982434159106      3.5948114343070632
   313   1      14.200581703756621        16.6231685410274      5.3791760712230303
   314   1      12.581631919048212      17.689568232822911      3.7630799093268221
   315   1      13.987436774337686      19.089220295886779      5.3185863444584642
   316   1      12.680322128491801      20.392810593611788      3.8465888103667965
   317   1      14.115343179197872      21.701365572002526      5.4353081324531294
   318   1      12.671420873306934      22.771473226282506      3.5901612301413492
   319   1      13.947449397608658      24.114255267891302      5.5951790666690471
   320   1      15.303788942300807      25.448464892017974      3.7103475596401876
   321   1      16.803631381952886      1.2606619914646313      5.4980556003246752
   322   1      15.230490345819817      2.4307144396375326      3.8500834640046913
   323   1      16.618378359847569      3.9355713622800623      5.4434887085635006
   324   1       15.23829744533748      5.0704441142069356      3.7776209430394019
   325   1      16.501581401833473      6.3420186082827295      5.8031604789630995
   326   1      15.382884765638535       7.530107391073523      3.4793174241404716
   327   1      16.632661396928125      8.6994602282097286      5.2189493433355008
   328   1      15.221866736811062       9.955083514384512      3.6749371926131409
   329   1      16.482991717750828      11.311247856155004      5.3056940386171831
   330   1      15.412615559329184      12.654462835102006      3.4724100709600059
   331   1      16.647372175883103      13.779188911145202      5.6495643645047018
   332   1      15.461760567172233      15.047814065543601      3.8377649321277638
   333   1      16.666841040792736      16.495266508531472      5.6457086628539148
   334   1      15.582330174968085       17.98007760059949      3.7574188643976685
   335   1      16.823183156325658      19.115368760765232      5.4271942800189645
   336   1      15.409952202153537      20.428866016896574      3.5801268258503245
   337   1      16.542996694217351      21.582311771896261      5.3122302163110247
   338   1      15.318122964986634      22.918685421783028      3.6344285386849218
   339   1      16.760252906114022      24.235496998596716      5.2656582722289524
   340   1      18.100018690634592       25.52561747566638      3.5527204269498855
   341   1       19.32564944974343      1.3178714538609353      5.4456401533528407
   342   1      17.730353752417436      2.4015711112829927      3.7876441836096979
   343   1      19.275418483151018      3.7714749931740115      5.4726613454040223
   344   1      17.672014076153101      4.9503503463628906      3.6494974733301437
   345   1      19.133052249986335      6.2273939379399668      5.3982705477150157
   346   1      17.875016862080685      7.4664602086874803      3.7384266247209061
   347   1      19.317385516195987      9.0124329895666762      5.3762418202976754
   348   1      17.911063582583793      10.154446553688873      3.5121938063245679
   349   1      18.922545933620039      11.388213783392972      5.4265886589763701
   350   1      17.960150415324282      12.749853794989514      3.4919310371409202
   351   1      19.062613952306641      13.920191614777522      5.4702339634437314
   352   1      17.760013468878942      15.204324989834898      3.9109653660212831
   353   1      19.391391745380623      16.542999032950529      5.3433954739234419
   354   1      17.987876891707618      17.651546874453583       3.842485042678863
   355   1      19.333246491338823      19.192390078953029      5.5249624276238345
   356   1      17.915190767942796      20.480759932726194      3.6823458967334002
   357   1      19.216282178326104      21.822209571389543       5.420053187227885
   358   1      17.949279116466339      22.933887066412566      3.6429565902341481
   359   1      19.205094589375584      24.376524868711108      5.5520119330989095