dump/Cu_720_5/steps_51 (written by ASE) 

1995 	 atoms 
1  atom types
0.0      25.526554800834361  xlo xhi
0.0              25.5265548  ylo yhi
0.0      36.100000000000001  zlo zhi


Atoms 

     1   1      25.506867328785038     0.23062651048361593      36.092699717264232
     2   1      1.4033251785094594      1.2421217790348238      1.6465051210276112
     3   1      25.481953682148141      2.6884914582408035      35.941428143647578
     4   1      1.4517017612750134      3.8941844731479063      1.5965624569086108
     5   1     0.10019743819939664      5.1810514361623783    0.019772680368487259
     6   1       1.504080067648607      6.5202069824799613      1.6916251025742557
     7   1     0.23437288529829928        7.75759724464148    0.032903424844789704
     8   1      1.2556932641431775      8.9420614647559109      1.7672247103685903
     9   1    0.040847485935891409      10.201058950049553      35.982395162349341
    10   1      1.1698284192708353      11.374913702155613      1.6993020587508667
    11   1    0.025640298050799717      12.671712997925283      35.957516577645691
    12   1      1.0854305435772647      13.900804437314473      1.8581567036193849
    13   1      25.509373639384791      15.583450380709499    0.024544172779292238
    14   1      1.2664352623940736      16.550233641981531      1.6297993465675844
    15   1    0.030727036176534696      17.890926037055284      35.849324273913055
    16   1      1.3416468217471935      19.000972163186546      1.8317204650048096
    17   1   0.0083381642159599621      20.259061402068898    0.023122759582713575
    18   1       1.464649144076438      21.670795037978543      1.8519568855917656
    19   1      0.1567686274414905      23.239291959073004     0.15305691795275622
    20   1      1.5516995316206577      24.263215347533137      2.0415415305679403
    21   1      2.5734574388407303      25.500499946601494      36.060701900520009
    22   1      4.0204119578377373       1.275072428494066      1.8389642015197976
    23   1      2.5285228944738263      2.5269256283199804      36.079934286139398
    24   1       3.930764299279256      3.7469584512696184      1.4311591855759609
    25   1      2.6820141902735051      5.3936488512836593      35.948745284240196
    26   1      3.8933491603350978      6.2651794208715161      1.8212981886037705
    27   1      2.6262106293672778      7.7872456904143768     0.10269914730743036
    28   1      3.9312610850470975      8.8273051666598299      1.7081981957931818
    29   1      2.5670329307868505       10.19498286401048      36.040353628206553
    30   1      3.6534770177161344      11.409607504791827      1.9053005298217276
    31   1      2.2684353906005765        12.6914539088871      36.023274427408069
    32   1      3.5539059096246706      13.774885504878633      1.8648148738250838
    33   1      2.6018876033186737      15.264673044237179      36.094730431741709
    34   1      3.7359827466569575      16.572507428985048      1.9648113910664948
    35   1      2.4534632449003393      17.783180399061855      35.965609107622406
    36   1      3.8734084582695516      19.291726224765956      1.6326487679333463
    37   1      2.3407125963964517      20.482477276542376      35.974845708113854
    38   1      4.0028431115477243      21.468348449063566      1.6522594051432189
    39   1      2.5602272936771509      23.109493013118662      35.901373102386103
    40   1      3.9079798944007837      23.891563948623446      1.7043554986728069
    41   1      5.2348038556902221      25.462873763683394    0.075425298727463855
    42   1      6.4614942346478319      1.1822217633278296      2.0857041478218661
    43   1       5.148538247121377      2.2101654834654947        35.9723101365581
    44   1        6.27735187007353      3.5429946688813589      1.8412524853184333
    45   1       5.376751266565555       5.018662947434831      36.039969527932072
    46   1      6.5832237891818872      6.2758213868180013      1.6481303448832376
    47   1      5.1177553061957886      7.6319033988529208      35.899861043600154
    48   1      6.3913559721918114      8.7284750774764071       1.789440786124384
    49   1      5.0595150415863674      10.226335045402463      36.092545099931698
    50   1      6.1870842495215914      11.488672602184904       1.572603470021853
    51   1      5.0337046444409941       12.89569520211225      36.068608101397921
    52   1      6.3654165318613609      13.902336828225344       1.698225034401877
    53   1      5.0805262402576288      15.184822941826466    0.015347202868167629
    54   1      6.3144693070316764      16.268344188817689        2.00435107771998
    55   1      5.2381515923254796      17.664807656678217     0.14490939153945417
    56   1      6.3333989093472232       19.36830636543424      1.8697347635212975
    57   1      5.2816975948443723      20.343309878555232      35.910972508142791
    58   1      6.5231358728650601      21.937229369694659      1.8511366019574425
    59   1      5.0850865507512175      22.942007583346225    0.034537060087939143
    60   1      6.3384443648420996      24.147311408324104      1.8719513482659296
    61   1      7.4906830214382927     0.17418657823293618      36.002130534767893
    62   1      8.8957137427007318      1.2630556321800996      1.7064941803551172
    63   1      7.5976145679937712      2.4859249043538694     0.10108691260417124
    64   1      9.0210918829515823      3.6552012355433097      1.7005887614284483
    65   1      7.6897079036993272       5.112784362911345      35.966813783102523
    66   1      9.0304761709740795      6.4623539862029062      1.8754600235643681
    67   1      7.7018312038810102      7.4519028906929279      35.875205182667166
    68   1       8.773310269106382      9.0328168131970905      1.9014119284292765
    69   1       7.689863426960228      9.8959985456192268      36.026994113398707
    70   1      8.7986762763235582      11.477173466193516      1.7121400726090443
    71   1      7.8176353127103253      12.589809995796164      36.061951381880988
    72   1      8.7400615180964909      13.958922607832669      1.7449905375942758
    73   1      7.3943688932526062      15.501102230156462      35.933094194716013
    74   1      9.0239260591901616      16.440647046638905      1.8407463006988569
    75   1      7.6550743618355552      17.926717125732637     0.25989991917326749
    76   1       8.928784870900305      19.122601364131377       1.857784475760754
    77   1      7.7098513626096148      20.433241049259649     0.02962717350318373
    78   1      9.0733619223536408      21.632708875693801      1.7116044237199282
    79   1      7.5784841497075561      22.944531844725326      36.059141291258598
    80   1      8.8962810627331219      24.052713339938627      1.7933767343782494
    81   1      10.071484527914706      25.318836921075988    0.080699637331144963
    82   1      11.389072779490913      1.3497672358876032      1.6712290006080364
    83   1      10.102503880547701      2.3966500515875766    0.015314736908806031
    84   1      11.573726349807192      3.7565010695763186       1.919472998670632
    85   1      10.386452515441711      4.9080110559098777    0.091348487227946862
    86   1      11.517062861074086      6.1697316254164969      1.9579228971662914
    87   1      10.104075630113966      7.8501165456516926     0.19260778399232079
    88   1       11.48326807235996      9.0440689032354413      1.9700571512243659
    89   1      10.116929700858515      10.387100786238936      36.063935992132841
    90   1      11.273619555922069      11.498872980374635      1.7421146099278748
    91   1      10.172242910695655      12.873235550422301    0.074132959276721699
    92   1      11.242975632217522      14.121006179919208      2.0534567640355266
    93   1      10.265389481265975      15.395360682734413    0.098742597047407843
    94   1      11.647070436385565      16.485647852770658      1.8686997308712299
    95   1      10.019835276041727      17.824846580446913     0.13064576945542986
    96   1       11.60962256918344      19.165115360053203      1.8910056509678037
    97   1      10.206773408885057      20.446928941609254        35.9888626296054
    98   1      11.772574202659893       21.63177479835673      1.6893214022850891
    99   1      9.9886735792474024      22.953117028923753      35.897903281944814
   100   1      11.325248848921758      24.124270676805367      1.8340550004994629
   101   1      12.680703375045132     0.19906994993775157      35.997108267356737
   102   1      13.972475388660918       1.303025908752095      1.7330422725204584
   103   1      12.668938947860283      2.6043066953817982    0.016384505677774538
   104   1      13.994732832095654      3.6230548764565644      1.7967651095375805
   105   1      12.896026262797564      4.9705139905972606   0.0066747935053172022
   106   1      14.065783520999501      6.3032344625985974      1.6909638989913229
   107   1      12.422598628217507      7.6329772685064121      36.056425735475152
   108   1      13.788290135601176      8.6733152138517475      1.5715978337883256
   109   1      12.655324936588183      10.347157656159872     0.14401494501524881
   110   1      13.816200606197338      11.539106954543257       1.888667760445389
   111   1      12.773770599753426      12.698956139533893    0.010665499175343013
   112   1      14.123819054249731      13.992106542731712      2.0197407390909232
   113   1      12.997214884011228       15.03608235543847     0.10378198628463918
   114   1      14.090161839682873      16.463062253599009      1.8521474901518904
   115   1      12.638027066974951      17.727373493857193     0.31167816646483282
   116   1      13.954832432815872      19.131241354241386      1.8236296824675495
   117   1      12.664266305990143      20.405778038935097       35.92274805578338
   118   1      14.078157596072909      21.987505754435603      1.5514322164751098
   119   1      12.632736846832781      22.996543502218241      35.874598006732825
   120   1      14.051966098128821      24.328209747349909      1.4982729130782662
   121   1        15.1744764802633     0.32105618287301646     0.14227983839109581
   122   1      16.430844837951568      1.3465986245498693      1.8881069222596709
   123   1       15.36935550737816       2.820261879333815    0.025948176660006071
   124   1       16.55276445765924      3.8375240981851935      2.0945890076118521
   125   1      15.389290664699923      5.0816624594340878     0.15836346878423901
   126   1      16.651290165795388      6.3481811491380595      1.9811751958581576
   127   1       15.19289302383633      7.7141750431428893      35.891097887562026
   128   1      16.757339492189601      8.7609705783110616      1.9713261691192321
   129   1      15.223509866889284      10.224268300341487     0.20790592969142369
   130   1      16.412536448960132      11.234748927434524      1.9679922329885908
   131   1      15.492891580164951      12.694341275002152     0.38468308048799205
   132   1      16.670447321033805      14.021981843630659      1.9662414386671123
   133   1       15.36634733458237       15.38057416777451     0.13025200512518054
   134   1      16.611965746737724      16.878425912432281      1.7888061860106408
   135   1      15.142067288460245      18.058199414146419      36.029100742016169
   136   1      16.524276768755222      19.267501979340416      1.6588971729125761
   137   1      15.214365916026944      20.447980366716681       35.97774831179958
   138   1       16.54066575582852      21.789191595596577      1.7650341172752066
   139   1      15.438909026316018      23.091190615146292      36.098853670094861
   140   1      16.502404675363429       24.34868782763742       1.758250043925726
   141   1      17.888574352821294   0.0045254504076199008      36.073934716709942
   142   1      18.941055813441288      1.2651103307470768      1.8886993797094647
   143   1      17.785896654434485      2.6328643271817591     0.14829266724602821
   144   1      19.089943005001658      3.7967600995724577      1.8252369241167128
   145   1        18.0114526663838      5.1768060941203986      0.2650376208984313
   146   1      19.139811340635312      6.4980098566152513      1.9742319997623905
   147   1      17.830900703894653      7.7658687922418093    0.041122297232709742
   148   1      19.270380014902017      9.1080701351255708      1.8185316649550278
   149   1      17.864935046687176       10.35368344467631     0.20175878359237898
   150   1      19.187425281068723      11.678636956540839      1.7037911404706059
   151   1      17.912856789447734      12.904825508368265    0.018300070566931496
   152   1      19.196259243795314      13.963400846227245      1.8516806520805502
   153   1       17.70675028988564      15.512462920903106     0.12526920034453032
   154   1      19.147876352285071      16.677434647666413      1.7778949653731382
   155   1      17.598334498312376      17.902413921550199      36.060412207282965
   156   1      18.835743532725889      19.305646172540172      1.8593713311026692
   157   1      17.871556818332778      20.556655857316461      36.022143724414512
   158   1      19.122906022800166      21.881138475139466      1.9298445073404995
   159   1      17.854898605344527      23.102656977587692     0.18727356211808233
   160   1      19.184042878479158      24.278519610735593      1.7512963586377164
   161   1      20.176419229961766     0.21356637430942693     0.08566563149718151
   162   1      21.810265600668515       1.571274912511579      1.7713588929698645
   163   1      20.492830332139604      2.6347646351746565      35.914872878285756
   164   1      21.725404731118292      4.1061346243237908      1.9352390717006778
   165   1      20.278400566733023      5.2318573499964636     0.13760256731359272
   166   1      21.550199217070947      6.7957791790357884      1.4868780154529777
   167   1      20.254365865887436      7.6693372639434383       35.83298826661747
   168   1      21.789788543585015      9.0941068923171109      1.7175464718531217
   169   1      20.433583449996693       10.44068761569493      35.992177632818056
   170   1       21.73349291375979      11.747044413455596       1.770208435488303
   171   1       20.53826502971544      12.903154942830097      36.060975096143288
   172   1      21.830951125658935      14.220693227072738      1.8447489904612548
   173   1      20.550547163368105      15.396544320186575      36.096404779170655
   174   1      21.625641974579366       16.82455707709293      1.5435980599758992
   175   1      20.169004361048355       17.92375359071006      36.087153720033108
   176   1      21.626861555739506      19.268168257068425      1.7652084381905992
   177   1      20.300245923465706      20.671548547599368       36.07938586406565
   178   1      21.809243452419206      21.805992799103869      1.8540462774151485
   179   1      20.279286746701302      23.132479753373019      35.836768438536261
   180   1      21.754678538622677      24.298380386441846      1.6464706055653657
   181   1      23.005155493441698     0.34520620959804033      35.972720283901424
   182   1      24.445662901924649      1.4394981664021809      1.6157150175878305
   183   1      23.003018225109024      2.8931279409630326      35.954897237293153
   184   1      24.224225609192022      3.8554566048019856      1.8972781714883011
   185   1      22.976060369539486      5.2890786389445843      36.078537311610738
   186   1      24.307599332233824      6.4597515321079273      1.7612506772554302
   187   1      22.935606083652385      7.9270515620010142    0.052698626396784042
   188   1      24.180318664564268      8.9256577123060552       1.627226913776201
   189   1      23.022691742015901      10.305444880761353      0.1198302582303539
   190   1       24.26541133564891      11.651268541784429      1.6872173399724943
   191   1      22.976865724682497      12.655290201012548      35.940000049908015
   192   1       24.05836273140638      13.920350014652783      1.6299425531333778
   193   1      23.046083674731531      15.272698238982892      35.883912494773121
   194   1      24.072892042261174      16.455854875611685      1.8015853752905622
   195   1      23.245167251498128      17.748569284756755      36.091561497417821
   196   1      24.308507365139636      19.054063795630594      1.7471892608626025
   197   1      23.025626510645154       20.21496185995187      36.006763453450603
   198   1      24.510152523953042      21.589267786604651      1.7559698086962143
   199   1      22.943767568038918      23.123176179129793      35.920545287654612
   200   1      24.459135652460215      24.380994293143047      1.7013743909477868
   201   1    0.063098738053796302     0.25935156697744971      3.6519600812905186
   202   1      1.2722105798600347      1.4347934625172321      5.3814808203054145
   203   1     0.29669616644769509      2.7989572917400669      3.6109079251809937
   204   1       1.004408473812046      3.9245824943053442      5.5682509677806546
   205   1     0.12514680369179917       5.254486733087572      3.3673299895024793
   206   1      1.2974524511085423      6.3352142174514627       5.396354499732837
   207   1    0.054554289728341879        7.64601511250833      3.4006399938942411
   208   1      1.2721407838176322      9.0470893537185137      5.4533978430915928
   209   1      25.475169441738622      10.194668486476864      3.5578735674467112
   210   1      1.2888526611097575      11.430974391236811       5.548336180284152
   211   1    0.038694019852142256      12.681257099147787      3.4230701240723533
   212   1      1.2428828278488495      13.965186006527667      5.6012073668862756
   213   1      25.524670685538577      15.104459240543941      3.6823093745083413
   214   1       1.263657846537144      16.610399787241281      5.5611958879361865
   215   1      25.333134714948443      17.924818695038951      3.3874291847986355
   216   1      1.0803817612378377      18.953889795860182      5.4080771660087965
   217   1    0.075116389156259136       20.36358814523436      3.5353849437676801
   218   1      1.2577263991924654      21.562440691336768      5.2967160294013889
   219   1    0.094462955952003075      22.914987104908512      3.6922172995022153
   220   1      1.2158039396870179      24.448422567250102      5.4392920546371464
   221   1      2.6199717180405995    0.080354488052336789      3.7197732520947571
   222   1      4.0498366452916921      1.4556637432394492      5.3533331401558106
   223   1      2.7541696979770069      2.5880890638156688      3.4259375791017175
   224   1      3.6950397212491861      3.8902433947052977      5.3348521973807985
   225   1       2.676518550633328      5.3241150318956372      3.6692655348682313
   226   1      4.0797847191426744      6.5088938305298223      5.3906530515577664
   227   1      2.3704402564425386      7.5947207667749135      3.5905250032650082
   228   1      3.8992510175035795      8.8408668647736555      5.4061866186639929
   229   1      2.3894985869071252      10.255308152704496      3.5379457195794659
   230   1      3.7834841731237003       11.18482618212585      5.3744331881085214
   231   1       2.706073581963691       12.80231802288551       3.722682531470364
   232   1      3.9376468288691386      13.879514400634628      5.4009699178164281
   233   1      2.5136697496009721      15.290803808860042      3.8210177902919296
   234   1      3.9133373386264148       16.44221871919385      5.4138345345938212
   235   1      2.4753323122868705      17.749663345652213      3.5947845837590551
   236   1      3.7086510051468529      19.020293064480484       5.478211738215113
   237   1      2.9930210105488859       20.40468395177043      3.5402153573466077
   238   1      3.8292432967904282       21.68352841999231      5.5470138460931659
   239   1      2.5826004688530553      22.917225953692885       3.721275070846028
   240   1      3.7935931102935223      24.117316531369184      5.2796758008474454
   241   1      5.1578356093333912      25.273881875442918      3.6375566196524209
   242   1      6.3442363680534282      1.5278073105826402       5.413571647315873
   243   1      5.1672922136371611      2.6748501769714812      3.6110127538388204
   244   1      6.5397522491052928      3.8958239669203025       5.189634686874431
   245   1      4.9960727223532535      5.0820285776095071      3.4982567661757673
   246   1      6.5383584287779497      6.3273168624176117      5.4348630227731736
   247   1      5.1463154801778508      7.5235949434362688      3.4692213527340656
   248   1      6.2332422237309801      8.7020156569301239      5.3495529840111153
   249   1      5.0530808336022757      10.068655448312892      3.2615980114163916
   250   1      6.3696438763345951      10.975949203661465      5.1909567446874627
   251   1      5.1312723499141235      12.562686443543571      3.3722541382641587
   252   1      6.2516247183190723      13.811797353439232      5.0411995369182652
   253   1      5.0503560987649054      15.274079155793494      3.5009150006103487
   254   1      6.4240576233039537      16.582714497780621      5.2672088082932795
   255   1      5.2150541241542774      17.962555809308554      3.5267287019529241
   256   1      6.3952460071975716      19.042997041359907      5.5098235467876036
   257   1      5.3551940271051963      20.561048388792273      3.9552466377256614
   258   1      6.5814467617978121      21.618033456299891      5.5945627020993483
   259   1      5.1350144419498536      22.925053833324181      3.5875133462503745
   260   1      6.4052137059271725      24.255390299769765      5.4401376701689674
   261   1      7.6563344932694175      25.417785552525505      3.5707259457066014
   262   1      8.9607331086714357      1.2245931282368288      5.2840845144910942
   263   1      7.9467878293627852      2.6987935852234402      3.5900061688976073
   264   1      9.1106652989838608      3.9361806111448061      5.4046292679348706
   265   1      7.6348189325064979      5.0154171873470714      3.4320709581213249
   266   1      8.8366531053758113       6.485678100474674      5.5925100488935335
   267   1       7.720345498934071      7.6639327562252078      3.5912033781180979
   268   1      8.8464800188089932      8.8455222748923141      5.3231056621529884
   269   1      7.5199326750699873      10.301244437193738      3.4992868532479067
   270   1      8.6403962321845942      11.406230731197978      5.5960337703618253
   271   1      7.6098370102546884      12.771940583696933      3.5523562643312077
   272   1      8.8672651183890014      13.995498408100115      5.4945635992987141
   273   1      7.7127238847229256      15.346288103938569      3.7885819944062984
   274   1      8.9280008547882392      16.528313398245601      5.5630080043294754
   275   1      7.5067925505873792      17.842156760418071      3.4916942549472778
   276   1      8.8645210663527614      19.328013702590223      5.2654536909357805
   277   1      7.6080912082264485      20.672771737339211      3.6386098005975613
   278   1       9.060008519791662      21.704478766556509      5.4230188572319031
   279   1      7.5698771463248447      22.961716983737425       3.756489471038031
   280   1      8.9307656243357005      24.257647398553512      5.2670470660099546
   281   1      10.074814962035468    0.048669771246616908      3.3277249729110521
   282   1      11.288012005522786      1.5261444123818622       5.227266573204548
   283   1      10.237908856184625      2.8276389046300894      3.4934342114336561
   284   1       10.16252621371261      5.1300248018017083      3.6566512876250514
   285   1      11.353597923694281      6.2923770117969795      5.3946910275724713
   286   1      9.9806392221612779      7.6755076154646753      3.5746461989044986
   287   1      11.509268017713632      8.7961992943104761       5.420785073104045
   288   1      9.9740861501089508      10.206491378163349      3.7469834987577055
   289   1      11.349037307718154      11.598689258442876      5.4325236894849507
   290   1      10.061933319536909      12.697439604520341      3.5179064829707154
   291   1      11.236355100735532      14.023488298315469      5.4599170340066401
   292   1      10.242793938517387      15.309599177607584      3.8337548870230145
   293   1      11.669943095799495      16.464875130313981      5.3264021681137601
   294   1      10.062911575078219        17.8168253063366      3.6197933824738273
   295   1      11.484477283739706       19.04829666599349      5.2266122721714972
   296   1       10.23508488755507      20.400992322515581      3.4413915078809745
   297   1      11.507826392009029      21.688814852472987      5.3644408407551198
   298   1      10.226028428687011      22.850206104046595      3.4976715437034374
   299   1      11.517632828448622      24.063936733095982      5.3467617160317422
   300   1      12.739357698993384      25.288831691040382      3.4120283698788958
   301   1      14.039004193375767       1.223851659972502      5.4311139047896537
   302   1      12.727180326072734      2.2193230162641209      3.5327366405531277
   303   1      14.054623106949924      3.7369039182977049      5.4779381197797967
   304   1      12.826665837174442      4.8454851349074453      3.6332977500122352
   305   1      13.862925553721594      6.1826487258744462      5.4049844486763128
   306   1      12.728101160625169      7.4492860702591619      3.6426496065994201
   307   1      14.217449664204732      8.5741785045424965      5.4565429905640119
   308   1      12.427739395241193      10.138294363777371      3.6567001233371559
   309   1      14.020399714953751      11.122025010358136      5.2600288377975195
   310   1      12.840625088390341      12.907317120088054      3.7409116250085157
   311   1       13.98791760333931      14.079763239627692      5.3707505828548667
   312   1      12.914134838398269      15.309219433715478      3.6503607992583249
   313   1      14.111023879777532      16.530797777468695      5.4950899723096507
   314   1      12.747858261532212      17.738850021479852       3.607545965703888
   315   1      14.130084876578055      19.077270879924974      5.5096928959489428
   316   1      13.024373674555118      20.573902554450306       3.598777727610265
   317   1       14.03988034882433      21.924811522231984      5.4154861389760081
   318   1       12.70830315456635      22.914378042824428      3.3538461371645316
   319   1      13.960932352592923      24.233775205455654      5.3648397552318743
   320   1      15.289940681344778      25.420199456652167       3.712395808343699
   321   1      16.725545698732418      1.4152726213416649      5.4970673299364199
   322   1      15.294014298973751      2.3358536127243887      3.8463339324392121
   323   1      16.742870858030702      4.0088553495457786       5.502661303904909
   324   1      15.278261787049571      4.9027050016299834      3.6384576332742347
   325   1      16.450696739882005      6.3969432053655275      5.4630738174251716
   326   1      15.297880485055391      7.4495946402176338      3.5700000097911802
   327   1      16.735123528184207      9.0024871356086003      5.2767004500921981
   328   1      15.100017742895163       10.15960489349615      3.5020672138893474
   329   1      16.489007929729883       11.52443117251995      5.1835553139959263
   330   1      15.405734784178062      12.880828285394216      3.6209479946085752
   331   1      16.552489151557978      14.286041095757669      5.2923917565610488
   332   1      15.534393114573506      15.310585058438679      3.4350652909102894
   333   1      16.398575568191568      16.767815928192135      5.5811326618854933
   334   1      15.337169230738228      17.961849909934276      3.6247628197866679
   335   1      16.623815781954566      19.139561779140099      5.5238468871532538
   336   1      15.277449460546395      20.423843670937224      3.8025543763316874
   337   1      16.539307032021469      21.822467595955075      5.5420076410852657
   338   1      15.272782009325548      22.892381110342662      3.4208722523052071
   339   1      16.600808917984867      24.375468589781772      5.4933361182172131
   340   1      17.782521313678853   0.0024319074227195695      3.5667746809502665
   341   1      19.253626135306703      1.2556331840294701       5.190880012240191
   342   1      17.851796699775413      2.6078441995463839      3.6483900965978204
   343   1      19.373514791388278      3.8702926584365622      5.2611901264491525
   344   1      17.919587388139902      5.1599117965192507      3.7326893156176175
   345   1      19.217639134472741      6.3520781226644285      5.3965322905414066
   346   1      17.872355167297069      7.6921902489406389      3.7776708970106645
   347   1      19.199830732348605      8.9517399809925404      5.3713257970035215
   348   1      18.064272228620197      10.324075463152161      3.4635856727362699
   349   1      19.070560463234347      11.423252629043898      5.4486239755508326
   350   1       17.93752768227073      12.808148672581407      3.5225761710394083
   351   1      19.222691753111572      14.107668102824254      5.3759910569426808
   352   1       17.95107956858724      15.482698848149509      3.3617453084523516
   353   1      19.196309973000151      16.758686273419389      5.1825967194474059
   354   1      17.609820456397319      18.006927828926603      3.6372300847829488
   355   1      18.993637209734683      19.152016871263239      5.3324712681104582
   356   1      17.782164183669352      20.714424432775324      3.6165581653130014
   357   1      19.173656015818306      21.773094633230144      5.3072863106830397
   358   1      17.804125647321001      23.041554793024822      3.5392492833150881
   359   1      18.982132364030129      24.202621624175194      5.1339354781905699