dump/Cu_720_5/steps_31 (written by ASE) 

1995 	 atoms 
1  atom types
0.0      25.526554800834361  xlo xhi
0.0              25.5265548  ylo yhi
0.0      36.100000000000001  zlo zhi


Atoms 

     1   1     0.11463857642862402     0.31940727527607521     0.22198944239954707
     2   1       1.437508015536437      1.2623485600738442      1.8879157775021678
     3   1      25.430061162815889      2.6992477631730534     0.11455680239284891
     4   1        1.29640884477526      3.6869807708397788      1.9400319469504095
     5   1    0.065202846387214825      5.3075238488192884    0.024564229864256503
     6   1      1.2856197427223492      6.3266099986512376      1.9055688750123074
     7   1       25.48409115242027      7.7723354554574469      35.965879355602681
     8   1      1.4123591439380074      8.8796830550199122       1.875777784166347
     9   1     0.24876372201275704      10.168994749498694       36.06997497560647
    10   1      1.2430354825746206      11.361818744397253      1.8175180115569107
    11   1      25.464847701939689      12.777713740720822      35.988556331311436
    12   1      1.1332778328018869      14.071764256011862      2.0743978537668784
    13   1      25.330943009098473      15.230775379311623      36.058683241673386
    14   1      1.3449012059960341      16.618540792939179      2.0079882855121225
    15   1     0.13755453294011108      17.790570766136973     0.12875198369659982
    16   1      1.3835897997133857      19.265402206726062      1.5679505705944499
    17   1     0.19002355825001879      20.438292741020785      35.993010539086505
    18   1      1.2516467987589643       21.69363592228337        1.90057791479601
    19   1      25.393542813689706      23.315243589013622      35.913671068054839
    20   1      1.3198062431281523      24.283639688574642      1.8644659643991066
    21   1      2.5371231522571662      25.476815536007472      35.970006087318268
    22   1      3.7391527036792356       1.091470073810854      1.9945419761204772
    23   1      2.6053897676595379      2.2514128975286183    0.061214941457762968
    24   1      3.7400061039887471      3.6123606885196251      1.8864636034457831
    25   1      2.4203916066393987      5.0451064851064604     0.17846267051971845
    26   1      3.7406315985868108      6.2531090906884588      1.8175724845839232
    27   1      2.7270027619422383      7.4331801317180206      36.096256266562236
    28   1      3.7661035360176802      8.7250163462051002      1.8744753360509343
    29   1      2.4912410416905661      10.125920637949575      36.092779670239842
    30   1      3.7593424572611442      11.202407894086543      1.7813458736077563
    31   1      2.5724251661024571       12.73414563785296     0.07862668902340611
    32   1      3.6278419148563104      14.034506816341139      1.8094296835351318
    33   1       2.402827402224192      15.292506552645406      36.060819381693861
    34   1      3.5887587245650021       16.62997199046228      1.6475305349023872
    35   1      2.6126845628472801      17.938848541908545      36.044406898830424
    36   1      4.0985673992929215      19.320809628945042       1.735802939428869
    37   1      2.7102984073646388      20.547943186441405   0.0051716665861477043
    38   1      4.0388688949311744      21.742214485215079      1.6988837365636309
    39   1      2.6792557099342384      22.944635732691133    0.047304338673120595
    40   1      3.7956366162086081      24.085800741312021      1.7248920314700396
    41   1      5.0934029634702007      25.286661056003926    0.030424742958939554
    42   1      6.3410000350524145      1.0526391739094485      1.8730337769198393
    43   1      5.0025905053556983      2.2436277016211368      36.096203000769087
    44   1       6.363958877472351      3.7114986888680548      1.7949884096974889
    45   1      5.0797871760260573      5.0456346962266965     0.23112646545126844
    46   1      6.4018104870208816      6.4639366937423484      1.9568697538023452
    47   1      5.1128532622881178         7.5665549933789      36.076548229959869
    48   1      6.2747347278593324      8.8325708278226926      1.8456321710111878
    49   1      4.8315241328703999      10.149968251704919    0.046727569113545614
    50   1      6.5224283319440026      11.392983998288226      1.8261994362125269
    51   1      5.1540783992596522      12.784771763719023     0.19983862192821122
    52   1      6.2790953980713651       14.02806316773534      2.0507788912485712
    53   1      5.0755905145680087      15.341578536951014     0.23597757569319824
    54   1      6.2567198094485095      16.564594733051614      1.8920000636305654
    55   1      5.1505580795170172      17.724179951926256     0.04205404814449578
    56   1      6.3826087162273266       19.23243752282778      1.9554762913959409
    57   1      5.5269455529643192      20.392234595196896      36.003054736480401
    58   1      6.4927368544287045      21.633453750065918      1.9214730399004687
    59   1      5.4500388628748331      22.956847833503787    0.033831287483769762
    60   1      6.4949349305479211      24.229484316244889       1.926711129866236
    61   1      7.6016434159551185      25.384535269003713   0.0033755645432961509
    62   1      8.6544044804222757      1.3161967393380187      1.5741681547971902
    63   1      7.5672511004374332      2.4795764749051461      35.815447797636374
    64   1      9.0796869745894675      3.7352518829560446      1.7515446436447404
    65   1      7.6953136218937024      5.0694950939463954      35.873738360408858
    66   1      8.9597584710398799      6.4787265926704203      1.8246008768006288
    67   1      7.5334153088949156      7.7774601854415977      36.063175335687923
    68   1      8.7507532052820327      9.0261306757853124      1.6390429349289533
    69   1      7.3443325839851559      10.196825334799074      35.959825636140536
    70   1      8.8711968253972238      11.490065345915895      1.8355341357051078
    71   1      7.5515497021329905      12.724499970314504     0.19893611709176176
    72   1      8.7649313519241776       14.00209139542913      1.7404157358987296
    73   1      7.5057835660307619      15.305756678165574      36.012185432009019
    74   1      8.8424282181120351      16.636401579480012      1.8246643560421476
    75   1       7.797378197833905      17.873092622713035    0.017073301664902361
    76   1      8.9077263808425062      19.133488868958601      1.8052608507752204
    77   1      7.7298447316343895      20.188637671101215       35.88686168466527
    78   1      8.9069007657924679      21.753275276744745      1.8787934620652995
    79   1      7.7694693782248105      22.841966290337048      36.038737548272188
    80   1      8.9606094779293546       24.17796808298154      1.7969552780006912
    81   1      10.276129180630559      25.372786602511031    0.036704570081565337
    82   1      11.501981984188093      1.1885820892963839      1.7114494941150282
    83   1      10.350891023039651      2.5136300624606962    0.021149025740351147
    84   1      11.639585587231897      3.7172809312091841      1.8310261034218345
    85   1      10.075856622224585      5.0952080709592558   0.0030368924699928353
    86   1       11.44507788520767      6.2169029076708062      1.9103523010597441
    87   1      10.134154974556331      7.5456350324730366    0.084690322804920087
    88   1       11.25302457503493       8.825749765547279      1.7486719986755344
    89   1      9.9378041434694548      10.264280063777823      35.928157809499119
    90   1      11.435358317507172       11.52695390921429      1.8192548254311656
    91   1       10.27377195871196      12.692101199563135    0.061763734707904028
    92   1      11.558242247969629      14.027117445757526      1.7894552855672361
    93   1      10.207029805021079      15.288344475475691  9.3094841349738997e-05
    94   1      11.379900289249628      16.598736724681462      1.8228896035334969
    95   1      10.235136913867205      17.802289956986549      36.036934666621711
    96   1      11.304837071971548      19.181990813510087      1.6273666903283133
    97   1       10.33940065379735      20.465323549655185      35.992985410308883
    98   1      11.491499871602825      21.764505853923218      1.9653909201209427
    99   1      10.339869909548245      22.770902984317619      36.060332943087325
   100   1      11.474250365648407       24.22974104308209      1.8356061966130499
   101   1      12.801511801416462      25.495037037626705    0.015725721011403959
   102   1      13.967471018963581      1.3296188355175533      1.7496039530601364
   103   1      12.728577686517937      2.3138634856877145      35.932362529225635
   104   1      14.056017982218604      3.8470555316928392      1.7781721270418185
   105   1      12.685349755617935      5.1539756111149897       36.00381210868909
   106   1      13.990220431896535       6.365722027514046      1.8709959586009846
   107   1      12.303415747114592      7.5888555823314512      36.059300579791845
   108   1      13.968248073721711      8.7123496059382912      1.5842780279215944
   109   1      12.475265202702433      10.257599102885321      36.052384407752911
   110   1      13.742014845465423      11.332052976711125      1.6735132900881589
   111   1      12.940243548726889      12.822160517648049      36.079169388890186
   112   1      14.091543985368244      14.142966388957307      1.6977942485875144
   113   1      12.645645261308164      15.496576058683537      35.879439095485161
   114   1      14.152190354604087      16.617782721741911      1.7399041738314274
   115   1       12.76679531831229      17.844010342279592    0.013521699701379933
   116   1      14.098001653061532      19.250300689503124      1.8509142980746687
   117   1      12.703890255668881      20.528459792520135     0.14334895515893309
   118   1      14.086821912306016      21.830566022776722      1.7489242886060534
   119   1      12.690214662066262      22.985225651960366      35.960554855169718
   120   1       13.88334398741093      24.221526646842729      2.0704768866863117
   121   1      15.281862726713603      25.464967606330799      0.2977506408883529
   122   1      16.339163484181714      1.3374535135826278      1.8326312979525934
   123   1      15.252693094041023      2.5979146891810521      35.927904174861929
   124   1      16.561283716292163      3.9374917799213676      1.7136999490514879
   125   1      15.312457483879896       5.290048040527398    0.084410160443712731
   126   1      16.460210958853484      6.4874739914581703       1.710279175252265
   127   1       15.08231462102791       7.620681850245365      35.927686658756684
   128   1      16.446805083977491      9.1393814119751973      1.9104831179336761
   129   1      15.126628672723923      10.329513536321448         36.042613356333
   130   1       16.84128574130548      11.630698551923103      1.8659742480970287
   131   1      15.423229929284235      12.784647518593282      0.2516325098390324
   132   1      16.465969253082122      14.284119605922442       1.748848772042048
   133   1      15.175258085673716      15.201072433872961      36.047175568963866
   134   1      16.628700886682292      16.759728091325286      1.7972681883998018
   135   1      15.244043942052054      17.782956356296253    0.086151211557853491
   136   1      16.411087195565731      19.289947351099627      1.9010262537214098
   137   1       15.36115547185609      20.466042031087927      36.032085265374128
   138   1      16.516600833942441      21.919163384097185      1.9093322968703546
   139   1      15.183701926396028      23.165018910463772      36.005357604184162
   140   1      16.633025498927527      24.206377492914516      1.8918339309425398
   141   1      17.684897554414064    0.076470995529864055     0.21017523561787352
   142   1      19.197033170620067      1.3009816565618133      1.6593135443414557
   143   1      17.761918908694085      2.4322466119643718      36.072609274588515
   144   1      19.112664550959682      3.8467327666329187      1.8186781095121083
   145   1        17.6019290041686      5.0107309841942431      35.823346078694719
   146   1      18.966093764251596       6.334382199749875      1.9368881481820504
   147   1      17.699646737444063      7.8269619809716184      36.070026510183659
   148   1      18.797009450173526      9.0628124643941881      2.0051682652990288
   149   1      17.781175107537027      10.281265844530887      35.921381017088862
   150   1      19.055530337556391      11.669363290054912      1.7351128585563531
   151   1      17.960921123875359      13.051871621072193      36.089155289796132
   152   1      19.187693295944843      14.274842919406534      1.8966531593321994
   153   1      17.764581466365371      15.442606477372111     0.11527448709946396
   154   1      19.382688673317034      16.770622575278466      1.6320826211871355
   155   1      17.933406312023465      17.986280605642637    0.022998778152611969
   156   1      19.096711296024829      19.338704303944823      1.9025638272484229
   157   1      17.949155400836872      20.536849115882699     0.04373147677599714
   158   1      19.114281777453893      21.814698022461872      1.8848011505989009
   159   1      17.766385012848954      22.975165480964609      35.999541877340455
   160   1      19.197608879452705      24.391295740957027      1.6876054369622822
   161   1      20.531053338482199      25.464939914767815    0.038294922842817561
   162   1      21.839987596650786      1.3066632469335289      1.8290362233931887
   163   1      20.294122467821413      2.4719074562764112   0.0054819695758283006
   164   1      21.568999090178171      3.8999675301536416       1.719004373104086
   165   1      20.309724887251161      4.9476093458843833      35.992753535744654
   166   1      21.511969522438367      6.5461526170342124      1.8102259278935788
   167   1      20.248979769376334      7.4246240520259947     0.12366212716846116
   168   1      21.251782616150258      8.8169995603017615      1.8297343561632486
   169   1      20.160961389668177      10.196318930369598    0.054285749075336252
   170   1      21.575378727570751      11.195449731870603      1.9582555105244401
   171   1      20.354945591959353      12.702545810759235     0.14254099733212791
   172   1       21.49458826713542      14.222351979454874      1.8381916027355139
   173   1      20.245016515440859      15.392428418002776   0.0057673113416626606
   174   1      21.782777019726751      16.678510058554931      1.9039556818920909
   175   1      20.612859273772976      17.901164708836717      36.004104983459449
   176   1      21.885250314286534      19.293345315845524       1.944020040938643
   177   1      20.662194011308753      20.423799823498047    0.032137100437637407
   178   1      21.867199275491977      21.830691871998468      1.8086827999502721
   179   1      20.482284740408442      22.925791297391992     0.19927092676036859
   180   1      21.690040051154959      24.263618873770902      1.7849980965592065
   181   1      23.070796181998062    0.020622199703863968      36.055084356734838
   182   1      24.156083306187419       1.270601778719199      1.9632738512012695
   183   1       22.76879485517782      2.5953706397597807      36.091657481197188
   184   1      24.268593487964054       3.984206043733304      1.7532923838958374
   185   1      22.792181639578988       5.216220765115013      36.075716849671856
   186   1      24.205022035588648      6.5862386391726959      1.6114222191534415
   187   1      22.722699662105654      7.7515354144927233      36.079908953501125
   188   1      24.329370959743262      9.2055040598845945      1.6565416420999457
   189   1      22.535510135813833       10.03359309803216      36.075856252786224
   190   1      24.238107605545032       11.35655457734622       1.602326001072889
   191   1      22.838956505752773      12.705935324676805      35.890138826061921
   192   1       24.03794729889832       14.08084566411547      1.9160872126985509
   193   1      22.779905433979383      15.273687349794443      35.981527739845028
   194   1      24.457911705858439      16.767203424534507      1.8442588249816025
   195   1      23.014916812686469      17.952711452836041    0.093046159537084269
   196   1      24.436429932363474       19.27446990385123      1.9721203831573342
   197   1      23.081405722801378      20.411544789163273     0.14843020479278274
   198   1      24.255021194653931      21.890959455620646      2.0046772536986635
   199   1      23.125959808337061      23.105998271531927      35.980734704794358
   200   1      24.182607161595481      24.129658619552131      1.9721721518526132
   201   1      25.433021508968299      25.504029587011843      3.6244683144676166
   202   1      1.1416749122839935      1.1368338572241783      5.3881811159706947
   203   1     0.09583544928890568      2.5112408053013406      3.6021202537796739
   204   1      1.1372208709441891      3.7300919671415467      5.4833052743474768
   205   1      0.1419680743390612      5.2737652560995834       3.715791319296831
   206   1       1.335968720103949      6.2785855051055615      5.3417552732038267
   207   1      25.420458904620975      7.6457478849480589      3.3040935069107489
   208   1     0.95437220643254239      8.6670061710890884      5.2526010776549175
   209   1      25.476611288464984      10.119837522074388      3.6359192597749432
   210   1      1.1590166818080538      11.479378937683093      5.4766684821255565
   211   1      25.169880782900314      12.573674888909686      3.5335446164707838
   212   1      1.2946580503501368      13.945239935471893      5.4069399206838211
   213   1      25.409206992762748      15.343361608559418      3.5469375626893678
   214   1      1.0993865727352605      16.589495496856699      5.4993495089350253
   215   1    0.090064034837171736      17.996279631507889      3.4681146493523576
   216   1      1.1344925119925011       19.03884172008885       5.558421183878397
   217   1     0.13863891939685702      20.497038784031172      3.6604402464211812
   218   1      1.4259444996540536      21.737531661633852      5.2658704689245202
   219   1      25.384792517314274      22.997980559481054      3.7756250772499875
   220   1      1.3305823539069013      24.346475701376313      5.3221218318659291
   221   1        2.64148646551158       25.36466434150325      3.6233350282931776
   222   1      3.6731633356427893      1.1226312155699936      5.5405619854765247
   223   1      2.5041343695482992      2.4190004672155072      3.8991241595200852
   224   1      3.9416657598136959      3.6616859755911011      5.4934110557385498
   225   1      2.5626646401835909      5.0234966429241128      3.4705557184648343
   226   1       3.751744173940867      6.2945057087798277      5.2181031825664643
   227   1      2.5035064733145478      7.6683335189092894      3.6478517074168764
   228   1      3.6032344339013851      8.8161747396572778      5.2657562729985532
   229   1      2.3898995430287671      10.154316692089779      3.6908505283023225
   230   1      3.7862753744861708      11.356111500207938      5.3658866284787416
   231   1      2.3378811744660659      12.589418483346494       3.708703473348228
   232   1      3.7855199270345867      13.816979830505034       5.578325358920285
   233   1      2.5169845733886351       15.24412229748291      3.8827747056522797
   234   1      3.7519028163680797      16.593733655083579      5.6164316080934249
   235   1      2.7314363372000949      17.862238030042743      3.5978793398663234
   236   1      3.8859697813880225      19.062713688250135      5.5019007201496768
   237   1       2.607620700315294      20.447393350680134      3.6449560540260517
   238   1      3.9278470593983252      21.598311904596137       5.444408695867204
   239   1      2.7399629371385634      22.823437768841227      3.2480396687474591
   240   1      3.7636253895813785      24.084716539067692      5.4105631685574211
   241   1      5.1811073017176001      25.442805761310446       3.597193870362982
   242   1       6.235041988453081      1.1891023196712389      5.4281962725796573
   243   1       5.152809843687467      2.3917273151118303       3.453490697964527
   244   1       6.355620947552068      3.6673415677057783      5.3509300335471641
   245   1      5.1444947256787117      4.9861865806372387      3.4891168096319687
   246   1      6.2878493065670193      6.2833804249957526      5.3191728186263454
   247   1      5.1369990046434921      7.6063107376417527      3.6459302707869394
   248   1      6.2307809216419736      8.8921631095483278      5.3754457463535346
   249   1      5.0360199837014621       10.17786183676723      3.6714952592131218
   250   1      6.3499930637173385      11.529445945559612       5.533131268871208
   251   1       4.881640558817665      12.647692339874498      3.6202138141863456
   252   1         6.2160420164299       13.97964535019797      5.4958765642761653
   253   1      5.0011320061906028      15.290034662833369      3.6906351322555158
   254   1      6.5033184792707557      16.737940700447645      5.3146036252174511
   255   1      5.1944438086040225       17.74546062231687      3.5842951525014661
   256   1      6.4780851894682145         19.094310411715      5.3723042932887992
   257   1      5.0846702630658127      20.293960836504272      3.5839957579044839
   258   1      6.4709894924737794      21.415659081468196      5.4176668732414734
   259   1      5.2649895324984657      22.882573515019907      3.8487979968320301
   260   1      6.1571353410139125      24.333683235261905      5.6496503875925601
   261   1      7.6850232709787685    0.053153969735612164      3.4915501248493359
   262   1      8.9317170311762393      1.2266632790370244      5.2845444112493718
   263   1      7.5599095619904828      2.4312517722982077      3.5853652095010142
   264   1      8.8666488327638664      3.8744251804518468      5.2745254382851954
   265   1      7.8191108983190603      4.8262323802185643      3.5127982542321896
   266   1      8.8916731670569291      6.2298076808224216      5.0758474448936681
   267   1      7.5148994362298023      7.8393826780481524      3.5456744197775367
   268   1      8.6716950711178864      8.7561210854903671      5.5551115639925719
   269   1      7.5918282571961697      10.317508235004887      3.6234829423378265
   270   1      8.9536036073915355      11.261942196228311      5.5068369532954975
   271   1      7.7251431900253209      12.771237606017218      3.6854554635955452
   272   1      8.8286926250552344      13.877421220244274      5.4647885717691542
   273   1      7.6585775218495185      15.249864996709706      3.7118938316074241
   274   1      8.9346784066189144      16.538504736996298      5.4592400267323411
   275   1      7.6384871432437285      17.960422961739042       3.495488442376633
   276   1      8.8024123065921618      19.170829717134815      5.3122439900349834
   277   1      7.7212204045029988      20.595300244182358      3.8127291840876478
   278   1      9.1416200527562541      21.603783972377826      5.6062534884396413
   279   1      7.6718238405437962      23.025255771079408      3.6833973638167441
   280   1      8.9011610693922236       24.39791981074287      5.3709822127473146
   281   1      10.335756715901638    0.030953936878015488      3.6356606153594555
   282   1      11.502735220159723      1.4221674632486758      5.3689604141142473
   283   1      10.076768296784619      2.3791897796269232        3.47599993933146
   284   1      10.638284260156862      4.7684752618804449      3.7159991177242433
   285   1      11.613411416632108      6.3333285707977414      5.2619733051507769
   286   1      10.082390350440255      7.7222840723545358      3.6723309635693258
   287   1      11.259942197862891      8.9535437628454364      5.2995918200402814
   288   1      10.219296000225153      10.359241976145812       3.353596971418757
   289   1       11.49249971569483      11.446289782999852      5.1956281188496147
   290   1      10.104890477047569      12.698602021570853      3.8178555402149863
   291   1      11.591677180808842      13.949632550453723      5.4097501777683101
   292   1      10.287599103330315      15.203458872095828       3.619061442842241
   293   1      11.490267504458339       16.53244570910892      5.4763470769888656
   294   1      10.380388381612317      17.815270270868613      3.7510303261188813
   295   1       11.50784471825931       19.11176493168896      5.4438417271610717
   296   1        10.1352060789572      20.408790304912337      3.5998842685888341
   297   1      11.513286735701174      21.574577660367645      5.5161669491916996
   298   1      10.319211449373013      22.876192677256579      3.8043932636535569
   299   1      11.630997857801976      24.153427039596011      5.3476332996695852
   300   1      12.716538258987161   0.0034229647673175842      3.5221686567602108
   301   1      14.092305263059847      1.2431224701838921      5.2776453107798229
   302   1      12.776994323199254      2.5955781109633973      3.7369706484463783
   303   1      13.850190762967589       3.768458665737338      5.6375181806241645
   304   1      13.025207703754658      4.9474447080188861      3.6526558091471912
   305   1      14.140352835665308      6.3908559334130146      5.3558264040630128
   306   1      12.733737189852118      7.6019273658623252      3.4092545854666572
   307   1      13.745884588110766      9.1176169607479025      5.4199382053923904
   308   1      12.649251527677542      10.080380233908304      3.4509882719077378
   309   1      13.959154273416182      11.554970004543627      5.4921650901750647
   310   1      12.865243978744312      12.789044968017238      3.5242258721845356
   311   1      13.964953703998667      13.959329113338431      5.7766009367876725
   312   1      12.692321963257351      15.438506937359875      3.4824074312477475
   313   1      14.058483158966059      16.726248873099223      5.1177096370410213
   314   1      12.576343950602391      17.937499564786378      3.4478799714461519
   315   1      14.029604578804209      19.208786513899835       5.409362535311109
   316   1      12.787771087376598      20.328159196848649      3.6464647003699961
   317   1      14.011079569165652      21.607626755487789      5.4039527002870944
   318   1      12.789017353989466      22.736621928677234      3.7215345307122867
   319   1      14.126691090336317      24.053983629408922      5.2932490092414675
   320   1      15.110890828552408   0.0069937626713823097      3.6024847076085069
   321   1       16.51475892502226      1.3627729668510122      5.2032320767923022
   322   1      15.244659440233665      2.7767735425308024      3.5011026417267086
   323   1      16.542050928279487      3.8477156292130084      5.4172190545675569
   324   1       15.57281113973572      5.4152573924322365      3.6044270062800692
   325   1      16.695488150420275       6.563612368187278      5.4769734674354336
   326   1      14.957777469325249      7.7647347056993299      3.4735603397311818
   327   1      16.353953499919992      9.1306587938528754      5.4201793162733587
   328   1      15.077500722649521      10.231927778689563      3.8206574645422791
   329   1      16.447272509323106      11.480201570113211      5.4552900755777527
   330   1      15.167464167899352      12.752215800286004      3.5791535591422412
   331   1      16.641836544749911      13.881871151202024      5.3839448787390989
   332   1       15.35807776085195      15.316324054372075      3.7381809066323086
   333   1      16.598869028408213      16.619489316673459      5.4866295037848944
   334   1      15.369930174375055      17.861528946281855      3.6579670431859297
   335   1      16.630208423735599      19.331077574087669      5.4052212913766295
   336   1      15.169344946984307      20.540891117443344      3.6191079437142499
   337   1      16.610135250791885       21.70892040125111      5.3334895114215213
   338   1      15.284737892904243      22.940691005977666      3.6226186528666742
   339   1      16.624828606060849       24.16035537928736       5.222830201441897
   340   1      17.664615721138251      25.524705222665848      3.5012016968341868
   341   1      19.187019729899493      1.3886404855294139      5.4291258859967728
   342   1      17.700103218946442      2.6931643831780274      3.4635941997607693
   343   1      19.082387007179456       3.724386892944719      5.3858949535540503
   344   1      17.978583361499989       4.989209289961444      3.6696975526210647
   345   1      19.155266305280886      6.4842987894809445      5.2716247235768297
   346   1      17.733750619184946      7.6149944110983254      3.5016513592809266
   347   1       18.91776642536637      8.9699991262742422      5.5844551660476309
   348   1      17.946237987434639      10.244196013282634      3.8190139954938944
   349   1      19.111298040898632      11.424743023986759      5.4984143498597726
   350   1      17.858461639926585      12.655243434894025      3.6333774039060489
   351   1      18.965938463533114      13.853492700035426       5.547651915956453
   352   1      17.851934175169369      15.409535725758873      3.7086058126316024
   353   1      19.079489718269549      16.667526718709862      5.4104659967000295
   354   1      17.796572309966837      18.110758216179047       3.618064613893639
   355   1      19.117339817019516      18.970157968155679      5.5774126167434801
   356   1      17.789869538517891      20.579963044579408      3.5133994102412318
   357   1       19.21643828156996      21.726375261784487      5.5053186407247248
   358   1      17.938550140506521      22.901169955273428      3.5805432016336467
   359   1      19.177741496521183      24.216908604514927      5.3050221228172845