dump/Cu_720_5/steps_1 (written by ASE) 

1995 	 atoms 
1  atom types
0.0      25.526554800834361  xlo xhi
0.0              25.5265548  ylo yhi
0.0      36.100000000000001  zlo zhi


Atoms 

     1   1    0.083791040171293116      25.454532982596913     0.25114633776678374
     2   1      1.2016208108689255      1.2172800135027368      2.0383951763561998
     3   1      25.445905875003344       2.358093009846935       36.09915404388579
     4   1      1.2193668862823224      3.8786014667514075        1.91240838238723
     5   1      25.371089365735077      5.3917832397976788     0.17314895694283891
     6   1      1.1074673974918798        6.45004834065998      1.7905871450311122
     7   1      25.491113188450143      7.6968365528734859      36.031077875034043
     8   1     0.96933344386764164      8.9602063581737994      1.9773199436550057
     9   1     0.34272237965689617      10.009326568440564    0.098299646347084185
    10   1      1.2260569220333823      11.574512659676609      1.8374260251299785
    11   1      25.510705528531098      12.777360749846558    0.077444847192055077
    12   1      1.0937179320194632      14.168150133737607      1.7517214273207391
    13   1      25.418693992096991        15.5774800508492      36.096879068043549
    14   1      1.1956843805560609      16.464696995370247      2.1386083927766215
    15   1      25.445553751597608      18.197590075642264    0.064213466214346079
    16   1      1.2006435166058202       19.31315897527103       1.890912040713705
    17   1      25.295836946097086      20.561414069135022     0.11797213828692743
    18   1      1.2293825830755087      21.836693971415531      1.8532658729749083
    19   1   0.0097557041557139595      23.084945899709723      35.958675747221804
    20   1      1.3611470054494565      24.288804700437971      1.8731030210807844
    21   1      2.4769348067483614       0.212701656827536     0.11009466496275321
    22   1      3.6272034777904798      1.4090069318163978      1.9036899183002918
    23   1      2.2939091474496207      2.8490291514709156      36.068798466250172
    24   1      3.6813897549454091      3.8148281305520131      1.7688962417892768
    25   1      2.3782072691934486      5.2791580073123816     0.13573655172372143
    26   1      3.6036560122807813       6.377009156638545      2.0043088818464434
    27   1       2.413571710087302       7.838713482531702    0.032811951453334154
    28   1      3.7849791561783279      8.9162545711897643      1.7647129673639603
    29   1       2.778756053998475      10.317575159505656    0.076931499392048935
    30   1      3.7211476480404078      11.779078002685997      1.9733830104224814
    31   1      2.3437250807024617      13.020746555577201     0.17186151082079285
    32   1      3.8525646216720606      14.160187999081295      1.9919234351696908
    33   1      2.4645649405054519       15.47499002500868    0.071561909511944896
    34   1      3.8666186544242294      16.526793968427736      2.0241489803573711
    35   1      2.3959225619039195      17.838080447232702     0.19811228498316502
    36   1      3.5076509281761963      19.106288725546847      1.9125660874437236
    37   1      2.3915102547136127      20.376344628315351    0.049332319796758388
    38   1      3.8985325589881943      21.753768152153295      1.7503774925234763
    39   1      2.3569351269783669      22.898199056370391      36.044456905518771
    40   1      3.9154916104684157      24.274112315145082      1.9334088458165199
    41   1      5.0350380617980379      25.351746093101049     0.22380199202519879
    42   1      6.3133463417888152       1.245077151865307      1.6582140752887662
    43   1      4.9555890965932505      2.5446621890713059      36.084897039788068
    44   1      6.2293296109555545      3.7443465840349668      1.9727777606691248
    45   1      4.9648453654972569      5.1923806929346634    0.017783217246108037
    46   1      6.1761253415752266      6.3841080280914895      1.9588381260716221
    47   1      4.8500727461880535      7.5689859954223655       36.08364784755647
    48   1      6.4418529872019477      9.0162457207811446      1.7605495345134843
    49   1      5.2968266961873702      10.086128407086678      36.099671231996098
    50   1       6.094883842418362      11.418071275825307      1.4341012239761428
    51   1      4.7997686953637899      12.788280709171318    0.020773943762833369
    52   1      6.4033120651464071      14.041430667733277      1.7586509473330574
    53   1      4.7725949093231952      15.206872855293579     0.00301478363720662
    54   1      6.6432786395398749      16.668126037289724      1.5317411870981219
    55   1      4.8749226473333298      17.711346186381157    0.089756467982567895
    56   1      6.2474203759392397      18.947073076410827      1.7431343496945364
    57   1      5.1302533729574549      20.218459231561415     0.11092030192503445
    58   1      6.5632429153287033        21.2514989141232      1.8758766394167197
    59   1      5.1997427349998695       22.91947249876533    0.017857453467956912
    60   1      6.3504405580840446      24.208425843373615      2.0056988539746379
    61   1      7.5945352602851024    0.021415201262600839      36.008865356841042
    62   1       9.027521629419331      1.3901826667107964      1.9687269013753981
    63   1      7.7337341188076349      2.3442260513665558     0.26618012478783148
    64   1      8.7354418207070115      3.7694111324584245      1.8254386699153557
    65   1      7.4574856603391453      5.1034283170999135    0.086448740650837463
    66   1      8.7581952737143425      6.3377027428762487      1.6558819983275059
    67   1      7.5055818466513209      7.7388573771123639   0.0045771834987817671
    68   1      8.8182791746821483      9.0133087395199052      1.7467662309215239
    69   1      7.7556384005312191      10.043371663262427      36.017277617216983
    70   1       8.639853385971163      11.452787826426761       1.738046566050311
    71   1      7.7252793089915031      12.703843756142501    0.040314502736566615
    72   1      8.7919645481986475      13.935916242882874       1.837392946133765
    73   1      7.7482959318665152      15.149064513752009      36.082661131035998
    74   1      9.0892937452386509      16.643035333295831      1.8916759061934718
    75   1      7.8247429526367984      17.969429723466565    0.027415143359883137
    76   1      8.9454944879612182      19.332434080607772      1.9896545964164585
    77   1      7.5828802021972974      20.436582023846722      36.003365854725949
    78   1      9.1027534881267851      21.713868887149037      1.9117037782106538
    79   1      7.5349422163094726       22.88155268618878     0.12006456223199408
    80   1      8.8488819944224399      24.285439505742218      1.6706241763179845
    81   1      10.220496210214394     0.19630246266811671      0.1383128858348299
    82   1       11.36727795746296      1.4603838840929211      1.9099107393164452
    83   1      10.107482920718077      2.5837283219989828     0.12914858500703316
    84   1      11.500430963477093      3.8532159612202741      1.8681025128643112
    85   1      10.209518315671684      5.0946725984671009      36.093871480220479
    86   1      11.215279942768253      6.5306373302143417      1.8058751202004151
    87   1      10.223692929067999       7.647497943002489      36.018373413312048
    88   1      11.260478392404176      8.9525537563067701      2.0699226312470942
    89   1      10.440827801314018      10.309129443646405    0.080065778765777113
    90   1      11.611181262681852      11.466302523226773      1.7316226164223181
    91   1      10.083029783611607      12.940360468543822      36.033390821019864
    92   1      11.360067675872093      14.053786667413544       1.676172417844644
    93   1      10.283771828776111      15.418457750830559     0.02203599608122887
    94   1      11.474266854331205      16.634947852238572      1.9217968750758259
    95   1      10.276995103831863      17.929335565042457     0.16001987341834348
    96   1      11.507218354302047      19.141527979995772       2.034108260066489
    97   1       10.32593353037109      20.423472452267063     0.19106798079266116
    98   1      11.809405575467492      21.808374543914741       1.925212414931105
    99   1      10.504101295378433      23.057077482087127     0.07533266253512938
   100   1      11.577141818216361      24.488064216852283      1.9696893707968353
   101   1      12.713372989587331      25.459787058591861     0.21666445573189316
   102   1      13.914429563677526      1.2357894364591746      1.8814060935791761
   103   1      12.755609000318856      2.3301005854774326    0.069597669027837025
   104   1      13.886159062730439       3.920725895238804       1.713750632488654
   105   1      12.705967563092168      5.2433481803279447     0.11493961899675463
   106   1      13.667028984717163      6.3305846479687862      1.8794280921963948
   107   1      12.700679495327174      7.7603276355764734     0.10380025248625761
   108   1       13.78407915707794      8.8395625237530329      1.9090416206102543
   109   1      12.604741449335064      10.241839348847579      35.997760009494861
   110   1      13.830024075875178      11.374194369608745      1.6284341362904102
   111   1      12.686276108766839      12.857343845121266     0.18044109681585507
   112   1      14.099246819760245      14.086513631591266      1.7868224763982994
   113   1      12.683932829240574      15.380843660975396    0.091864030324700391
   114   1      14.243983603731566      16.578345106088058       1.790692972572252
   115   1      13.045511045331249      17.833053106891452    0.050085683964891756
   116   1      14.318886100915238      19.066334335143289      1.7222694003044579
   117   1      12.998706395137084      20.352073534121409     0.15861136320866076
   118   1      14.315912136977401      21.765953035039448      1.8580726770341458
   119   1      12.849354493112273      23.007122074582369      0.1532285461674178
   120   1      13.991521292598643      24.340216367724771      1.9933530415677969
   121   1      15.239478442740342      25.510682982591405    0.087125985782051954
   122   1      16.377504254704508      1.2490551257667204      1.9354189803699229
   123   1      15.020561281860262      2.5596755604602692    0.069864657076334352
   124   1      16.441241347383169      3.9866263089297713      1.6810369153935993
   125   1      15.117208207118624      5.3847568909373678      36.061738164139967
   126   1      16.379457360474539      6.4557520932766375      1.9702801546788342
   127   1       15.27461198854696      7.6680572629783299      35.939719087638203
   128   1       16.68723290451576      8.8985080229109226      1.8384232397075393
   129   1      15.366059436872083      10.100253012560648  0.00097056488394855339
   130   1      16.457203791963391      11.501063852941954      1.9939082338076997
   131   1      15.466202311984652       12.58949518060979    0.091775995955413261
   132   1      16.505100717417452      14.025552662763101       1.743210336477002
   133   1      15.270705758558675      15.290465832551774     0.13676555208900246
   134   1      16.969430270940411       16.57996525644749      1.8003165082211816
   135   1      15.599809846348601      17.718173389977185      36.090474450528582
   136   1      16.973627916646272       19.12136383263298       1.721968044619111
   137   1      15.447918701969682      20.195158670406617      36.038969263129665
   138   1      16.620784674607318      21.639856869463838      1.6857698315003764
   139   1      15.417127199300049      22.879383081851529      35.971741954572785
   140   1      16.316468359838034      24.163524423533001       1.810032572613137
   141   1      17.838228064756823    0.064756763918537422     0.21597735446506472
   142   1      19.263829358714055      1.0314696257632117      1.9646138037419532
   143   1       17.70072038213193      2.2978429690827693     0.22733673358733306
   144   1       19.13386331414565      3.8774279550883337      1.8713099233256452
   145   1      17.920933226019496      5.0827498774157158     0.13001396488692757
   146   1      18.928332525418604      6.2641866557673902      1.7780993754434462
   147   1      17.788043431047093      7.6559942280687565      36.077497291551758
   148   1      19.042994847902982      8.9527678277759382      1.5182308539336518
   149   1      17.808313350950996      10.253486299901862      36.028395196879409
   150   1      18.784698991784985      11.419066533607719      1.7526261130485625
   151   1      17.847450884349197      12.898265005108501    0.051620732152059499
   152   1      19.022420564810627      13.906155047942214      2.0765473006541257
   153   1      17.742337137204604      15.427598505918374   0.0075366275457668134
   154   1      19.322328144197666      16.584705552438766      1.9621768595566993
   155   1      18.049716280907251      17.903805619405784      36.021236257234911
   156   1      19.452113505990908      19.166908900967261      1.9084445359207509
   157   1      17.941570503304764      20.359247244004074      36.099892400271727
   158   1      19.145313744053194      21.754334156807147      1.6512214905567135
   159   1      17.808259658314558       22.93485680996519      0.1180805769845393
   160   1      19.153758763166433      24.358534949788297      1.9021284017671538
   161   1       20.40365773824211      25.521628509367808      36.075198030524497
   162   1      21.592316555462894      1.3201641406039755      1.8477105584840288
   163   1      20.303043465367544      2.6105651840889581      0.1835776354035033
   164   1      21.959748974317275      3.9018922198607529       1.959212677681069
   165   1      20.401049038184937      5.0003345585098673     0.15289249303194749
   166   1      21.729342016116014      6.3448907516834936      1.8106296732429414
   167   1      20.473917144734294       7.556716720856647      36.048371417481974
   168   1      21.525330890219827      8.8234252910923381      1.7916856377688866
   169   1      20.306534528923219      10.095998436388046      36.031681324721141
   170   1      21.717634300349673      11.488011235440165      1.5391930297614633
   171   1       20.18309141129253      12.868245300251759      36.072477310673428
   172   1      21.581679274140718      14.049982787661808      1.8239201837249432
   173   1      20.452316378973787      15.368903971915293      36.080475331110883
   174   1      21.705543990720436      16.409455193154763        1.92682357793618
   175   1      20.583365583573535      17.859876486236292    0.094604904139941826
   176   1      21.806424440810758      19.092586664460796      1.9132355408646953
   177   1      20.489544096627263       20.42332166934986    0.044532375666381081
   178   1       21.59675795123616      21.707215334927874       1.634200038195615
   179   1       20.42634626400341      22.972167446265534      36.001051650802232
   180   1      21.653905375742639      24.018604734750788      1.7593461587386414
   181   1      22.922398256694841    0.035170827759956461      36.056769747835652
   182   1      23.956104084676987      1.2792011658632465      1.7898605167138502
   183   1      22.929021294163821      2.4579830863838543    0.062160235578823934
   184   1      24.214206097055037      3.8496701182516415        1.82654802117287
   185   1      22.864228087397088      5.0921747576895342      36.035243736505215
   186   1      24.339234905564783      6.2847373889575371      2.0008840541208301
   187   1      22.854355543747641      7.7419555526776795      35.893828060678445
   188   1      23.985917694463684      8.9107584825094381      1.7569566358015203
   189   1      23.008370952860172      10.085497988309843     0.14541573339100755
   190   1       24.36587119393506      11.554433935909973      1.8751259084440466
   191   1      23.029138086024627       12.62497626375373      35.980465674162481
   192   1      24.086430658278804      13.954356107650446      1.8926829883201339
   193   1      22.927849521547053       15.28278263597554    0.078083784751265858
   194   1      24.248287142353494      16.500272676067322      1.7314820962164263
   195   1      22.852506898726453      17.902748337525033     0.19085626709158979
   196   1      24.248210148493687      19.324595838958981      1.8872552905885862
   197   1       22.78814921731092      20.479086629485266      36.014666497895846
   198   1      23.961411721116566      21.825179807340486      1.7550445658897609
   199   1      23.176418054910286      23.149857485421247      35.893949199401106
   200   1      24.196185578007249      24.196101672672132      1.8113980008300581
   201   1      25.489048695625204    0.063163643964893101      3.5416969435382155
   202   1      1.3095022359816486      1.3396962852485539      5.2356153213194654
   203   1    0.049681045424947542      2.7690244620068656      3.6252434360390118
   204   1       1.261194243684219      3.8239031539792365      5.6354599631768734
   205   1      0.1392892841938774      5.2481227615731747      3.8219368737426422
   206   1      1.2379017915177806      6.3830438928763078      5.5997751047242739
   207   1    0.038545853689657149      7.7588060785449828      3.7697448523888846
   208   1      1.3159499510153667      8.8377438201121432      5.4037072287479226
   209   1     0.07102818333674385      10.302557296425014      3.6891543382609222
   210   1      1.4002460249045787      11.273881629886251      5.4327687288957875
   211   1     0.12134391227380897      12.879034851216948      3.7219085440655926
   212   1      1.2554653208939266      13.848544170453188      5.4992440662389779
   213   1      25.204530642926326      15.360383646167257       3.695791644947553
   214   1      1.2876285326143404      16.244888999386152      5.4279829498394596
   215   1     0.17323619161661036      17.869364524511209      3.5638773949340723
   216   1      1.2404785617882139      19.043043127349179      5.4794041319410747
   217   1    0.066502472721065659      20.382623798618173      3.6041801289160169
   218   1      1.1641883778725888      21.526189884025957      5.5224046448750688
   219   1      25.414012096314501      22.928793819563197       3.479460087943822
   220   1      1.0416475227563404      24.139757188868153      5.5141239339437051
   221   1      2.6752577649476668       25.40203178217136      3.6983456061519764
   222   1      3.6675467798224739      1.2343600564383843      5.3669304767861101
   223   1      2.4434054336171731      2.6037914742994661       3.609722853484457
   224   1      3.8216338615743131      3.8382835140309046      5.5147262266434085
   225   1      2.5756534527286501      4.9553914519476718      3.7980112801354493
   226   1      3.7257172381308097      6.2983706124789585      5.4773029816643675
   227   1        2.47670121745114      7.4645744688088422      3.6081536403206438
   228   1      3.7054592018094779      8.9748128081433887      5.3418086615267857
   229   1      2.5925965309387924      10.177686040270309      3.4260960343251892
   230   1      3.7530027142769478      11.465578229993547       5.321049018909263
   231   1      2.4646491436805307      12.928547111748896      3.6083606644695343
   232   1      3.6851068541712833      14.083370032985863       5.636968241810334
   233   1      2.4934994144844067      15.262689425531507       3.841109899080366
   234   1      3.9432113943625131       16.58898209922927      5.5542192836137358
   235   1      2.4627537908310657       17.70638845811952      3.9296861677108526
   236   1      3.8361598235233152      19.093462250199554      5.5267829298033027
   237   1      2.5343385332459825       20.54014862360334      3.7717662971176589
   238   1      3.8039439648241924      21.536163274159108      5.6843831845794837
   239   1      2.6389343438321404      22.811378655156123       3.690755693640805
   240   1      3.8545204362463967       24.14366928231302       5.423800411984268
   241   1      5.1524122141898099    0.046535612436871772      3.6805598551485299
   242   1      6.0518733298937972      1.3876846956522659      5.7686031218443015
   243   1       4.961770263421073      2.8233817340542187      3.6215078595820862
   244   1       6.198198994635967      3.9663147924943782      5.5617260160872082
   245   1      5.2596084320698644      5.1381990208121202      3.7512327473981903
   246   1      6.2626819679261532      6.6520992115827795       5.588846931926045
   247   1      5.0108489670990828       7.592286318857119      3.6647610030782389
   248   1      6.2100198106057931      9.2499265686570826      5.3199309703770679
   249   1      5.0672818174820184      10.314776853803242      3.6653416856255068
   250   1      6.2837066737805536      11.490434474315316      5.3620090993842426
   251   1      4.9625361588425783      13.042187788026199      3.6380667007160645
   252   1      6.3868480007160651      13.961539111907083      5.5866946222931197
   253   1      5.1073727261322146      15.277616415476301      3.7672025092202768
   254   1      6.3933035792123674      16.611007300649501      5.5902459238286744
   255   1      5.1954843091348257        17.7831960480123      3.6347010203106254
   256   1      6.2748134523525003      18.910200934659599      5.5814506636933467
   257   1      5.0358575160664323      20.182879824044189       3.748232665658831
   258   1      6.2218707764873118      21.720732388268921      5.3373455392945077
   259   1      5.0807907522286531      22.771273515501875      3.5310037385420183
   260   1      6.4675158357868368       24.35485372012937      5.2787997994880209
   261   1      7.6569976715417223      25.378510346238205      3.5159450961171039
   262   1       8.756898389685869       1.461077028447576      5.5824029023984343
   263   1      7.5233783929363431      2.3972680100984958      3.7201850940311503
   264   1      8.8583371361681866      4.0867716557617637       5.621929015550295
   265   1      7.6018248332552361      5.0839919406509706      3.7904736580361669
   266   1      8.7485612186879003      6.4431071475874733      5.4998932889183925
   267   1       7.485753012080961      7.5864650696161089      3.5091674044011727
   268   1      8.6277064861238983      8.7419379693372115      5.4003121749704253
   269   1      7.4768039241555586      10.232177700537301      3.5158262392732347
   270   1       8.742309388353485       11.44523607328701       5.456029435474413
   271   1      7.1823870457806969      12.486858821174062      3.2867856941351645
   272   1      8.6083493947097249      13.812208483837106      5.1307544823361955
   273   1      7.5763041992326503      15.327348541352055      3.5981528540986938
   274   1      8.8440768294201177      16.296243365140469      5.3936474761430206
   275   1      7.7387706608349633      17.949117881382403       3.674335418084175
   276   1      9.2219753687990433      19.058165684055233      5.5604712928408651
   277   1      7.7280582703640057      20.228211860287026      3.9347533530015637
   278   1      9.0049241826467075      21.748101108722601      5.5962681998215453
   279   1      7.8145229220107559       23.02881570035802      3.6301375764184463
   280   1       8.986524221738815      24.417689691817944      5.4633534233491226
   281   1       10.14631401436049       25.48529285611929      3.6187314586370101
   282   1      11.442647574083114      1.3871311102905275      5.5008673125652177
   283   1      10.083046532000266      2.6055171207168142      3.7103484426936229
   284   1      10.094187451417719      5.0001509392513563      3.4744017251642298
   285   1       11.35103432556142      6.4912638644910876      5.4325764985641696
   286   1      9.9262306236862745      7.5077848455808338      3.7007369404970145
   287   1      11.378181180875263      8.8789940615044234      5.2692806129252192
   288   1      10.062640911005575       10.40457471793678      3.5032687753382556
   289   1      11.480012967077759      11.393655816427296      5.2448039062446945
   290   1      10.114517767251574      12.735745128756374      3.4039413655467237
   291   1      11.437578438518907      14.184954993371518      5.2761809910405173
   292   1      10.121063314195164      15.200347403546472      3.3608354562806317
   293   1      11.366942300538037      16.427270678253596      5.0640941517155333
   294   1      10.091849912597956      18.006133184721264      3.6931078766242451
   295   1      11.602017003837455      19.210138823148235      5.2791293883621897
   296   1      10.242984033123378      20.579408913995248      3.4990048425049847
   297   1      11.657088687914122      21.743899418273173       5.383404877695428
   298   1      10.149682346145646      23.044727437666477      3.9206527774740114
   299   1      11.623559261231714      24.341370217871404      5.2668295345533496
   300   1      12.785175939167759    0.053471482823353185      3.4963330738285796
   301   1       13.92959227321273       1.204822738095797      5.3988776256579429
   302   1      12.849819280341318      2.6084359726510487       3.640710558050853
   303   1      13.880081709202026      3.9048220082235221      5.5737462073315545
   304   1      12.546276910328448      5.1580328973570424       3.793986692761639
   305   1       13.88075979304574      6.5761132952012504      5.4995315781270451
   306   1      12.497147797760453      7.6316169772299407      3.7275546928008509
   307   1      13.833969427942121      8.9033038786894458      5.5756439966184788
   308   1      12.736770552320088      10.189924234274216      3.5730634861620385
   309   1      13.780906715804891      11.484005532329125      5.3526399742393176
   310   1      12.862257488054993      12.617372259994978      3.6986903929900841
   311   1      14.351762414453196      13.865772136523454      5.2716233691557663
   312   1      12.737683390766682      15.120101639535926      3.5106845631262109
   313   1      14.161068176084857      16.554224555384849      5.3687598827336549
   314   1      12.942475247368515      17.812158540605193      3.4775823911355719
   315   1      14.255390113794213      18.975967545021213      5.3974033606544038
   316   1      12.950803890898376       20.39512085247404      3.4148673814584409
   317   1      13.971197888923465      21.550164175794585      5.4021491445267253
   318   1      12.911308387517414       22.82741603963224      3.6436763236884637
   319   1      14.069089632610423      24.330558747219019      5.4938587417681441
   320   1       15.53795292874889     0.20820527551571544      3.8636300720897081
   321   1      16.838781923076365      1.0852108112794234      5.5738233707333702
   322   1      15.467443364996024      2.6600176798657613      3.8123130500683242
   323   1       16.58218542352537      3.8760938787405266      5.4663657422885779
   324   1      15.129093536815029      5.2726199766932655      3.7298197153655717
   325   1      16.556530776989099      6.4108600141003222      5.5247807335173844
   326   1       15.12635107634669      7.7278554176330658      3.4810070899884988
   327   1      16.322704630198352      8.9187978482987127      5.3811905381533451
   328   1      15.215151253112637      10.311394461489904       3.639079851395397
   329   1      16.557857532928956      11.693989580709061      5.3817379988449172
   330   1      15.139249577577933      12.573052136022122      3.5208683722004706
   331   1      16.764996735885248      14.234627659754118      5.4645148918216417
   332   1      15.396223289470001      15.132627915369628      3.6815257433671511
   333   1      16.637919866748202      16.731888074486356      5.2439140615763948
   334   1      15.238897611543235      17.805744000307474       3.506735546067703
   335   1      16.556441646364622      19.164941978700927      5.2184145015863983
   336   1      15.556986086846099      20.378187525935001      3.3393258200403126
   337   1        16.4906259358205      21.673625988688279      5.2663266998478333
   338   1      15.388142846969206      22.981638868525113      3.6876683865190061
   339   1      16.494308831217662      24.134070290126168      5.5570621465825818
   340   1      17.760162897193734    0.063024424576619678       3.471072775065581
   341   1      19.195451542123291      1.1348211125283434      5.4183531345601672
   342   1      17.785904792992437      2.6167526935192842      3.6347278831134533
   343   1      19.069160799924155      3.8305286147270659      5.6403877293616178
   344   1      18.031002781188196      4.9479614930533966      3.7341908541741162
   345   1       19.16703803950989      6.3930420755528967       5.207671163655772
   346   1      17.704452914724911      7.8599483238500296      3.7650968574615438
   347   1       18.96150976624498      9.1316936076520694      5.2831305841027518
   348   1      17.743468852846863      10.249510784594356      3.7477314543157298
   349   1      19.080877472038487      11.677189755197446      5.5853366674810365
   350   1      17.802562482450959      12.807072491916935      3.7002363799730542
   351   1      19.197240480621556      14.140638876212806      5.4920837122741304
   352   1      17.841435108754716      15.317823430547882      3.6550153199509339
   353   1        19.1338155821289      16.449793817168715      5.3902774178257467
   354   1      17.761214824019223      17.990823654792699      3.5027975710763708
   355   1      19.111922344548638      19.165778641481158      5.3887138478087309
   356   1      17.964998889017778      20.438735815477582      3.4087496963661823
   357   1      19.033278152629219       21.65125894676023      5.3983594435584212
   358   1      17.797040443275094      23.015784477658464      3.5083452165940701
   359   1      18.785008452830233      24.397970236476276      5.1640197838352631