dump/Cu_720_5/steps_91 (written by ASE) 

1995 	 atoms 
1  atom types
0.0      25.526554800834361  xlo xhi
0.0              25.5265548  ylo yhi
0.0      36.100000000000001  zlo zhi


Atoms 

     1   1     0.14675951128159304      25.498992483891062      36.044304795646596
     2   1      1.2859211073761916      1.3597403096816967      1.6806765598276916
     3   1     0.15261431294950645      2.4976968728549189    0.030875358975697525
     4   1      1.5635353975815838      3.8746891482132524      1.6395332798150102
     5   1      25.478664191660112      4.8082316175088318      36.001342612637565
     6   1      1.2660367076817651      6.5263561533022765      1.4752224750135152
     7   1     0.12793810856109114      7.8967489236143988      35.955627362629599
     8   1      1.4741538595302324      8.9496138048144669      1.6411167201970669
     9   1     0.13068477735496659      10.161891957195623      35.960551917491465
    10   1      1.1986636809558555      11.568407702248564      1.7305199393628532
    11   1      25.486594820521375      12.689295066334036     0.14695526219499036
    12   1      1.1250173438141378      14.188198352729046      1.9568181556527302
    13   1      25.430701347004433      15.196148101403686     0.16160006016019665
    14   1      1.1466240406835513      16.725296798132312      1.5375493745718583
    15   1      25.477608749035799      17.984591082345624      36.024476914494535
    16   1        1.07418384473865      19.288239931088079      1.7195219869136862
    17   1      25.402969180675491      20.578293910698424      35.906585432071019
    18   1         1.2711454655365      21.766148257906856      1.5216204447422919
    19   1    0.032362138751818287      23.003823657088908      35.869274179900842
    20   1      1.3800091997013126      24.323211255221999      1.7839659048744023
    21   1      2.8115760533859442    0.051973456592184934      0.1448386167194029
    22   1      3.7847592074968213      1.3755159598766789      1.8111408268625158
    23   1      2.7814276165833185      2.5113230105977178      35.982016301485459
    24   1      4.0097884336595486      4.0865273355551013      1.7180060223448108
    25   1      2.5458023607616762      4.9807365660856062      35.861534394481041
    26   1      3.8302301243257615      6.5114365203630067      1.5601542635107188
    27   1      2.7288895376175435      7.8105243695213229      35.949198559285634
    28   1       4.016495396143724      9.0760294329361173      1.5552673624139297
    29   1      2.5349259568963456      10.324935090543107      35.978035318689038
    30   1      3.5594621439812051      11.644653660503451      1.7896540802467149
    31   1      2.4215420427528653      12.952560217260951      36.046457376229817
    32   1      3.5421134024643628       14.19769687896679      1.9177401270380301
    33   1      2.4285733060065455      15.415951881635948     0.19416861737424815
    34   1      3.8032726946383297       16.41963924958084      1.7517607843467329
    35   1      2.5445256866642825      18.041260877102378      36.057544985905871
    36   1      3.8987925557581562      18.941641505052701      1.7747565983373639
    37   1      2.4502432477349143      20.473986299344343      35.977798500703578
    38   1      4.0693534210965128       21.81926775874204      1.8148612670400885
    39   1      2.6088708044115734      23.092164648928524    0.024782522146176704
    40   1      3.8991162379708637      24.099576094165943      1.8616791572671105
    41   1      5.2721797563002655      25.444695853279896      0.1789002576359508
    42   1      6.1880784703669027       1.326070686660014      1.8556808364038606
    43   1      5.2117475205587587      2.5139172983942224      35.973651587009265
    44   1      6.3797053866103477      3.7762416746434995      1.6767221021717531
    45   1      4.9400656358971986      5.3310005826383655      35.942226500139441
    46   1      6.3289264109682781      6.5808659089540971      1.6597679407302632
    47   1      5.0615229006598899      7.9934863224622079      35.532324795043301
    48   1      6.3033924132652404      8.9333355054326802       1.715311983372318
    49   1      5.2120461012078936      10.344614576090249      35.847460529332274
    50   1      6.2976739075439854      11.258378807403856      1.7663965434083158
    51   1      4.9122923468699247      12.905077516888181    0.051531391264700112
    52   1      6.3443940326898653      14.244173909363486      1.7917270955661151
    53   1      5.0105491707910721      15.308319431766019       36.02106962974284
    54   1      6.4617551281460877      16.762333223216334      1.9085573332245427
    55   1      5.1439513513445476      17.758213249976997     0.16422985447337618
    56   1      6.3995713959949958      19.417595542444481      2.0182764650220082
    57   1      5.1893705138486093      20.148484909251824    0.029556524342308422
    58   1      6.4638011183989921      22.001527416837089       1.859019559710781
    59   1      4.9522735337012334      22.995424810736004      35.970134596999365
    60   1      6.3896505832494972      24.340910495540758      1.8862517176148699
    61   1      7.6531119865997139        25.5237914082205     0.11927758236695356
    62   1      8.9627626606614665       1.323361156608275      1.8635441723853645
    63   1      7.7294837926829496      2.4504386288745632    0.086834695241554891
    64   1      8.8662816996835545      3.8611713757832082        1.56988989060427
    65   1      7.4170654717181179      5.2155978374060563      35.912738050931289
    66   1      8.7348553622032643      6.3252450137247882      1.4425456780191199
    67   1      7.5071867367471015      7.8722777919927385      36.059967004078914
    68   1      8.7722147851901475      8.7393364541863932      1.6804709822367965
    69   1      7.7250013356604761      10.246117266764662      35.966462396405909
    70   1      8.9765303253215407      11.463268623508373      1.7350185004910246
    71   1      7.4910359023922322      12.870103210295673    0.097040932894526408
    72   1      8.9090707950890327      14.056830920913471      1.7263844446619363
    73   1      7.5047339850870856      15.557697417647846      35.981087011068823
    74   1      8.8766605556142331      16.748674536291325      1.8463570304020098
    75   1      7.6572738687906652      18.045448861260162    0.040764218552953785
    76   1      8.8467337605102827      19.255641270314911      1.8551748459572208
    77   1      7.4956300599936947      20.696285773592404   0.0026646973907645585
    78   1      9.0348321359309214      21.707269774094964      1.8405538803394281
    79   1      7.6274564285463953      23.089740521163499      35.969727764092248
    80   1       9.100188383206012      24.099956862522216      2.1191456245607583
    81   1        10.4470920731411      25.264977691691762      36.066140265151105
    82   1      11.582238378247656      1.3108851247623428      1.8673745229027772
    83   1      10.259938207571256      2.5662331984235518      35.970581170347266
    84   1      11.319818888586628      3.6954788295359235        2.09073709515692
    85   1       10.37548386528837      5.0854172453203041      36.068204861053317
    86   1      11.135506619284346      6.3598639031429789       1.721004694348107
    87   1       10.06775301301837      7.7535903365423753      35.924232091231076
    88   1      11.249999698802993      8.9351793907738788       1.694316486156344
    89   1      10.058200582420222      10.146375021762589      35.968665223939404
    90   1      11.586155379445918      11.490777868203189      1.7052533060443809
    91   1       10.07366148344769       12.78310143891613       36.02684004530898
    92   1      11.489612638012753       14.04576716339842      1.8260406184948799
    93   1      10.044610844102852      15.335926262960266     0.13777796023907743
    94   1      11.505424670796517      16.695742647671612      1.9047691667403583
    95   1      10.319859296928938       17.89037400484434      36.082230624328808
    96   1       11.29362634791006      19.380504390912392      1.7965592068038732
    97   1      10.349568755465739      20.527853604987108      35.977913919816018
    98   1      11.684386301054179      21.860419030575127      1.7231424012093959
    99   1      10.216027180975397      22.957108892864827     0.12502675491041368
   100   1      11.651036642402822       24.32888964757915      1.9081939171448214
   101   1      12.790213619662739    0.084836262484532451       35.96082124117418
   102   1      13.995717733148101      1.5069275721368214      1.8927476132033112
   103   1      12.851013916000527      2.5914084702039979     0.14005673969279553
   104   1      14.096901022119372      3.9071202907194111       1.876186844261075
   105   1      12.840668921580519      5.0769288797229528     0.21732126046389327
   106   1       13.92721624962113      6.3666333249258162      1.8521435675360163
   107   1      12.815639240073461      7.7760249800533146    0.042716145853739715
   108   1      13.945000524498766      8.8907136416414847      1.9290541677649216
   109   1      12.595945023111913      10.302446868384713       35.88792499183856
   110   1      13.924887145706226      11.412608839134684      1.8728971197137398
   111   1      12.693434187073775      12.919317697866587    0.094426757949599788
   112   1      14.038640065670133      14.004261877477649      1.8044946976032161
   113   1      12.616569043122634      15.414507222772613     0.11067247447944042
   114   1      14.081633489879264      16.858803893612954      1.9421813657533329
   115   1      12.981245681796901      18.008549679236221    0.085482678512982982
   116   1      14.019797563005572       19.29023677755173      2.0344596654880318
   117   1      12.787806934501987      20.479334064972434     0.05580899465730902
   118   1      14.128213256124475      21.900221564492007      1.6595569765107843
   119   1      12.988157819126092      23.149803315911086      36.038637680849426
   120   1      14.044664693957829      24.213186695270554      1.8361294357084494
   121   1      15.234674137407341    0.011861635415464446     0.11523162383443841
   122   1      16.603409320975047      1.2363669380750995      1.8516698328739376
   123   1        15.2913719528964        2.57331079167216      36.015495600458415
   124   1      16.616147852975232      3.7432785482287581      1.8088262796066374
   125   1      15.425867060625436      4.9130314096843364     0.18105209798616206
   126   1      16.896224544745564      6.2642135719114336      1.9617308886324634
   127   1      15.483558263997896      7.4422180546926135     0.16100065450245893
   128   1      16.502098836000609      8.8289683731000608      1.8765296813750285
   129   1      15.231447759747356      10.295210198956498      36.078429454332031
   130   1      16.591455672365356      11.631764892120607      1.8856432844341602
   131   1      15.184603183762208      12.686508448161547      35.999998879435495
   132   1      16.584384312922005      14.227404620207011      1.7177751769788092
   133   1      15.290770270572672      15.378742099385192    0.087817965093927433
   134   1        16.6050855596459      16.659602277754342      1.9077805369444265
   135   1      15.533440157208496       17.78866295493409      35.998353789811389
   136   1      16.366774568768058      19.111360180453609      1.7602712565474239
   137   1      15.223118471931317      20.622756769884521    0.096948834006184287
   138   1      16.672637157279308       21.98977442268291      1.8284210616474861
   139   1       15.27334043038891      23.177236403921746      35.824165365733748
   140   1      16.699604664660427      24.281881361472351      1.8116175067790103
   141   1      17.970005871856817      25.385514295014524    0.039582768038837972
   142   1      19.135868391112417      1.3571108964664653      1.8495614327670298
   143   1      17.832721213816232      2.5071804860949563    0.087853439888340462
   144   1       19.23782594467901      3.8469881701545514      1.8373359525645907
   145   1      17.868391479234802      5.1976143184156278   0.0079854503603655706
   146   1      19.248409552463013      6.3734015361602419      1.7320044523732823
   147   1      17.995241796783972      7.7137785488103976    0.082112004495286328
   148   1      19.105086928241711      8.8366428257861411      1.8569569259906742
   149   1      17.788977408449803      10.142205561692469     0.11662306188785565
   150   1      19.099606504960413       11.41669498551741      1.6558634150065821
   151   1      17.845107005007478      12.678292979905285      36.056225770242165
   152   1      18.981114730041643      13.947100333817843      1.6993977806151175
   153   1      17.895168930563429      15.447883236508108      35.998304615103102
   154   1      19.161732728161979      16.653592640468325      1.7553965739319681
   155   1      17.932673213672931      17.789106015580099     0.13059663243299158
   156   1      19.016359669766459      19.000301009990388       1.949135656485623
   157   1       17.73212888924294      20.401230521814554    0.092658052935507801
   158   1      19.063359862121359      21.510128358089155      2.0957169256138526
   159   1      18.103283437777339      22.882657882293348     0.23363134797708657
   160   1      19.102603287971988      24.182370531117208      2.0580747055382185
   161   1      20.475614691691995      25.491139720045432     0.10442986303849028
   162   1      21.780807130427323      1.2264150645599621      1.9952222407163498
   163   1       20.49058263802441      2.5397960861148117     0.16144655986788614
   164   1      21.735501976210735      3.7970381094284824      1.9787855519651556
   165   1      20.528396095469887      5.0723784604878652     0.24291539787076308
   166   1       21.65790085266017      6.4339741799173593       1.854328025500102
   167   1      20.422512597468415      7.4751748700323262      36.054815903220778
   168   1      21.598242793283454      8.8391604360589788      1.8450042402854945
   169   1      20.311344570075661      10.173920311687157       35.94697100321406
   170   1      21.574428237865625      11.354023032522317      1.8124894679402463
   171   1      20.425539693680367      12.546933734693718    0.075410212747897248
   172   1      21.484470753574982      14.156670975038672      1.7748544492254386
   173   1      20.314332650565579      15.180598060094297    0.050259134799864748
   174   1      21.802943822453564      16.555748475736493      1.8014016643949602
   175   1       20.45782851168752      17.762074759553752      0.2487601695742454
   176   1      21.678048355127281      19.000156673353949      2.0457872201414822
   177   1       20.18623697738083      20.459773177928476     0.12952897036567482
   178   1      21.583082258064781       21.39991002017819      1.9138802322745854
   179   1      20.201065439378088      22.868583118855231     0.37695057332333604
   180   1      21.472873402308938      24.341995337668941      1.9217870964419372
   181   1      22.759754374330448      0.1167801563489836    0.057547619623471762
   182   1      24.161060036452476      1.2811043161539857      1.6439614992446765
   183   1      22.886718399571581      2.4718514398368128      36.046210764365817
   184   1      24.337938801765361      3.5570743938764977      1.7136473995521682
   185   1      22.786313565882597      4.9394433438535543    0.048022556308762787
   186   1      24.400992022828643      6.1344045709050681      1.8363525260671303
   187   1      22.885601676988294      7.5855467772564644    0.075297796685788232
   188   1      24.392716918507634      8.9323331362147957       1.806717385522665
   189   1      22.857833476502293      9.9754366052357017       36.09826530741951
   190   1      24.402945966964154      11.413226619350482      1.6678414076563504
   191   1      22.955624092408247      12.670746127347902     0.21789822212793991
   192   1      24.219393789362151      13.910635441084901      1.9121650298045099
   193   1      22.853698807820937       15.38105586387176      36.005668950908778
   194   1      24.248365246670563      16.672157340449481      1.8281370343493555
   195   1      23.018995133437667      17.934367039118278      36.063691003518386
   196   1      24.015737713596941      19.395592326497642      1.8165581447759436
   197   1      22.827313753856107      20.207284185065667    0.018665204325259324
   198   1      24.509586575740837      21.805162574351009      1.5758513120473947
   199   1      22.658372101151922      23.006956398166231     0.08797026187273789
   200   1      24.337483592441842      24.419542326708253      1.6253944363650932
   201   1   0.0051815877581941104     0.11487449169597153      3.3630886070902886
   202   1      1.1439053536110109      1.1743922764866537      5.3326072800543454
   203   1     0.22431438085287614      2.6028686298075048      3.4558777493582742
   204   1       1.301983066500024      3.7815751940276661      5.2390584249651715
   205   1     0.12707901501654964      5.0479158996326845      3.2991310294368752
   206   1       1.343131469375666      6.3042514139330752      5.0816820377729766
   207   1     0.14600161909911347      7.5066919757059667      3.5428888131548448
   208   1      1.4462937347048441      8.7786610318766556      5.2110741530289841
   209   1      25.425181480881264      10.059912038462761      3.5459027294572714
   210   1      1.1018233966696869      11.396136147572216      5.4319804099713354
   211   1      25.487599582750153      12.824953036983363      3.5804413523845269
   212   1      1.3524824486232576      13.977758169126068      5.7120974525484867
   213   1      25.280229622085972      15.299443035337703      3.5501462224412763
   214   1       1.195692998262909      16.706299080058081      5.3901572603859913
   215   1     0.03683962267013189      17.898272694375283       3.578045120360446
   216   1      1.2992311701458894      18.960709462324331      5.6013696331270602
   217   1      25.470311552360364      20.613386071561873      3.4963025429458297
   218   1      1.2937219698236027      21.545885128760201      5.3660330494290873
   219   1      25.304014506365238      23.049432587347265       3.486333709851964
   220   1      1.2786239982812251      24.247254704779465      5.3742173769735544
   221   1      2.4720810519433765    0.013534032879546456      3.3971729974477856
   222   1      3.6756871625701613      1.4385764583000336      5.4034223889580302
   223   1      2.5209120328967516      2.5555927985245139      3.4161031065132308
   224   1      3.8591276575829143      3.8670435182055334      5.3311471829074186
   225   1      2.5478683650293958      5.1125825702497618      3.4155921274613328
   226   1      3.8508475848677297      6.5396862755524916      5.3423890814529811
   227   1      2.6612943289272106      7.7878677287487834      3.2791748820463122
   228   1      3.7923214513652792      8.9140455985595413       5.303604441203305
   229   1      2.1965739223516634      10.242654145755923      3.5394783895585857
   230   1      3.6662810683241687      11.407069890060558      5.3309538561217291
   231   1      2.3954444176371417      12.719593720873188      3.7191196500055019
   232   1      3.8774774289103484       13.86583835486665       5.473283081261207
   233   1      2.2527153701545468      14.926506349470211      3.6724828801694169
   234   1       3.698363919199299      16.251075746165039      5.2741540698363307
   235   1      2.6532986435880237      17.784080183077304      3.3830086189230668
   236   1      3.8096021998265672      19.117676187283617      5.4864589962220789
   237   1      2.5171584986660971      20.397364205449154      3.7030162974953726
   238   1      3.7694538314337445      21.644665842737538      5.3095539054892207
   239   1      2.3078216729752432      22.924684909242419       3.397460946397326
   240   1      3.7723644111105537      24.354199331680618      5.4020449354189761
   241   1      4.8355736345475808     0.29070330842988129      3.5653318530505644
   242   1      6.2117579845901751       1.239330059209689      5.3770217012072612
   243   1      5.1443211002596358      2.7690873761152845      3.5497456779083119
   244   1      6.5199193182946589      3.7524249441611981      5.4521757686625776
   245   1      5.2039845180696007      5.2479998511128718      3.6488280099239256
   246   1      6.2787935462125875      6.2855221213871495      5.4639633412682214
   247   1      5.0902354998227004      7.7360431693673846      3.5945077454396923
   248   1      6.5069480243640445      8.9407284222371466       5.308682298868419
   249   1      4.9025650935579295      10.322943927293798      3.6941560074889068
   250   1      6.5361828263179875      11.426126208362021      5.4893840182036975
   251   1      4.9903619353586111      12.926773871608249      3.6732715546931649
   252   1      6.3735626302564885      13.822029292854555      5.4338925939604845
   253   1      5.0379826102678829      15.328311527380849      3.7232773746428012
   254   1      6.5166891317740134      16.605481653962052      5.2565262253676011
   255   1      4.9100864802220094      17.885836406687883      3.5861019938975587
   256   1      6.4603910763248837      19.112460336945212      5.3690200095646343
   257   1      5.0129618151640249      20.479785368019851      3.6881572497611517
   258   1      6.3280138114983275      21.730096385451333      5.4451738134529526
   259   1      5.0903195986783789       23.11285809295773       3.763726799513722
   260   1      6.4368051029837803      24.403146903831047      5.4044122941755059
   261   1      7.7771748456635299     0.14531697784814129      3.5474978185738011
   262   1      9.3017766740623014      1.3199419530270118      5.3999663099578781
   263   1      7.6498130676260718      2.7606472532867681      3.5897521358513038
   264   1      8.9877078725577881      3.7871735482978726      5.4928301709620424
   265   1      7.5702057610916302      5.3106697143363757      3.6037013214326508
   266   1      8.9208282148269742       6.663821252617927      5.2632744571889427
   267   1      7.5170221451920645      7.8066464321609628      3.4321148076824204
   268   1      8.9673334305241656      9.1218629589396087      5.3162490249633656
   269   1      7.5519082362536123      10.210695571848666      3.5427758830384386
   270   1       8.970188727508571      11.509626851978094      5.4764738741891703
   271   1      7.5923693065605677      12.743286232205852      3.5859537564584358
   272   1      8.8414675305022712      14.043193750925694      5.5887242370393837
   273   1       7.726809054234768       15.39638572889319      3.6321931042225675
   274   1      8.8034160874751475      16.658932608991719       5.699489138927655
   275   1      7.5671130334088499      17.940175400562918      3.5824553586794421
   276   1      8.9926344850386801      19.064464780606638      5.3992118515354868
   277   1      7.6689076585671527      20.575805115082716       3.670291729333639
   278   1      9.0318560651633497      21.704310537726634      5.4008033775179145
   279   1      7.8010704389361951      23.097269432669059      3.8358501003161383
   280   1      8.9461332392359907      24.449394307033067      5.4087188660014425
   281   1      10.273345682767724    0.081419764695264393       3.547522079868894
   282   1      11.612121560356099      1.6066139085214615      5.3890599586483416
   283   1      10.126349531365445      2.4795125281575183      3.5557711218478847
   284   1      10.016026200129616      5.3249108400426994      3.6339601598009335
   285   1      11.482648278803428      6.5587961254159426      5.3988249764988732
   286   1      10.026724453113223      7.6946320120427822      3.3752270892032836
   287   1      11.325340060832287      9.1043060179631645      5.4427032702949729
   288   1      10.088466685569736      10.242814968692581      3.5123649204151683
   289   1      11.458876773520117      11.536503685612471      5.4967531115212696
   290   1      10.303600547552424      12.824694429068483      3.5427821079448121
   291   1      11.462441246802587      13.961987995744089      5.2337807508323104
   292   1      10.121878855591143      15.453776018472723       3.701307514847465
   293   1      11.521768213197989      16.557100305545749      5.3127519631124116
   294   1      10.137287346056933      18.094376146471191      3.6556762243535679
   295   1      11.541456752294479      19.216971115163602      5.3808717224090792
   296   1      10.305380120121304      20.520300988739141      3.5313189085818757
   297   1      11.696158579341851      21.659652845503285      5.4121984582802192
   298   1      10.260706253651898      23.083120441075575       3.949091104810293
   299   1      11.556763021667257       24.44916141386399       5.463507211473897
   300   1      12.711837870204999       25.48252634796377      3.5928920881839979
   301   1      13.929959590940705      1.2296736819756398      5.3290127190813781
   302   1      12.872248658307992      2.6649771893257945      3.7697949807759623
   303   1      13.950583021832877      4.0425641173197118      5.2537750776937511
   304   1      12.603879619849307      5.0887786556949637       3.777212314551837
   305   1       14.22247131569028      6.6057204036051642      5.0613362328310698
   306   1      12.566745920143264      7.6769508634261614      3.5494624881163976
   307   1      13.825147154353164      9.0136630902115122      5.3844318285619348
   308   1      12.447008908273348       10.38906921545277      3.4875911991966757
   309   1      14.016625238356532      11.421773015407224      5.4434541122629003
   310   1      12.798609394408098      12.796089589013608      3.6254161399122888
   311   1      14.043057760137016      14.019025228433911      5.4704246109285748
   312   1      12.650071282608197      15.275819886028053      3.3313787725982822
   313   1      13.827350792613869      16.463506180353978      5.1848918961226031
   314   1      12.629005003841286       17.92437801904012      3.6488249032759725
   315   1      13.796114547508978      18.871135360199187      5.5545167311542301
   316   1      12.873594189245338       20.31587429854245       3.773412358160519
   317   1      14.273310208589313      21.578645317298459      5.6005941827109815
   318   1       12.78250505204568      23.029608703074679      3.7432556059994679
   319   1      14.154381529136735       24.31823900344164      5.4083198190485531
   320   1      15.247016068846087       25.52184679513924      3.4283520652121311
   321   1      16.307456054544655      1.4837720559177374      5.5981576382851026
   322   1      15.198166306737114      2.5165226541800503      3.5805400309536153
   323   1      16.419274257536348      3.8304298416907008      5.3722515486520885
   324   1      15.307241546996877      5.0575388762134637      3.6312662728441194
   325   1      16.497219907606485      6.5089053257884268      5.2987543895921068
   326   1      15.469175234768702      7.7418580591826176       3.443522365964224
   327   1      16.533740338969132      9.0673429783043211       5.577647823547462
   328   1      15.035725800943789      10.151853541594276      3.5870605140962781
   329   1      16.394209378547274      11.370749548073213      5.3527943338470187
   330   1      15.298192475364836      12.673112183029684      3.4834130215195169
   331   1      16.340488900064177      13.971133611058605      5.3268498839185252
   332   1      15.250729091249177       15.37702192661474      3.6032255714096553
   333   1      16.468729124287595       16.28393686337872      5.4517908208268482
   334   1      15.298541224244175      17.966948649180562      3.6882319797220391
   335   1      16.525489071459152      19.188754143498436      5.4786861410443715
   336   1      15.391257266912667      20.422152351519571      3.8037707470867268
   337   1      16.730941118196675      21.781420658275405      5.4549196813876719
   338   1      15.481822015271741      22.986968138270392      3.5190490870205511
   339   1      16.637862467803139      24.341321913297982      5.1845404736690588
   340   1      17.774465114685832     0.22810831619108934      3.5718932533046877
   341   1      18.958113463139391      1.1999648111189605      5.3584438368466287
   342   1      17.762206037487459      2.5310153801656745      3.7986081993191418
   343   1      19.166288198653138      3.8943636159968382      5.5904826986718961
   344   1      17.978431535899645      5.0010372945517654      3.6471385199732853
   345   1      19.173806244450045       6.327432308752523      5.4727301500369334
   346   1      17.979582007734216      7.7648679723469369      3.7499798324283558
   347   1      19.213257817588129      9.0717964248606542      5.3589336250409518
   348   1      17.812005389328814      10.252828098192992      3.7377447323302042
   349   1      18.910904675716267      11.521107895161663      5.4214461394707003
   350   1      17.788616407310695       12.85052716008132      3.7872742256068936
   351   1      19.396465492771963      14.051143767506447      5.3963863071040024
   352   1      17.939538057848235      15.348230668864845      3.8117726664327387
   353   1      19.138903598414572      16.678218488170607      5.5203650528402992
   354   1      17.853438687616222      17.741984602106758       3.592618398953026
   355   1      19.267972409172756      19.116877183252079      5.5539767429030631
   356   1      17.874740250038311      20.298299706209676      3.9462538221545755
   357   1      19.206176180338474      21.500209039502248       5.515709651380214
   358   1      17.968187350524513       22.92089971798146      3.7600323684954651
   359   1      19.250238186264038      24.203366589604418      5.5638909933782505