dump/Cu_720_5/steps_81 (written by ASE) 

1995 	 atoms 
1  atom types
0.0      25.526554800834361  xlo xhi
0.0              25.5265548  ylo yhi
0.0      36.100000000000001  zlo zhi


Atoms 

     1   1      0.1682047561811936      25.483792577604124    0.081435404535988992
     2   1       1.363153926516163      1.3760433499594455      2.0837226089391598
     3   1      25.483931802507797      2.3372992328456137     0.23454654575285772
     4   1      1.3220257780684719      3.7100615182053795      2.2058559518403498
     5   1     0.22651831990932672      4.9637650959029491    0.038280643535404224
     6   1      1.3198504440465773      6.2879699069454995      1.7071680859145895
     7   1    0.016010080565813892      7.7692145866360427     0.04432458424054192
     8   1      1.1460253222702759      8.7816175052016892      1.8002044841001288
     9   1     0.19531169621521055      10.119104084673543     0.13421299685305721
    10   1      1.0738492825999786      11.298033288349155      2.0624110003476162
    11   1     0.10713312545039443      12.620558482034465      36.003303424107337
    12   1      1.5155601161374361      14.002529053278529      2.0038078737093761
    13   1    0.046553417518324265      15.312925460578558      36.094758731771883
    14   1      1.2307533695263915      16.646557988763067      1.7604941660386422
    15   1    0.053895633070577841      17.943101752474259      35.981458345203343
    16   1      1.4525068480554195      19.198605592441648      1.7826064420003713
    17   1       25.49191290070987      20.549606017062541      35.986854260736209
    18   1      1.2212193328800696      21.680180693386571      1.8106806625131526
    19   1     0.12748114122350607      22.853632064786023     0.23060184508991602
    20   1      1.5749991681332669      24.240371180097107      1.7843531445064647
    21   1      2.5157255781501298     0.20515780812420065     0.13864036314811287
    22   1      3.9202703831175816      0.9700468282825172      2.0144429796368972
    23   1      2.5413999735018074      2.6357643344145645      0.2493059427810522
    24   1      3.9824906665666147      3.5561762739130325      1.8873395714142913
    25   1      2.7797681972500148      5.0977339713893448    0.078424608884676991
    26   1      3.8311779670544261        6.38837318574208      1.8998735939784526
    27   1      2.4419358775775364       7.632758354452017     0.12033965280614878
    28   1      3.7424511433066274      9.0301775762654284      1.6794011784722116
    29   1      2.6069762262715082      10.077403057216557      36.017776129040413
    30   1      3.8193763019650335        11.5419994844464      1.9846057696612893
    31   1       2.608987243244774       12.69222300809529     0.10081460058841003
    32   1      3.8660266041985705      14.174879223766897      1.8585983063133431
    33   1      2.4596188217872119      15.171523030822385     0.15055804330467037
    34   1      3.7381489890728878      16.622176578709841      1.8622069604894489
    35   1      2.5997905484323085      17.844595370870241      36.027048886121086
    36   1      3.8902280416398161      18.978885451957613      1.9328710230335107
    37   1      2.5012451460679905      20.588801943519229      36.069022728130932
    38   1      3.9893931223789991      21.784278745779467      1.9506628605368417
    39   1      2.5665815500867959      22.979920098745552    0.095846724128523422
    40   1      3.9027678748593448      24.140104108491432      1.6837445442307162
    41   1      5.1419227779201275      25.475708073713804     0.03938507307209415
    42   1      6.6084856301166646      1.2286038015325862      1.6902367633053368
    43   1      5.0742523900578185      2.5020452744802122    0.059724119956968184
    44   1      6.4038396618075408      3.7985132780469106      1.8382263601095232
    45   1       5.072932647299309      5.2319648177480405      36.004425386117624
    46   1      6.3020448777367593      6.3011014673271779      1.7078395836508653
    47   1      5.3750983864332307      7.5404100112654211     0.01298646626157734
    48   1      6.3427704487258492      9.0427359035477828      1.7317214163576966
    49   1      4.9945629712429582       10.31893987394227      36.060379930616769
    50   1      6.2751083249866415      11.534915380213333      1.7798424932073771
    51   1      5.0189584299298957      12.879441071162631     0.25441485350933146
    52   1      6.5926410742544981      14.293662283517682      1.8286451645643413
    53   1      5.0376001392712464      15.337025018170269     0.17553100558451445
    54   1      6.4172784021438467      16.679191815130711      1.8399421570905714
    55   1      5.0418104186308002      17.950455399207982      35.955715556880058
    56   1      6.3801798556318916      19.323079943417202      1.6909879840606878
    57   1      5.0868291999669539      20.486578124341381     0.16730259005977374
    58   1      6.6127717949073164      21.617684009661478      1.8379247722924688
    59   1      5.0937969757488011      22.893015369713876    0.014342767107007154
    60   1      6.3350780083607434      24.159977922716948      1.4475642345220887
    61   1      7.8561065802236936      25.501345129391613    0.066950457941652552
    62   1      9.0448957784001731      1.0463803842092025      1.8233306968313046
    63   1      7.7962704661792932      2.6054705641454259    0.035469266033032895
    64   1      9.0900948943748752      3.7222291512837842      1.8235477864656908
    65   1      7.6930068391216908      5.0092628811853279      36.040946972385029
    66   1      9.0567826016425403      6.3260595793933039      1.8143928417593187
    67   1      7.7943534585895389      7.6255026432394777    0.050453129756840721
    68   1      8.7391665823571287      9.0611929445624124      1.6424410377698351
    69   1      7.7740246972704705      10.484084714794161      36.098735156827345
    70   1      8.8142898606531066      11.634123965260702      1.8791240436174221
    71   1      7.7024009396761652      13.021325867928397    0.080878737867181055
    72   1      9.1162433688454065      14.001516086003363      1.8119693760946001
    73   1      7.8066078520368061      15.416121984694685      35.966344313019754
    74   1      8.8385646383406744      16.698859618000139      1.8235670518379254
    75   1      7.7172946756253502      17.807110331495874      36.093054815562624
    76   1      9.0657248032257591      18.975210999834903      1.7875180397546391
    77   1      7.4606439027439464      20.367881000955741       36.09711668781523
    78   1      9.1435757427549991      21.636347998802741      1.7167544839294111
    79   1      7.8984658204157769      22.805774011718341    0.079807770066384023
    80   1      9.0075925126276264      24.132236187753957      1.6191715890711309
    81   1      10.285359511285806      25.354109387852194      36.079087718147726
    82   1      11.498115354135976      1.0902552136001515      1.8750876676374573
    83   1      10.264485418388121      2.4706508364334607      35.932577629424671
    84   1      11.529626932113393      3.7893818373686683      1.6679463151004696
    85   1      10.270840684081444      4.9808233202524113      35.806254302779323
    86   1      11.686291027009739      6.4225932238079197      1.5545752174730996
    87   1      10.282451189425727      7.6433144561663005      35.977946064941868
    88   1      11.406219204029991      9.0681047984584762      1.5897143935506963
    89   1      10.310324656790277      10.248899880911862     0.19815550714307617
    90   1      11.409403218251972      11.650738524505442      1.6926578642685839
    91   1      10.245216810413089      12.993606317158434      36.095226280077355
    92   1      11.669033343705921       14.12356623803276      1.8314378920008965
    93   1      10.248352416592537      15.403408792767893     0.17196882535347399
    94   1       11.42061362307239      16.695229823230562      1.6958365756278224
    95   1      10.208311715390625      17.883983292988209      35.892091151191089
    96   1      11.583288996560837      19.266071833594911      1.7116335938900313
    97   1      10.547074675005634      20.388152782295656    0.067531072886242646
    98   1      11.707298600350756      21.855319259888194      1.8447764318265527
    99   1       10.45126563328814      22.953646297039942      36.080207558788324
   100   1      11.437284388289077      24.394668319966435      1.7696908449489219
   101   1      12.736380873409857      25.485990993951848   0.0051889712927390931
   102   1      13.855428603840707      1.3349264253416071      1.7857601220337209
   103   1      12.966014580797628      2.3382588628412191      35.881690562692505
   104   1      13.993008404967515      3.7170776684065627      1.7740216959268664
   105   1      13.024187796989455      5.1001072912580154      36.031847679871632
   106   1      14.009613349866465      6.4843985740529391      1.7493885378471978
   107   1      12.779791793911309      7.7092231505393656      36.008361050737498
   108   1      14.262258013143104       9.022952023551662      1.7250317138495908
   109   1      12.992291117992586      10.236002296230241     0.13635842451814145
   110   1      13.991890508479853      11.675771953038732      1.8353250084374393
   111   1      12.825330330498527      12.972416827281243      36.065388264968632
   112   1      13.945279067890704      14.138966751351242      1.7254939552608346
   113   1      12.820468612551917      15.419748197603566      36.027137232087618
   114   1      13.865267126425676      16.614753195088781      1.7299818630124475
   115   1      12.791092580602655      17.898721198164932      35.947354886281374
   116   1      14.036148410910217      19.008250704651473      1.4124649258967572
   117   1      12.876790242717842      20.645155116536142      36.058088013575833
   118   1       14.05795282579783      21.706911967070113      1.7255453769466831
   119   1      12.875825760011791      23.094831341776629      0.1265285533997485
   120   1      14.082280307245288       24.36625015507785       1.800920535430349
   121   1      15.361483752624958      25.507938579651526    0.026897347065812469
   122   1      16.601856301334806      1.4387116234230104      1.6315246017635201
   123   1      15.287506144662389      2.5378023720420746   0.0020280916058709412
   124   1       16.80470942847678      3.8497843556052938      1.6816314206225573
   125   1      15.342425531999433      5.0582747313678951     0.31021499479683146
   126   1      16.703349355139054      6.3330656883561405      2.0198245203744127
   127   1      15.261963942710986      7.5884302972981237      36.057163960090918
   128   1      16.696438801373986      9.0136962577763811      1.7478733331350682
   129   1      15.444863477199281      10.266589531714093    0.059835023434402675
   130   1      16.779120436848139      11.580604420729276      1.6649861744572592
   131   1       15.44978771727668      12.943271014263834     0.17330900519534692
   132   1      16.490717127384865      14.025195132127891      1.8573204012473425
   133   1      15.330533402476238      15.239237215269316      35.958044719000299
   134   1      16.587012514500703       16.62422734277262      1.8188094448973868
   135   1      15.361911235196896      17.832502156126132    0.060488194474703452
   136   1      16.304618662121886      19.269018319723276      1.9977745289604052
   137   1      15.537946276417978      20.588531217659394      36.072165419938734
   138   1       16.59049325355927      21.914770115333702      1.8756336207062183
   139   1      15.461279427737219      23.267082828396514     0.16213828059716193
   140   1      16.532119675167404       24.41123772044476       1.749831354216395
   141   1      17.945980706024688      25.465483115229535      36.039802452512944
   142   1      19.180766816012603       1.648182025549596      1.7508140707875333
   143   1      18.067991044816679      2.6230655807070202      36.038331967452585
   144   1       19.06165301440522      3.9692117922978261      1.8557761119518985
   145   1      17.863782127483748      5.1058420786511141    0.047319818604751304
   146   1      19.335667144957988      6.4986333480644882      1.5040866612311448
   147   1      17.948721662848001      7.8233248486749369      36.053316090641374
   148   1       19.17418525375049      8.9645767540076129      1.6823701237326871
   149   1       17.90420591633826      10.415821249435083      36.014106319991264
   150   1      19.187118103206892       11.56792781208086      1.8753070821225506
   151   1      17.874542929285237      12.805280621744076    0.096371452632774759
   152   1      19.114235461585842      14.120123303634355      1.7896728926007535
   153   1      17.948672238728175      15.362467655435919    0.044392578175177125
   154   1       19.14763975325431      16.849441980142689       1.795401606810106
   155   1      17.843415695671432      17.767800547796739     0.14150164670642182
   156   1      19.274919433257438      19.316271208387164      1.7628317846196306
   157   1      17.792935106126222      20.392730125164945     0.11631242630643336
   158   1      19.108396174797317      21.661917403937494      1.6050363767437499
   159   1      17.823199496301232      23.157605090832966      35.849992766805521
   160   1      19.173279435818653      24.024427919250428        2.06960389114953
   161   1      20.435448723250779    0.066443942970456971      36.020208117247961
   162   1      21.554774737892959      1.1888359349426925      1.8467663526622122
   163   1      20.468318774215405      2.6990625009806517     0.18390283814944736
   164   1      21.748846119014214      3.8573788480340796      1.9037184689901099
   165   1       20.48032301004503      5.1024552823803724     0.07726475199169737
   166   1      21.741592628678184      6.3203150405821154      1.6225449848260272
   167   1      20.544775801396739      7.7262361424833221      35.929000810685572
   168   1      21.691139049372548      8.9974797006039235      1.8172684880038343
   169   1       20.48583137856912      10.191704753109002      36.061565062573727
   170   1      21.674997486259528      11.450815893498154      1.7091686877391565
   171   1      20.310068216832882      12.776450964591495      35.952367180789267
   172   1      21.665867919487741      13.953026101015459      1.9649211010485264
   173   1      20.411781514350952      15.173363241272382     0.11006550581624877
   174   1      21.787279469080062      16.309048232377339      1.9280190927975354
   175   1      20.513221110821419      17.513713068816042    0.038067123170742352
   176   1      21.806513476797019      19.193667979522225      1.5429025510275447
   177   1      20.353386685097675      20.414874353062796    0.027758835861595797
   178   1      21.783572055831407      21.607818266236709      1.9528952218652886
   179   1      20.325532335611641      22.884192857311099    0.028082104753946156
   180   1      21.407704295906839      24.038477814915701      1.7408243766001077
   181   1      23.003003019615367    0.086746980224659362     0.23814485567282875
   182   1      24.261239379856146      1.2851410326940942      1.7418187624713375
   183   1       22.97839160748488      2.6581983186676639      0.1225948337925046
   184   1      24.061140667319311      3.8470625225662407      1.8986505641735918
   185   1      23.155683134747804      5.1086808688120318      36.057782043537635
   186   1      24.530695993557686      6.3388392973775103      1.6018439891779395
   187   1      23.180401328786527      7.6627088620283894     0.06459404262270696
   188   1      24.225332072817704      8.8384211080412989      1.7278982023071656
   189   1      23.256635804121856      10.239374103734093      36.074821203143152
   190   1      24.255487720171875       11.55353886555112      1.7745474369154197
   191   1      22.826465696216022      12.763790357092981    0.012244085151939983
   192   1      24.193814379942733      14.002337424826029      1.7104635144150175
   193   1      22.855649081548904      15.111922065374449    0.091966338588099411
   194   1      24.179967626862883      16.436581999193209      1.7902794839786105
   195   1      22.941066789695327      17.750223249692294    0.019930687527403276
   196   1      24.389912067887202      18.936045838439675      1.6911636341036136
   197   1      22.914880175591772      20.441094625696355      35.923859418088412
   198   1      24.398441062435555      21.753919136767603      1.8414644528700821
   199   1      23.110768212995573      23.112964732242645    0.062161242259935585
   200   1      24.410332953774358      24.175884136277826       1.777806011694814
   201   1      0.1103310219665222    0.047787619320881998      3.7744315563549193
   202   1      1.2484712232464168      1.0877654146963951      5.4834102810573269
   203   1      25.486460423373629        2.58566288822212      3.7098219277589681
   204   1       1.432198409756738      3.7447314276353625       5.565879427993929
   205   1       25.38164551693519      5.0190325106023534       3.526243931671206
   206   1      1.4464260045098369      6.3717158189727918      5.2458175907231386
   207   1     0.19784091082253866      7.5619575419349525      3.4630367723200046
   208   1      1.3977969303927447      8.6812852488525785      5.4440268278632633
   209   1      25.507287983461755       10.00329471462997      3.7891226992201545
   210   1      1.2898958999962906      11.093986494038562      5.4212402045485719
   211   1    0.056145640329752076      12.713092472606133      3.5790114878101225
   212   1      1.3375799390526046      14.189498336419222      5.5611744480790772
   213   1     0.21888081349930294      15.478761363428228      3.5325431240228022
   214   1      1.1210569469971805      16.678255873994676      5.3445198508672949
   215   1    0.064138956321250523      18.121971676921408      3.5792600289413938
   216   1       1.416959191927047      19.268309218100363      5.3387714676356621
   217   1     0.30677910277187737      20.603192343886377      3.5458912813678944
   218   1      1.5092676357980301      21.744262853600045      5.5060749842112475
   219   1     0.22536479677826218      23.063620079438699      3.5487705810201757
   220   1      1.3779543756387387      24.245373717534633       5.485835822852283
   221   1      2.6475295814780417      25.351690598483312      3.7626125342634036
   222   1      3.9370732344202266      1.3225142296177934      5.4910503271226432
   223   1      2.7602655460475347      2.2964699697560924      3.7068316566941948
   224   1      4.1214604777526223      3.8154681108233697      5.4085995918449727
   225   1      2.8813326260755838       4.902596260889899      3.5852803997806051
   226   1      3.8587570336409365      6.4549685800608607      5.4112052442347522
   227   1      2.7103586657701695      7.4927369401436898      3.5733564167850225
   228   1      3.8387497618452517      8.7906773431128311      5.4453429321203224
   229   1       2.470008288822704      10.013904594770617      3.4704720125079005
   230   1      3.8374410144846065      11.422211999477108       5.546398489612284
   231   1      2.4301858118154325      12.634598368601411      3.7295367771177284
   232   1       3.994262551295058      13.817538140104199      5.3224197189426965
   233   1      2.6443947548950186      15.403514124129599      3.6147430247476597
   234   1      3.9968461479342459       16.65833220774449      5.4911402597876497
   235   1      2.5939138838554756      17.903746130561469      3.6977722840443943
   236   1      3.7811372327607962      19.202779037787028      5.3491684015424381
   237   1      2.6837662413138847      20.596845144708251       3.603054511895313
   238   1      3.9058072064528546      21.597815529721402      5.4466409081964784
   239   1      2.7198287931137881      23.065542595447408       3.543653426897289
   240   1      4.1047435577539773      24.286335242317961      5.5061711939210438
   241   1      5.1005453594126831      25.433294478774723      3.6984785697999523
   242   1      6.5087722608272101      1.2725228445180385      5.4290517966850764
   243   1      5.3275151348741803      2.3548322879260444      3.6136344297927163
   244   1      6.6180101906375732      3.7664962990364659      5.2139926415091411
   245   1      5.1336300197209406      4.9621160224983427       3.647436302740366
   246   1      6.6212578939995126      6.4926255299209439      5.3722478941649392
   247   1      5.1563890178783369      7.6554558661758536       3.446999367081697
   248   1      6.3826940889189183      8.7706625767762194      5.3827409134151347
   249   1      4.8547042957746172      10.280205463513651      3.6843339343928272
   250   1      6.2844783129992114       11.34061318513753      5.5709019607984418
   251   1      5.2036655167756587      12.726382745069634      3.4930431632713521
   252   1      6.3574351061822485      14.000939863182914      5.5503558008494585
   253   1      5.2124897789161846      15.296176738631178      3.7438812087347935
   254   1      6.4677945686090164      16.596019664660115      5.7372996682487551
   255   1      5.3140985422784679      17.891604743321274      3.8812698286362619
   256   1      6.3669803305470838      19.390267498581299       5.391975667962706
   257   1      5.0814018927751077      20.541102344345248      3.5422318430319262
   258   1      6.5772873458650354       21.70956076201675       5.380015295813191
   259   1      5.3381803819623146      23.160546687055547      3.6729231606060946
   260   1       6.517917291440364       24.31525042279219      5.4249060830219511
   261   1      7.5067297609994084      25.331877728602393      3.3824310017078463
   262   1      9.1416783335247249      1.1315952748527018      5.3029070548777968
   263   1      7.8200082592905531      2.4293398629512875      3.6494923111340025
   264   1      9.3093549439133536      3.9174812945191508      5.1403536451653791
   265   1      7.8111158386147226      4.8331524206083341      3.4745101624295125
   266   1       9.034152005660399       6.352915030117984       5.187177334371694
   267   1      7.6810609549165907      7.7076279449176202      3.4531657907216178
   268   1       8.782480369987546      8.4968512246740691      5.5442599883541925
   269   1      7.5456060793830799      10.281939864152413      3.6381149459063913
   270   1      8.8248622021982985      11.193507518334124      5.5036735179846525
   271   1       7.525091468810567      12.639233817768947      3.7244587268392229
   272   1      8.7563536455078435      14.012935644126779      5.5617302872023187
   273   1      7.6537484630257255       15.44725262572987      3.7278600431453364
   274   1      8.8983409230364874      16.361439215251451      5.4652872028842499
   275   1      7.6886475512264596      17.853885681843352      3.9828499981869703
   276   1      8.9842704071193378      19.069996068481149      5.4346214174677945
   277   1       7.656264017312524      20.313238534056143      3.4435187499693822
   278   1      9.0946862374277515      21.635862252340548      5.1115375780192132
   279   1      7.8654252930922457      22.967390646604475       3.437747334688833
   280   1      8.8719859556406675      24.095701356076724      5.3673506783204417
   281   1      10.126762004525441    0.027372082894571392      3.6167184498259468
   282   1      11.552832862789343      1.1841603637487002       5.470418822505013
   283   1      10.609871135687101      2.3873590457632301      3.6007488940950556
   284   1      10.367433663596701      5.2522330553193459      3.3987663563641153
   285   1      11.434701223980305        6.40096397469003      5.2992656345729241
   286   1      10.227357976054977       7.863476944382862      3.3178475662126519
   287   1      11.312186158499703      8.8891816224665288      5.3491735142267789
   288   1      10.228946329758527      10.381980760543616      3.2431851562642571
   289   1      11.336599091153277      11.533162698955863      5.2144978134063802
   290   1       10.06327946786732      12.810171158683316      3.6551601816571542
   291   1      11.390549198734794      14.326443031684947      5.2531732196915852
   292   1      10.140218180721781      15.255065717393299      3.4418316515281746
   293   1      11.486540711149852      16.568959330396531      5.4534386819749097
   294   1      9.9613037337325423      17.633147617364848      3.5870381410090317
   295   1      11.462689960374245       19.14130405213908      5.3456728675884984
   296   1      10.133269679235184      20.293284018495584      3.3958399627939926
   297   1      11.393253428405639      21.558005618345462      5.5522555726809832
   298   1      10.348340706636764      22.897257479807813      3.6057730685990568
   299   1      11.528384102610723      24.145690293941133      5.4903748463623305
   300   1      12.574223946776284   0.0098021539812983179      3.5778612721295202
   301   1      13.924802539331333      1.2978861141360984      5.4532676058841325
   302   1      12.973621310796327      2.5304683579930964      3.7378387229230734
   303   1      14.106011179758768      3.8999975966492761      5.4449246054185876
   304   1       12.65335680086271      5.0244034474775798      3.7218904480649151
   305   1      14.207729087531085       6.327030647892439      5.4328811054190469
   306   1      12.834697468969786      7.5637119881365349      3.6835166752548028
   307   1      13.785030846286316       9.049745945267814      5.4624236059215576
   308   1      12.726244203254888      10.209672651179714      3.5222716542735029
   309   1      14.126819530763269      11.417868276834906      5.3208196357255497
   310   1      12.726889337900134       12.77900706266589      3.7331515005113647
   311   1      13.936875380531019      14.070899926630492       5.345912587062295
   312   1      12.686903969749588       15.42641772961567      3.5832018751981667
   313   1      14.115798589156373      16.563198909769948      5.2316725803125719
   314   1      12.656493059329284      17.755302067780136      3.5348908599855591
   315   1      13.924628634899177       18.87496490752417      5.4636938817214933
   316   1      12.803827853950294       20.35326357770467      3.5608465741604842
   317   1      14.001794356632336      21.793957895225237      5.2812712410610709
   318   1      12.716984638894713      23.217100576297341      3.6485468614349146
   319   1      14.077315033749162      24.300454814844926      5.4188175333832698
   320   1      15.201628400777336     0.35226350725624633      3.5578385172988867
   321   1      16.491180535187528      1.2269432255852837      5.3559296250894315
   322   1      15.359068869240456      2.7560357969754943      3.3931534590258128
   323   1      16.503681162590198      3.9393264487008217      5.3797502062902307
   324   1      15.386992889740585      5.1603730403105175      3.3126116517659963
   325   1      16.641915037570854      6.3826885002415876      5.5020722961848767
   326   1      15.431195430374888      7.6609315267763529      3.5617532813068689
   327   1      16.655772926390885      8.7804565246837782      5.3871875006268732
   328   1      15.271158182377164      10.208021735546952      3.6595585561296504
   329   1      16.571302954245034      11.397733560164165      5.2537847835538303
   330   1      15.250330729394378      12.809724763386283      3.4905559001253907
   331   1      16.605243593679255      13.845371902483878      5.3128990083160845
   332   1       15.25699541500822       15.41948434847146      3.6097863458057318
   333   1      16.658484919122678      16.661491739484877      5.5563035827068585
   334   1      15.374694698481852      17.885864908174973      3.6678665110849682
   335   1      16.648296615172971      19.158180213317738      5.4662080911557993
   336   1      15.236094754567434      20.444610840390915      3.6598063266514389
   337   1      16.492025324029541      21.683596856934152      5.2503696857670201
   338   1      15.305181792292686      23.089546196948437      3.5936805007434023
   339   1       16.49853264610741       24.34914962652088      5.3076879230440195
   340   1      17.612768065403728    0.071225162367261952      3.4430069363539011
   341   1      19.120770463428471       1.027276558200745      5.3006538630435935
   342   1      18.007591981631524      2.5703881405874873      3.7337212366086607
   343   1      19.245726366033402      3.9609302902328447        5.42366646897203
   344   1      17.994075846702319      5.1381364757088388      3.6260158308867232
   345   1      19.273815306737834      6.4123701482876552      5.3776403829817374
   346   1      17.907429135866316      7.6452892654887457      3.8160663522832432
   347   1      19.190027837762283      8.8544903461692925      5.4477019277001375
   348   1      18.064655337924879      10.123104435387525      3.4511638908621407
   349   1      19.245876034479842      11.507094589443629      5.3740924952076297
   350   1      17.884198415563453      12.782957478905576      3.4851281192366739
   351   1      19.141436732502253      13.754087084095879      5.5900998691893262
   352   1      17.886422816720259      15.116322532799865      3.6416238684724149
   353   1      19.104068457742105      16.570562950231672      5.3220917604160789
   354   1      17.830399813331283      17.910809117319307      3.4049514847240867
   355   1      19.330392021967871      18.990485365750615      5.4448806106094816
   356   1      17.746394453654041      20.346977196856162      3.4967023243346711
   357   1      19.392583130034154      21.443057126640408      5.1438452042665102
   358   1      17.907208661368305      22.835826762196533      3.7354658543371513
   359   1      19.276547485165811      24.085021740377854       5.409338202182064