dump/Cu_720_5/steps_61 (written by ASE) 

1995 	 atoms 
1  atom types
0.0      25.526554800834361  xlo xhi
0.0              25.5265548  ylo yhi
0.0      36.100000000000001  zlo zhi


Atoms 

     1   1      25.311661378967294      25.484532678262049      36.094574945537417
     2   1      1.4488834917077593      1.0401597928530115      1.6813463869757472
     3   1    0.073300717080876557      2.5376231934052815      35.984119106358797
     4   1      1.3652009505226708      3.6458978405586793      1.5160907665660257
     5   1       25.40791004679328      5.1895871421441733    0.088234119765036201
     6   1      1.4025255878695935       6.232160440153768      1.6268917713475841
     7   1     0.28550278820775987      7.6027584831616384      35.938764091613415
     8   1      1.5355227810550494      8.8412104653675563      1.8223168518827713
     9   1      0.1965636603465071      9.9984849299535519    0.031021499579412651
    10   1      1.5251824881176095      11.519519702912781      1.5329342165442656
    11   1      25.505515777850952      12.822948806029034      36.085935668138227
    12   1     0.97005233945537439      13.973026590799291      1.6888405539092328
    13   1      25.244929708249195      15.308600939378943      36.083932985371362
    14   1      1.1000569866703989      16.587827579325268      1.6950448300591223
    15   1      25.474806113808707      17.884747852618265    0.051750656615194957
    16   1      1.2811055095757966      19.219949046012527      2.0186781223351438
    17   1      25.377120656042109      20.435975499944785    0.061087203085890107
    18   1      1.2969413371984695      21.661945661706021       1.672960879332867
    19   1      25.497566159179339      22.859241644779793    0.078120791637115897
    20   1      1.2551044240277769      24.260426025959912      1.7009318301980327
    21   1      2.6598965636947942    0.038545309774808759      36.076274279248807
    22   1      3.7786252669136213      1.2906473762546291       2.174015604370322
    23   1       2.751748149028324      2.6809350280942557      35.743733662192561
    24   1      3.9571217612367882      3.8549737917672573      1.8891037160895294
    25   1      2.7284088291634907      5.0889918546359105      36.048432080899921
    26   1      3.9212579454883776      6.3524772452262921      1.9875225632775015
    27   1      2.8253665092631723      7.4874431490032869    0.042705860889463966
    28   1      3.7293233201310985      8.8859697430399756      2.1125325468782177
    29   1      2.7487082179501843      10.126364001309588      36.077238478708331
    30   1      3.9068817155055315      11.328403110948205      1.7018228531437771
    31   1       2.354861763757838      12.698584061232145      35.782343975916575
    32   1      3.4809433928455324      13.699071447965093      1.8062541388749542
    33   1      2.7290131702807794      15.187916169973489    0.087963512557439671
    34   1      3.7756372359410859      16.559576603920743      1.8806871583466565
    35   1      2.3449391852469517      17.918134498869772     0.19856046129611959
    36   1      4.0481822944901547      19.103092756390119      1.6167827791630329
    37   1      2.5727357778184028      20.323723636240313     0.13986269465765408
    38   1      3.9611927887981557      21.644326953635328      1.8789497997974529
    39   1      2.4514982368296305      23.137987956521663     0.16711569187486944
    40   1      4.1062858283441503      24.271016920093317       1.703427386082139
    41   1      5.2269755665063311    0.047949433844608369   0.0042882656093866049
    42   1      6.2548385707163048      1.1970558508522753      1.8808178758399308
    43   1      5.0106233525893424       2.678341862267358    0.049351182955388165
    44   1      6.3031946100287994      3.7751746432803444      1.7626934452312399
    45   1      5.3233322222022608      5.3072017718633901    0.077816406904048438
    46   1      6.6168142809770387      6.2734117517201549      1.9439358635648556
    47   1      5.1790291220098119      7.5955922177517818     0.15164074832832752
    48   1      6.5850912732426634      8.8014384359589108      1.6828180000239954
    49   1      5.1822014689667864      10.016277499100054    0.084883776903757299
    50   1      6.5738289609976919      11.389603251656997      1.7225735589347322
    51   1      4.9817355108900259      12.680756616349173      36.084316095352385
    52   1      6.3120504151643644      13.929999942022068      1.5483526980224387
    53   1      5.2606298229987436      15.476043922091286      35.974519094343172
    54   1      6.3458649471335598      16.611529157265789      1.8189838426619542
    55   1      5.1320984112939616      17.813108648475275      36.057479151757306
    56   1      6.5264990997443659      19.118146471416427      1.5324333565896486
    57   1      5.0489594122501833      20.494555329192735      36.099766214441985
    58   1      6.4157714208763341      21.594322519917228      1.9988438880586263
    59   1      5.3659791026391357      22.991351407930171    0.081005571848402333
    60   1      6.4506612000884465      24.333665446851256      2.0123963080795648
    61   1      7.6355255060986069     0.34813846277957289      36.093383313412446
    62   1       8.974301452868561      1.6657928290184953      1.8262867092352864
    63   1      7.8031521269584347      2.6833716161542442      36.064354360817418
    64   1      8.9363096107361653      4.0476852063345419       1.758519482845269
    65   1      7.8503367742064967      5.0795602522314667      35.846139658091069
    66   1      8.9627263514133908      6.4572422899961044      1.8005824239476729
    67   1      7.7655905263059086      7.4862164510070084      35.899759592852483
    68   1      9.1267295485200624      9.2503121390746177      1.9575333604887641
    69   1       7.865387280495713      10.174683881723885      35.998802862610511
    70   1      9.0529804870089077      11.553142101936041      1.8443270400284506
    71   1      7.8585730104986462      12.788564990533152      35.827849636047404
    72   1      8.8700091560834107      13.939463019682288      1.7975607816826029
    73   1      7.5794943467656175      15.299619967931314    0.093093687610701095
    74   1      8.9213188761321494      16.368679605901825      1.7363329997556218
    75   1      7.5118337967091087      17.832941204870735      35.972764933555816
    76   1      9.0075838194098807      19.096742847444194      1.7824430912237854
    77   1      7.6705666387676672       20.43831175636468      36.017509451645218
    78   1      8.9840329449164962      21.599684893269441      1.8554022062449009
    79   1      7.6639988595385411      22.849174031804061      36.077232927415253
    80   1      8.8510709121395656      24.339370152916462      1.7268279012453056
    81   1       10.09871776565069     0.13420307703427725     0.09775472377549474
    82   1      11.483125001671706      1.3544638481114752       1.797298440593988
    83   1      10.183959229382952      2.6656939010696079      36.004736390901364
    84   1      11.438699907734581      3.7939410259360233      1.7667995898713678
    85   1      10.296329596187014      5.2311130538225887     0.28646256537413139
    86   1      11.684367144773018      6.3222043928392635       2.073498347209751
    87   1      10.376092864993252      7.8454156338217373     0.17957554650521379
    88   1      11.854008202188071      8.8206858326962845      2.0449969419262297
    89   1      10.356884627903636      10.261335145737013      36.041150643874225
    90   1      11.575598436603059       11.42996217024564      1.8312426382400533
    91   1      10.229380980889578       12.73932938956724       36.03536009544306
    92   1      11.541832091167056      13.930204430550704      1.9771434099306926
    93   1      10.162765007826858      15.218219656398103    0.025092834156657785
    94   1      11.596707989204841       16.61317413091864      1.8674660460933168
    95   1       10.34871004055238       17.86276255385398    0.094692128262408984
    96   1      11.609125958120922      19.268364142142094      1.7533090961311919
    97   1      10.172117951942502      20.441534504657568      35.970568693217665
    98   1      11.562791593112991      21.582264057494822       1.632480787380723
    99   1      10.255038291077449      22.819386993278926      36.063321755552714
   100   1      11.327161734083239      24.259462494119596      1.4852782702983063
   101   1      12.895212908626359      25.514024556152339      36.076337375740387
   102   1      14.009638064348144      1.4880466456089174       1.915390118038762
   103   1      12.726054496520128      2.4888316361869158      35.986552476423292
   104   1      13.967635187637017      3.9690152560775314      1.9675182220922001
   105   1      12.864368077696698      5.2520786556212737      36.056695544594312
   106   1      13.922568844917871      6.4083057443533127      2.0708766202419269
   107   1      12.971105113781716      7.5730570750751003     0.23773488589316699
   108   1       14.23167592906915      9.1578905178206611      1.9338846730949957
   109   1      12.871257291386057      10.137107114129556      35.929929436216277
   110   1      14.104619060757159      11.618389163334733      2.0741410734230721
   111   1      12.753213595111937      12.479683918175539       36.08449860832426
   112   1      14.095178224619335      14.084159975786996      1.9328436854361468
   113   1      13.017689362318919      15.054156668664232     0.14421472579790584
   114   1      14.016511622528437      16.696841369296354      2.2297664954280312
   115   1      12.790022484184439      17.710866486827694    0.071657021417411149
   116   1      14.065143067542886      19.127386962815425      1.6468595448262242
   117   1      12.811164233452667      20.288156157577358      35.988619090904031
   118   1      14.102136325396557      21.599802538416956      1.7729891901146415
   119   1      12.865518192575376      22.837673659009575    0.088970855704531046
   120   1      14.005140934230319      24.231124234146559      1.6539982444457348
   121   1      15.293365993543727     0.20931625348922259      35.942241205899244
   122   1      16.773836308607855      1.2827440966124475      1.5883130009126358
   123   1      15.232330546797632      2.7123675870936417    0.023034631775499279
   124   1      16.576212046643093       3.788768576942021      1.7647910107658049
   125   1      15.277788835930734      5.3294488105938873     0.15711227808006931
   126   1      16.792261568844161      6.3569239707402492       1.531904610550022
   127   1      15.468262752868833      7.9030989143976642     0.20055359915114637
   128   1      16.759424306102204      8.8948949000962578       1.832004575353402
   129   1        15.3428092046468      10.358436522745759      36.095853842872998
   130   1      16.595415568430671      11.470166149540805      1.7915621289663484
   131   1      15.341139687720583      12.924681322024197    0.051090411120890127
   132   1      16.632456069253358      13.949225176061784      2.0817870425139628
   133   1      15.271133079150745      15.352730871156238     0.33938202805400103
   134   1       16.54641048614798      16.700960461232633      2.0376771734837336
   135   1      15.444700595452824      17.973519111092578    0.052002895433315661
   136   1      16.425445247171368      19.173441914258099      1.8536312476764356
   137   1      15.466921655080421      20.369905859687506      35.978049256312083
   138   1      16.561138818831978      21.818905708909661      1.6854121206295982
   139   1      15.286472604661352       23.08146942094351      36.028549882456879
   140   1      16.758510341652169      24.250087894831566       1.826932436157551
   141   1      17.877999932120144      25.480383030120752      35.984281571038743
   142   1      19.179290071749669       1.192103498404169      1.7456958347267448
   143   1      17.850539135950342      2.5307769782844511    0.036665943215086969
   144   1      19.310348453353551      3.7467679666796769      1.8486375954447898
   145   1      17.992244006427299      5.0270108874775969       36.07961258547914
   146   1      19.220645406010117      6.4184557990250592      1.7226842924985353
   147   1      18.047718275029023      7.7963867980876245    0.098382710485145575
   148   1      19.225825126269253      9.0569733543629276      1.7914118851214413
   149   1      17.916037462169925       10.34807591490814      35.873531766204941
   150   1      19.296307088542619      11.726910077900172      1.7908796145590369
   151   1      18.069351192163936      12.934407403814042      35.817073986327763
   152   1       19.06500356753925      14.294759686928646      1.9641777718642515
   153   1       17.82997750002356       15.42275961646277      36.052209970560305
   154   1      18.943940339409025      16.698352427525926       1.856789974724518
   155   1      17.745697728918714      17.747433544380307    0.040149622203773598
   156   1      18.935900817220194      19.379593859672244      1.4111319025579532
   157   1      17.880330028571056      20.606857751656914      35.766592754758271
   158   1      19.118436656878881      21.752036136060166       1.745498353148309
   159   1      17.847693728869036      23.021329586846722      36.005459070625889
   160   1      19.132058898526338      24.184470059757626      1.7091488884241828
   161   1      20.207359730658808     0.15589321136206807      36.063824402231177
   162   1      21.569701578128168      1.3051378443248556      1.7041093931248266
   163   1      20.246854641981429      2.5458208013530177      36.053883595401793
   164   1      21.802479043570745      3.6921829237290442      1.7648125350523638
   165   1      20.416285763339243        4.92832672435686    0.036742282366924561
   166   1      21.630386717713339      6.1982447855992859      1.8379078455073454
   167   1      20.482674110133132      7.7681895537744037     0.16138704900699838
   168   1      21.732635565445829      8.9606583573290361      1.9096347572179762
   169   1       20.59131323387723      10.287782129639936     0.09546155837356296
   170   1      21.588926425556721      11.541866237494878      1.8893973092160201
   171   1      20.471331407102628      12.802601828961045       36.01324776904611
   172   1      21.693042805387332      13.923971149122382      1.7545301277836087
   173   1      20.156946907293985      15.239327085915177      36.058486199661971
   174   1      21.380039809749299      16.491899941742787      1.7343694648516021
   175   1      20.241706618031724      17.709324358176016      0.0744118888293996
   176   1      21.360528300885324      19.209910835663294       1.588640138710572
   177   1      20.509274558551859      20.409822681891605      35.922676245916769
   178   1      21.526807919378246      21.451363258909083      1.9115123599521677
   179   1      20.398080613108476      23.031411243005344   0.0042877468641108743
   180   1      21.648608547186011      24.176025502538081      2.0840785099820893
   181   1      22.806293887635579      25.499932457133923       36.05838132183505
   182   1      24.301175132158217      1.1281635988402012      1.6721855875728804
   183   1      22.918879090092517      2.4773416090134566      36.030697011564769
   184   1      24.196986480932079      3.8960977980486207      1.7212831464714335
   185   1      23.091491183186424      5.2120814783875673     0.09738188351614098
   186   1      24.115575499223397      6.5031154695044124      1.8304609873000215
   187   1      23.032265698765219      7.6385664270863058     0.14132401083975299
   188   1      24.335021705952968      8.9303765868311764      1.8648352786910423
   189   1      23.094297824013182      10.352695520993707    0.091324823095067204
   190   1      24.375092883040342      11.595572632132967      1.6258108506119915
   191   1      22.877933619100652      12.829792427001971      36.084651577204006
   192   1      24.231790575980259      14.089216050332308      1.7748882331820264
   193   1      22.842076383097506       15.31724224632427      35.936508895538353
   194   1       24.07997628986945      16.549595161948229      1.9695180898337399
   195   1      22.939748452313196       17.92659907533649      35.967059969626341
   196   1      23.972761986520805      19.033296736654417      2.0595701645307494
   197   1      22.900925882221152      20.163199882860397   0.0059562713950868026
   198   1      24.027501545093028      21.504033650607891      1.8715189254102138
   199   1      23.060100110005621      22.646414705343794      35.898522580135889
   200   1      24.011203120948519      24.051061259978184      1.6564830201162286
   201   1      25.361330982116069       25.38017495714503       3.450589357705927
   202   1      1.1403436851001869      1.1669412856632668      5.2418578341636257
   203   1      25.497646820341519      2.4402809378504555      3.3858220510789594
   204   1     0.98842635263061773      3.9182498967773443      5.2114721175883911
   205   1     0.18573888977965444      5.0374973755074572      3.3678199606080961
   206   1      1.4496240874845074      6.3861193818718069      5.3194747270224685
   207   1     0.17055311653220775      7.4701591047613904      3.3504788604221534
   208   1      1.5855202224271283      8.9745391006649111      5.2254009687793062
   209   1     0.47803811494347626      10.315012574257949      3.5597990552327925
   210   1      1.3133802150124512      11.426404689781043      5.5022884845477318
   211   1       25.46036487099601      12.667314065202463      3.5721478273322518
   212   1      1.2655393912481177      14.024511491151614      5.1848552614412071
   213   1     0.15990886200710058      15.378916700412722      3.5735156245065931
   214   1      1.2448150102084061      16.571055968904901      5.3045192829160035
   215   1        25.4161667737113      17.859673621386587       3.631068356834954
   216   1      1.1803024240423152      19.051218066554299      5.2807657445627747
   217   1      25.259508692563603      20.248738463909028      3.5991549884722547
   218   1      1.1824591672094327       21.72829402738239      5.2911194240268253
   219   1    0.034487650526835278      22.733329619662019      3.3843801005813829
   220   1      1.1819509004958306      24.026623081359592      5.2614632652142737
   221   1      2.3263875885084899      25.439481887690228      3.5458809711141854
   222   1      3.4790857650591178      1.0951170346152226        5.21223297532479
   223   1      2.3662150264981445      2.7687829620425917      3.4091746327167702
   224   1       4.180385711117256      4.0244547208127308      5.5842234573237217
   225   1      2.8941980198691701      5.2370359701642535       3.621216426842913
   226   1      4.0546245650018102      6.4759985759614134      5.4261353423831364
   227   1      2.6123993319082168      7.5741023670979075      3.5600255428339573
   228   1      3.9052536528277324      8.9650515627208325      5.3101546099165002
   229   1      2.9069623257847166      10.286843429767211      3.7361952995491676
   230   1      3.8232011781512343      11.486096493462066      5.5098046768490256
   231   1      2.6140216110542536      12.683160690118095      3.8763432589018678
   232   1      3.9203680116442432      14.145988161566102      5.6521586906064485
   233   1      2.6603857670387394      15.365272157562679      3.6004286216064543
   234   1      3.6870438332755344      16.569244234084898      5.4463152607595537
   235   1      2.6253594394291544       17.95962143578252      3.5275912322407517
   236   1      3.6413202947125338      19.076290078963847      5.4874484543107327
   237   1      2.6346328941250081      20.368935959901023      3.7962850207003456
   238   1      3.8210426738532908      21.665000744482715      5.2747509948108604
   239   1      2.6125825548621457      22.835854768274615      3.3531126590391058
   240   1      3.7198694629268481      24.107825371719485      5.2816935762486494
   241   1      5.1510667252622842      25.188081653394644      3.8168244059419996
   242   1       6.361040863532085      1.1456406661095908      5.4447860912244987
   243   1      5.0317844217408174      2.4371579269454067      3.7945085618814489
   244   1      6.5061537921400152      3.8286527612545878       5.622443832406951
   245   1      5.3845205459321477      5.1368030985508248      3.6953230347280499
   246   1      6.3808286031170338      6.4967699346191434      5.5410438782911839
   247   1      5.2590459290180638      7.6361871297835586      3.4482540019381527
   248   1      6.3136948435135922       8.912738725924056      5.4009093654839919
   249   1      5.2360739519141761      10.357578095763461      3.5877699546859629
   250   1      6.2802854997098603      11.628123855791079      5.4884774821324003
   251   1      5.1132900112468063      12.622287565001903      3.4886227562488767
   252   1      6.4269634357961563      14.208701008882587      5.5025318095919857
   253   1      5.1521747255929711      15.005979806541996      3.4939779863895173
   254   1      6.2339263429478438      16.666589615100545      5.3599551787354436
   255   1      5.0969736778161501      17.801069233423622      3.6735170946189113
   256   1       6.432506808285968      19.079315665726625      5.4230184336975347
   257   1      5.1303211604881245      20.333391179622062      3.5265186969178663
   258   1      6.3257991408417285      21.833925064447993       5.367510573408139
   259   1       4.938134585011392      22.753836085137671      3.5809856791031049
   260   1      6.4472859445568362       24.29584975716012      5.3147116905491503
   261   1      7.7545458921306567    0.080513410189128984      3.5513433981559386
   262   1      8.9661581817938814      1.2303284317855763      5.4710720915100737
   263   1      7.6623694034494561        2.56630771473918       3.636019485070658
   264   1      8.9180292543416133      3.8566160049886276      5.3707196241571582
   265   1      7.7011476028338048      5.0612093162664431      3.7208122027107553
   266   1      9.1770060422688164      6.3028507482374136      5.3936476150830401
   267   1      7.9573504898671077      7.5052486924238444      3.8418765271536133
   268   1      8.9910900496332395      8.5368818664173869      5.8541272640808231
   269   1       7.762307859725726      10.001598173067265      3.7631468394718537
   270   1      8.9707082655337338      11.260848847515044      5.4912635216221739
   271   1      7.8977153440224228      12.636377514931189      3.6600383036600421
   272   1      8.9825463520638102      13.923049921469257      5.4997626626878731
   273   1      7.4638950330879625      15.215672546962645      3.5660842738391478
   274   1      8.8294794850293297      16.640264309614214      5.3557510424491284
   275   1      7.6324053050929752      18.003190007476753      3.5056896325757276
   276   1      8.9076864134334599      19.309695588569504      5.3520146043292813
   277   1      7.8411894382558485      20.488337824282439      3.6042765391067406
   278   1      9.0056356671117612      21.656212753219879      5.1950265365441606
   279   1      7.7996298914211097      22.968111035772974      3.5801758991731054
   280   1      9.1172890404687159      24.192506712540442      5.1600215258140025
   281   1      10.098942994021689      0.1199764518567724      3.4323293112609825
   282   1      11.398975673216846      1.4561031518274816      5.4316932088453171
   283   1      10.425052007299564      2.4794701992014754       3.708297638394868
   284   1      10.279433215140175      5.1500909123971921      3.7149728601953118
   285   1       11.48462096595023      6.4168994062239024      5.7424093195322348
   286   1      10.281649453933678       7.751541940248555      3.6845686675596832
   287   1      11.556276036594014      9.0226798202928151      5.5963064475476534
   288   1      10.227371873053722      10.244100902841536      3.7466372568743704
   289   1      11.411613816035432       11.54086927246659      5.4879109727278319
   290   1      10.343049875323493      12.725564911926391      3.6467731899407356
   291   1      11.501072953658985      14.113603344342213      5.6489227963684607
   292   1      10.209071829848616      15.206814540257872      3.7226068601984044
   293   1      11.451960237416559      16.643074806894873      5.3348241365639124
   294   1      10.091680251751043      17.908052152596042      3.4728002743067021
   295   1      11.640348390400529      19.342134894437255       5.492648337226063
   296   1      10.268921269350846      20.531892333350175      3.6247033067875272
   297   1      11.533850843504444      21.837555883475709      5.4989346225728548
   298   1      10.503965330051708      23.007167227800114      3.4853739686480933
   299   1      11.709519006490158      24.177618893532923      5.2429444506687712
   300   1      12.753085212545725     0.05875671124461964      3.4608566830745855
   301   1      14.271083535964614      1.1794540593952922      5.5664398317694328
   302   1      12.960229530338598       2.392499331089839      3.7736775759241086
   303   1      13.989032088486857      3.7319619816446847      5.6281767488852008
   304   1      12.684108779246364      4.9939100883306358      3.9095980957922092
   305   1      14.251831763146152      6.1371869724695962      5.2709256172621277
   306   1      12.976178223593433      7.3812458346494347      3.9659225989733873
   307   1      14.320300732637447      8.9974621555984164      5.4743501949475935
   308   1       12.83665144734641      10.218034227798571      3.9835999643410651
   309   1      13.949655966885258      11.483315776600405      5.5973753424481112
   310   1      12.908878498241124      12.828463527637791      3.9758375929464136
   311   1      14.156281637362426      14.021284406579642      5.6063690369973029
   312   1      12.542284852934785      15.300635461290067      3.5351088638768382
   313   1      13.899714872285447      16.702050580200499      5.4368726297000514
   314   1      12.746118470354961      18.142053104480556      3.7371760211813667
   315   1      14.119576101117906      19.345677196228781      5.4812604354654964
   316   1      13.043180133101371      20.595574717199817      3.6007034225710512
   317   1      14.002243085225096      21.830470316731027      5.5334008694633816
   318   1      12.738466614374099      23.075864100014439      3.4222351714098767
   319   1       14.11463110024256      24.402289849858754      5.4321834454981737
   320   1      15.470694012409783     0.26819355106887144      3.5399993603618092
   321   1      16.561261461846719      1.4247842878932961      5.4596097687653788
   322   1      15.340454926930901       2.791677194309353      3.4452819669632269
   323   1      16.445627953609449      3.9875568901147744      5.2672251298762545
   324   1      15.595972898304638      5.2408917109979756      3.4112811259216742
   325   1      16.589671749004324      6.4464622406797067      5.5346187127019686
   326   1      15.482500525014961      7.9128235167135248      3.5351058688602732
   327   1      16.825993519404769      8.8451096637174231      5.4595745749003601
   328   1      15.437965965630379      10.391067113738055      3.7750243002048869
   329   1      16.515379508503571      11.601161724064786      5.4954623554385069
   330   1      15.497735372960012      13.049820981114875      3.8459451798079893
   331   1      16.713116856446071       13.92890576622351      5.6015686712163149
   332   1      15.456197403270989      15.518302861505001       3.823558692972489
   333   1      16.788670599640767      16.823636151306424      5.6157840049308385
   334   1      15.347437957094062       17.97549120573408      3.9354165227619404
   335   1      16.514207922397599      19.399405053158812      5.3543888203469816
   336   1      15.395409928220738      20.543699420148368      3.5475634010325967
   337   1      16.422678955452326       21.97124782249276      5.4461357230840752
   338   1      15.281444079059892       23.15099126137363      3.3594935872179477
   339   1      16.527115176422402      24.463391216094678      5.4270932013465041
   340   1      17.862352677901157    0.096956304956430844      3.5515142569882543
   341   1      19.037419795500199      1.3125451432638766      5.4632026459267333
   342   1      17.756484517406825      2.5180046758252961      3.5058759041022882
   343   1      19.219701532476574      3.8962384433451569      5.4573224154019737
   344   1        17.8224155875441      5.0557141390422364      3.5965772549509891
   345   1      19.177844552651081      6.3599403483588874       5.379163124186868
   346   1      17.922394441664796      7.5182378973378681      3.6900140234794119
   347   1      19.199416075945422      9.0686373298153455      5.4923210506875524
   348   1      18.074672973296622      10.471260141053538      3.5753151691791141
   349   1      18.881258025468117      11.485978255385644      5.6243703185264451
   350   1      17.789141205137724      12.821516205691522      3.7230881444414652
   351   1      19.095297676279319      14.146074085806537      5.5998190150177916
   352   1      17.803624480640796      15.416415347641774      3.6124085027554567
   353   1      19.196843936826781      16.591159747114794      5.4876145973123212
   354   1      18.181378494489913      18.118322410080129      3.7377912383036112
   355   1      19.194354690380123      19.224684973390239       5.611074054805278
   356   1      17.864212105952316      20.776077072592933      3.6140327832397325
   357   1      19.096453610965241      21.783908679820168      5.3905689115517541
   358   1      17.935302182729142      23.181979067142201      3.5743450855249073
   359   1      19.135127449543873      24.302678282591682      5.5045852545802543