dump/Cu_720_5/steps_21 (written by ASE) 

1995 	 atoms 
1  atom types
0.0      25.526554800834361  xlo xhi
0.0              25.5265548  ylo yhi
0.0      36.100000000000001  zlo zhi


Atoms 

     1   1      25.358028872734078   0.0090922613917883664    0.013140131431794076
     2   1       1.283968616776282      1.2658583327797521      1.8206895006818984
     3   1     0.20203210342786254      2.5656732693505222    0.046178434045657593
     4   1      1.4383976239639547      3.7765935594164821       1.901265296918361
     5   1     0.17230350077233791      5.1508707486062066     0.24122686020557491
     6   1      1.3083184570466238      6.4254958230091672      1.9646461019997887
     7   1      25.384763543078694      7.5260400065681772      36.043963661844863
     8   1      1.2368294287334523      8.7756831277177092      1.8463035897928863
     9   1      25.431173757774818      10.154553331188906    0.075350817429591474
    10   1      1.5256676987919278      11.397286704410231       1.893786286160877
    11   1     0.35746285095995234      12.533325791155793      36.099223985527381
    12   1      1.1837293913579068      13.864355207142536       1.759517223280501
    13   1    0.031470504075316021      15.395254514205725   0.0052918807526793864
    14   1      1.2269515699171678      16.546497283873265      1.8564049256120381
    15   1      25.418872151381539      17.965601755047942     0.25768900254887522
    16   1      1.5308905637338477      19.019567803526527      1.8566800485880219
    17   1      25.274292368353091      20.329414932317277       36.03505552201193
    18   1      1.1705014563306517      21.706675381440931      1.8187568948809492
    19   1       25.48707570359224      22.882245918750748       36.02211653988347
    20   1      1.3051590010637388      24.476724233729648      1.8406278312856454
    21   1      2.5523435348837751      25.425876587660856    0.026499227613760484
    22   1      3.8117919274547649      1.3051873001523009      1.8215235037348072
    23   1      2.6189960590500303      2.4466360673250165    0.061394815160122136
    24   1      4.0413931776547862      3.7760198728802621       1.674898609662592
    25   1      2.8097892181972792      4.8630659320427982      35.994463349831641
    26   1      3.6342568262285346      6.1710958355261631       1.883589669175181
    27   1      2.5357491546193791      7.5329275338045001      36.098155182402678
    28   1      3.7658433079324585      8.8052716369496107      1.6917161161429257
    29   1      2.4125681285652778      10.239829519154236    0.044621324760430368
    30   1       3.793973657886359      11.193691492113727      2.0185825660670154
    31   1      2.6751184773151748      12.749777090561095      36.048942911436939
    32   1      3.8145879964789327      14.172523197088481      1.7789699899978144
    33   1      2.5024881698472776      15.279014648496116      35.945789278051869
    34   1      3.7094394809469908      16.451175186896776      1.5986043436372033
    35   1       2.339959026424006      17.827769034643151      35.992323851612987
    36   1      3.9716734266426799      19.221032489459336      1.7571484142969314
    37   1      2.3850931578752599      20.417763439848553     0.21917184253123895
    38   1      3.8438233317163277      21.697296324925791       1.709073240459372
    39   1      2.3626410992415017      22.882345206007095     0.17865136938033871
    40   1      3.9169028166885824         24.182010790366      1.6459212133964556
    41   1      5.0941211854002439      25.398732068229332     0.01219936234616625
    42   1      6.3967608170423365      1.3830170851912154      1.7001733113073001
    43   1      5.0043851594230357      2.4786768497556944      36.028766015923352
    44   1      6.3593047186406508       3.880016675627064      1.8728576552343379
    45   1       5.151726063152049       5.391172998002232    0.074752463388699605
    46   1      6.4507520031634016      6.5961925974185824      1.8576437045155885
    47   1      5.0561401560552772      7.9096477436277546      35.899448535446041
    48   1      6.0741762095467546      9.1314274351927569      1.5902176429996195
    49   1      5.2567131155762032      10.293050106610881      35.760138286791694
    50   1      6.5087782701633055      11.576428548602101      1.7420767478635759
    51   1      5.1813607130456161      12.657781476023933       36.06602007436355
    52   1      6.3620677182525389      14.189434568056683      1.6488916843788151
    53   1      5.1327481472609904      15.106915162382126      36.012366989619437
    54   1      6.3158233528742356      16.536263064362302      1.6089959967928411
    55   1      5.1777734772268111      17.979451189971741      35.805384969055496
    56   1      6.3075366979267606      19.250062285256742       1.653434524282533
    57   1      5.1454456388427303      20.436658424588959      35.956530042688328
    58   1      6.2931562191988855       21.65060468742583      1.8012972938485279
    59   1      5.1620991755583789      22.918407085723953      36.077194241139949
    60   1      6.4214023861944609      24.363139703183325      1.7746819062613881
    61   1      7.7442259832318019     0.09011910875725998      35.907018226242663
    62   1      8.8348957254187681      1.2443991209547007      1.7068273835373571
    63   1      7.7963043510948538      2.6143023187175038      35.945171171917714
    64   1      8.8955338898258223      3.8764167677317669      1.7956381620349944
    65   1      7.7084374701397484      5.2524410045168706        36.0718918440054
    66   1      9.0074949423012267       6.414953524970052      1.7348226187913596
    67   1      7.7399184167987931      7.7119594165246923     0.10563274287040944
    68   1       8.888875619954673      8.9658716751007219       1.999954156987646
    69   1      7.7166669832304047      10.200033014641047       0.213655372427968
    70   1      9.0668645203745566      11.462917520351658      1.8982089866172149
    71   1      7.7004493568874253      12.746127166673364      35.936766051263191
    72   1      9.0027812886005982      14.094626317466449       1.857339648799599
    73   1      7.6802892726665952      15.163872567370833    0.083282029229883273
    74   1      8.9309344021461321      16.643897311319229      1.6150398709213507
    75   1      7.7073502490697523      17.826606549586405      35.942004157068716
    76   1      8.9963917297539684      19.143091848869997       1.584894790063186
    77   1       7.476666880044391      20.359677661619934      35.800109081699809
    78   1      8.7308674740273382      21.533751802805501       1.788679544388343
    79   1      7.6059175946111575       22.88280972235744    0.083281623412881242
    80   1      8.8156881094861586      24.318365267024411      1.7699219583738779
    81   1      10.149964107193135     0.07874967150284079      35.946119553196375
    82   1      11.343074317021504      1.4975709302564471      1.9669383295791145
    83   1      10.126569651281436       2.461421291370546      36.007914120671927
    84   1      11.622634928469671      3.7562682452231559      1.6519024345772781
    85   1      10.104518432914348      4.9782080691221848    0.049300914314983242
    86   1      11.353480702319068        6.45235053693371      1.6494930343761098
    87   1      10.136459028174988      7.7244977368470922      36.027076560789816
    88   1       11.40696469282061        8.91839727759033       1.698530339950183
    89   1      10.379164282302645      10.236310093850275     0.11089668782927894
    90   1      11.620798477806906      11.485959187712291       1.858199023194449
    91   1      10.176758667038238      12.783005661373055    0.050432749006540774
    92   1       11.64067324367074      14.120729716907849      1.7674013818016998
    93   1      10.345397030805421      15.347718572883522      35.918264695814145
    94   1      11.625859688632083      16.731076729883242      1.8246424520488391
    95   1      10.284470445590738      17.790027049296146    0.086941363691210097
    96   1      11.630745167217155      19.389940525416417      1.6837946403595991
    97   1      10.155609477957855      20.342137557814048       35.92875315036283
    98   1      11.407604224498577      21.728805468842051      1.5990935259809356
    99   1      10.059512638093029      22.746076217517992      35.974561652017293
   100   1      11.260316807611195      24.165826944013201      1.5094313485800641
   101   1      12.748674027348246    0.031328457391687582      36.061014044772854
   102   1      14.049442064985838      1.2606369317048511      1.6434248033106764
   103   1       12.87844958923621      2.7622635762792962      36.005866900672089
   104   1      14.201422070059531      3.8597339515292703      1.8757457929686787
   105   1      12.688256360170794      5.1623134894891018      36.058021231449075
   106   1      13.971044467335394      6.2385496387475667      1.5701551485756893
   107   1      12.715091236655631      7.6085876043565852      35.829699516778298
   108   1      14.308647206016444      8.8578424361155808      1.7964838497783484
   109   1      12.728855406861335        10.1676761219539    0.015162366083916363
   110   1      14.226722548935426      11.536868291274274      1.6510361560155264
   111   1       12.62590441402795      12.621995026766257      36.093130017330246
   112   1      14.040359978937966      13.991814793138133      1.7186486363685951
   113   1      12.792168636949874       15.43649675221679     0.02393380744819068
   114   1      14.226727608317068      16.639718824718326      2.0009307777590286
   115   1      12.901889969699978      17.828645897125686      36.016631835710257
   116   1      14.184804547397137      19.437580589063963      1.4688160703417208
   117   1      12.702131032833625       20.68939200491247      35.828791477091826
   118   1      13.886297839848838      21.766295901694633      1.6595428752718377
   119   1      12.560039902369594      22.948529216092965      35.768373231379329
   120   1      14.316994321350975      24.352213156480939      1.8702888735442231
   121   1      15.211813380119981     0.13432673281509966      35.989168639174238
   122   1      16.459552457788252      1.2462480941783862      1.9048245891224851
   123   1      15.578473372796838      2.3737366476008521      36.041815997766157
   124   1      16.582722379957758      3.7411843908747149      1.9369243705701691
   125   1      15.446985499531758      4.9613644738965679      36.093110666925263
   126   1      16.672440783839857      6.5773652782566714      1.7116009716918821
   127   1      15.397897002420049      7.8815456955832337     0.04058445626445753
   128   1       16.82757257296803      9.0108277843507594      1.7639010060911362
   129   1      15.499452396252471      10.177980349793899      36.026658876912443
   130   1      16.708597584081218      11.411940855957154      1.6181665086879993
   131   1      15.521965982629512      12.768894325312802      36.085546132363604
   132   1      16.667768891710029       14.04292643328632      1.6250916209476045
   133   1      15.265136027585338      15.408259167745761    0.017655297526596309
   134   1      16.840418529346017      16.563549231356877      1.7981270664166917
   135   1      15.285906838583642      17.891120673270844      36.012240854674324
   136   1       16.52404721943369      18.944984786149728      1.8410723171390595
   137   1       15.25889477465153      20.464208574159837      35.790475355991745
   138   1      16.389227906644223      21.312182418555725      1.9190950119953631
   139   1      15.367900574426011      23.143192891863045      36.050456378982169
   140   1      16.792545058673515      24.204438918719294       1.840736011794649
   141   1      17.605213224584475     0.19718832790796634      36.098219794571371
   142   1      19.012020678587596      1.2078354510093827      1.8285918322951153
   143   1      17.941293867631135      2.5776335047425016     0.12822066165207402
   144   1      19.054936649504395       3.635243785850061      2.0754683181142588
   145   1      17.894053618684644      5.0608422450052322     0.21647739544755487
   146   1      19.269783686498876      6.4482820756550261      2.0181293461744536
   147   1      17.949578675306739      7.6114353310330021      36.083164569784245
   148   1      19.349541685259098      8.8967199486904818      1.8206215674673458
   149   1      18.120446859615409      10.198751632853662      36.033432354092348
   150   1      19.205794442169104      11.355543887244337      1.7945230593071739
   151   1      17.999339400124391      12.656747321726273    0.031385907159199193
   152   1      19.048557399582581      14.055664681806778      1.8766719952140087
   153   1      17.913984595154439      15.250573826089974      35.895053119748894
   154   1      19.313904520316179      16.578638778777862      1.8414948305428656
   155   1      17.801666886449691      17.941246703321532      36.070105208500543
   156   1      19.096057358804497       19.18133128485519      1.8222083056783958
   157   1      17.817855764040718      20.493081206841492     0.10203685476038807
   158   1      19.137505380546198       21.65985002440496      1.8102999227741281
   159   1      17.954938481950002      22.983078502195678      36.038743718867018
   160   1      19.192656795445423      24.423077340548101      1.7500519490843107
   161   1      20.443813573151619      25.518723679605735    0.025579779345980557
   162   1      21.588092500191923      1.3477183689420169      1.7980824657200523
   163   1      20.409148993385909      2.3905740885628028       36.06904866130909
   164   1      21.701729312850929      3.7613257107681544      1.7188156189407906
   165   1      20.365043630180413      5.1739472164332794     0.12427277842364212
   166   1      21.782028214228408      6.2719220683529766      1.9211793121555618
   167   1      20.510900992109455      7.4646332070799817     0.25296451460716307
   168   1      21.797074201947314      9.0430164911697037      1.9556789297572321
   169   1       20.57185340186836      10.138918322929888     0.11911992902615776
   170   1      21.776578849383803      11.424862324108714      1.8389544053819467
   171   1      20.454921710045969      12.980939635030978      36.000795065509635
   172   1      21.713886665659604      14.125228790633315       1.821688892974259
   173   1      20.208967245762686      15.452124948068732      35.950910104274627
   174   1      21.642418250842962      16.710157431830815      1.6470694123125451
   175   1      20.254633075774333      17.836645015552563      35.946418541838867
   176   1      21.516055374166189      19.198316337609988      1.8904959429828052
   177   1      20.483375958669448      20.335362105835323      35.947706257675868
   178   1      21.713946456184804      21.496345522171186      1.7591839268368061
   179   1      20.321185269612215      23.020765774449771     0.17284806155224725
   180   1      21.636504533752195      24.219671731122581      1.7027473612105515
   181   1      22.850051967090973      25.526017658845955      35.966997047878912
   182   1       24.25882699718856      1.2158785685530962       1.847504516038726
   183   1      23.045376281419493      2.5198887708662854      36.066753367954504
   184   1      24.373183775548448      3.8887013152140621      1.8105476188640619
   185   1      23.041180674676436      5.1801470003877874      36.063440915545549
   186   1      24.528961212909209      6.4071647015789823      1.9549844195855022
   187   1      22.984664122122528      7.4679692632778076      35.879927469283217
   188   1       24.08667265153942      8.6938280052405013      2.0607184766049378
   189   1      22.923156361100087      9.9802099159358999     0.16878422320222644
   190   1      24.284445805360704      11.533707122685552      1.8095085289427744
   191   1      23.066928132526641      12.758220042137854      35.902007945131878
   192   1      24.178078268221224      13.988375221209591      1.7733105552158901
   193   1      22.913492398583358      15.543345877294136      36.052008288210963
   194   1       24.26348129661217      16.539383503801758       1.837654981463209
   195   1        22.7728428939458      18.086223871751422    0.069653616955724668
   196   1       24.08985557798357      19.169196247159363      1.8256253631704911
   197   1      22.853865687550673      20.500980280442043  0.00039707693808850261
   198   1      24.277874083614876      21.809699719842516      1.8635198556931978
   199   1      22.830900446086368      22.953513199328398      35.963744277089923
   200   1      24.128619578302317      24.153299272580075      1.5588629303717203
   201   1      25.473629638026196      25.488251793518717      3.5037635106290153
   202   1      1.4002781445568324      1.1782544135323341      5.3476253758280299
   203   1     0.12337517471936679      2.5650805799375509      3.7044590212577764
   204   1      1.4129697636333478        3.79781715218967      5.6682294254534389
   205   1     0.13806666174056173      4.9049339825986484      3.5196904051804938
   206   1      1.3497823209242357      6.3355480053073059      5.6688416085004292
   207   1     0.10424191304995524      7.7232658205016067      3.9640604486405495
   208   1      1.2633568856315847      8.9022040462882082      5.6575469279052362
   209   1     0.26426707179510761      10.239192681018801      3.7440382464900894
   210   1      1.3272157607705366      11.565870554692454      5.7070345932651039
   211   1     0.14471168671147272      12.709620072186315      3.7890380154790111
   212   1      1.4781544849334229      13.925885881111661      5.4909669811030248
   213   1     0.27602851586385924      15.419528911073188      3.9316221382006091
   214   1       1.363941662913021       16.56804525093316      5.5910324905591242
   215   1      25.452364421353952      17.910676714244239      3.5286783269591084
   216   1      1.4149690644742912      19.023484168863032      5.1667467790258765
   217   1     0.22276919620918492      20.475837962636788      3.5250676005270174
   218   1      1.4105809540777274      21.740025959435044       5.385792346890141
   219   1      25.481700304591087      23.118661319202239      3.5898855213386582
   220   1      1.6069481761591744      24.419472577678778      5.4339673423241397
   221   1      2.6652472669672083      25.305179985160979      3.6623852910605108
   222   1      3.8589091540965739      1.3327680244344764      5.4527166752870597
   223   1        2.55438806688236      2.4492466883656183      3.5235331191317649
   224   1      3.8731943499387551      3.6995686376201293       5.403144121313745
   225   1      2.7138040123474769      5.0763656799075196      3.8045522708818975
   226   1      4.0438162541003093      6.3403856151635853      5.5822470282402143
   227   1      2.6683106018439875      7.5423053061147849       3.623996834353131
   228   1      3.8899063550044835      8.7110442025674431      5.5369383342360745
   229   1       2.729519991897877      10.053626629043759       3.812999230831815
   230   1      4.0501164829992211      11.596934103527058      5.5033155219736996
   231   1      2.7529769737768288      12.729303741545513      3.5898147096679387
   232   1      3.9043759538340761      14.203053633805515      5.4107849830556027
   233   1      2.5933381854788418      15.158980204068882      3.6031729843865952
   234   1      4.0318612656073469      16.828727041371007        5.39393114370902
   235   1       2.609624246265053      17.681723204696716      3.5088821459689838
   236   1      3.9980865791443727      19.329961424627019      5.3815533928626484
   237   1      2.6210279599342097      20.314972174011029      3.3806345851846231
   238   1      3.7850426855178192       21.80855877760332      5.4202203844688581
   239   1      2.5247814834727427      22.860389310986577      3.5866714174515879
   240   1      4.0281264811206947      24.567490059462873      5.5419958419808744
   241   1      5.2013263611953997      25.493385379881637       3.371483498269948
   242   1      6.2533686617342736      1.3817457220962854       5.211387062254313
   243   1      5.1194188636457021      2.5470765193833187      3.6789879140954684
   244   1      6.2874346490814057      4.0892292042882801      5.4767720391008474
   245   1      5.3119392943228805      5.1863530599863905      3.6994570540561313
   246   1      6.5881684279037804        6.57900082950077      5.3717362203226182
   247   1      5.1105558030090448      7.6800893108325132      3.7021080740460341
   248   1      6.4435727540418588       8.940783841592113      5.6368639310564639
   249   1      5.2144997814750127      10.131190223305696       3.643882066341956
   250   1       6.478311266451759      11.422402454089049      5.3851169294600965
   251   1      5.1323845486076447      12.826474692179033      3.4315793946063882
   252   1      6.5314356170448198      13.872085121962437      5.4316936723043385
   253   1      5.2889903834066896      15.320872127014338      3.6562546492833676
   254   1      6.4721830590239477      16.701144017061385      5.4651098253580459
   255   1      5.1332747388522124      18.034618722463161      3.4631169649460274
   256   1      6.5216957937091342      19.243057103490621      5.3808680127505895
   257   1      5.3298165930187329      20.442137994425639      3.6744692605009486
   258   1      6.5715638327346886      21.718315051891505      5.4567430153310319
   259   1      5.0773198772886241      23.047943279717931      3.5927680054771503
   260   1      6.4794094626140923      24.486988931656622      5.3071839563019232
   261   1      7.7185373670463608     0.12014117040458717       3.589815259665897
   262   1       8.904546106206741        1.40083950732493      5.5104864431988512
   263   1       7.761252522204332      2.6868605061361972      3.5233294903210552
   264   1       8.753277101794362      4.1021473780429245      5.2903704713543469
   265   1       7.869929820928208      5.4016134915468141      3.4376825439550789
   266   1      8.8900991371977032      6.6532918329812807      5.4230108501633865
   267   1      7.7208949991935238      7.9617115868676231      3.5502255560761453
   268   1       9.106984603182843      9.0621357003749274      5.3789236043854931
   269   1      7.5733826038698764      10.365913736301351      3.5141992949769487
   270   1      8.8701976341785276      11.443849531717744      5.4403041547543873
   271   1      7.6332205796441057      12.862493507857698      3.4474908110689739
   272   1      8.9115530983659088      14.024072269222376      5.4157776291765982
   273   1      7.7761402475434176      15.410166379147693      3.5708815336083153
   274   1      8.9849244365807976      16.825621959970583      5.4074949249192246
   275   1      7.6534635808095226      17.677357822723252      3.4143749698241002
   276   1      8.8745991471747399      19.280952664982188       5.438425016575712
   277   1       7.550304672871671      20.290942801577948      3.5431915060527888
   278   1      8.9772902970169159      21.818737772549625      5.4791378919664542
   279   1      7.5743213345535167      23.001410581703137      3.6081918712856118
   280   1      8.8968706043047785      24.491684944601921      5.5661939235217037
   281   1      10.006632042486302     0.28885635947599014       3.537653293550842
   282   1      11.629644436587244      1.5676877648740666      5.3551755560758254
   283   1      10.308698592382926      2.9275754396032441      3.7596501670256068
   284   1      10.220084045111037      5.2084982559300226      3.6154280058472867
   285   1      11.474859491812307      6.3694676792475535      5.3476444840216271
   286   1      10.288353065709892      7.4736039891607833      3.7542389422935378
   287   1      11.551660442200793      8.8525134883711996      5.2632915607661817
   288   1      10.162737123671871      10.319421722097347      3.6442788209567576
   289   1      11.582613601311667      11.321186575461333      5.3302729562776401
   290   1      10.252197803331439      12.726495178972113      3.5930143729895025
   291   1      11.529325022475104       13.94433681794013      5.4294098235506274
   292   1      10.552442228774767      15.410917887370545      3.8862614843488852
   293   1      11.562450647833098      16.824752058702693      5.5443303549194134
   294   1      10.307542318579941      17.966156226153753      3.5538259390565026
   295   1       11.64373960392013      19.208459798116266      5.3823813777365457
   296   1      9.8925738022346668      20.398784802936316       3.657993950193966
   297   1      11.591946909028009      21.696622011572064      5.5614557867231049
   298   1      10.120874443896037       22.89154680485214      3.5189915378143963
   299   1      11.380676906540755      24.269959625461031      5.0962865801000996
   300   1      12.563394649626616     0.15705370560076132      3.6274782138215733
   301   1      13.948956767011522       1.201880469329901      5.3477156112315702
   302   1       13.07682021572945      2.5947162822031844      3.6359002373035407
   303   1      14.165985624284149      3.8425865644153081      5.3232897219459021
   304   1      12.784040850840423      5.0811107209205337       3.353178662614972
   305   1      14.067122258915351      6.3634478445647984       5.093850473187123
   306   1      12.925783066344682      7.6763439861755494      3.3412516755122508
   307   1      14.028947430382486      8.9656055469293214      5.4063853403151985
   308   1      12.844714357651256      10.269679802706618      3.5023902243263243
   309   1      14.171577244365988      11.433783772491241      5.4889408901407908
   310   1      12.756722676425934      12.651793271902118      3.4691350394210545
   311   1      14.093362580127787      13.904079066190995      5.4006598466506475
   312   1       12.97645404082404       15.27644161856942      3.6521575105458379
   313   1      14.024962156633825      16.468086161632936      5.4937978576812192
   314   1      12.783728800264468      18.013965215145287      3.5712661327929824
   315   1      14.052355743619232      19.095034725503357      5.5085883706596297
   316   1      12.470188918289736      20.570371481339492       3.607147217906709
   317   1      14.049709892947794      21.558269655378407      5.4570231381369521
   318   1      12.873094468654138      23.094922673758763      3.2984935080120081
   319   1       13.94303522207772       23.99790765971494      5.2116173609015384
   320   1      15.197559732737359      25.449768922666138      3.7001504353678234
   321   1      16.728960110900097      1.0785273590145656        5.51598302060669
   322   1      15.455478394773825      2.5245338173974465      3.8080019516802461
   323   1      16.875927987121624      3.9424982831063735       5.510353001707017
   324   1      15.374459109466025      5.0459643117654478       3.420094499996718
   325   1      16.645765072061177      6.2764672598710733      5.2943554971746432
   326   1      15.467408966600493      7.8500822863361117      3.5787879481843898
   327   1      16.363328631534095      8.9137175156367974      5.2904748291247481
   328   1      15.371889649481309      10.312762852616956      3.5034362637319294
   329   1       16.55671912947841      11.342640352706661      5.5156984806127127
   330   1      15.282816306616965      12.717143380486636      3.5070635983934051
   331   1       16.50226525320717      13.714689452648035      5.5758586097353424
   332   1      15.487470686376721      15.316763626187877      3.6042724400722488
   333   1      16.511224482041264      16.490792947088547      5.6502941063483973
   334   1      15.442607491713801      17.749698234932481      3.6904539362425344
   335   1      16.554960158165283      19.046435688453943      5.6657463267448094
   336   1      15.262387675620849      20.261647278803643      3.6646573251840113
   337   1      16.227445079363843      21.882496129811305      5.5867721283786613
   338   1      15.411030442849585       22.94950662887506      3.3968221239825982
   339   1      16.533105296507422      24.075043005099865      5.4749208182927109
   340   1      17.668687601377936       25.51628409264114      3.5477173478381121
   341   1      19.252778135361943       1.084779488353965      5.6711009909184389
   342   1      17.866619914815214      2.3557037107531973      3.7246254274683066
   343   1      19.169580883252507       3.695444931749825      5.2767463967185577
   344   1      17.832541451853334      5.2199183108205913      3.5056519366410841
   345   1      19.211205867638384      6.3023432553481111      5.2345794510359624
   346   1      18.059941312868446      7.8283065203450848      3.6330878847667565
   347   1      19.306436192792074       8.859296353486604      5.5371886451925834
   348   1      18.036417474471758      10.119088373004349      3.4633376065103323
   349   1       19.22126351172091      11.333389069153711       5.423893822007769
   350   1      17.897026831680758      12.604418970708839      3.6955659175355713
   351   1      19.057122667228374      14.034588610610918      5.5738701746681993
   352   1      17.852761678488307      15.409644417213714      3.7289090338999391
   353   1      19.059848740532829      16.499927496337797      5.3628187019763027
   354   1      17.923083243750575      17.685455414415163      3.8533069929701806
   355   1      19.033145509625637       19.16031661991477      5.2987620133217259
   356   1      17.889151041786651      20.333132816899976      3.6741564241109783
   357   1      18.846183375237374      21.726829593890091      5.5787923886405268
   358   1       17.80295339404335      22.838816975997133      3.6426593139246539
   359   1      19.008341607150381      24.217080885683128      5.1421649620973815