dump/Si_1000_20/steps_11 (written by ASE) 

3980 	 atoms 
1  atom types
0.0      38.395898218429522  xlo xhi
0.0      38.395898217999999  ylo yhi
0.0      54.299999999999997  zlo zhi


Atoms 

     1   1     0.14359348055385243    0.050999306914021193    0.034878060263963541
     2   1      2.0550974758842342    0.029870427049940394      1.6682136474950562
     3   1      1.8476232335240659      1.9022952484176934      2.9174408130495757
     4   1      0.1019124292715804        1.90472043860813      4.1322171274492883
     5   1     0.22323901691556061      3.8008684525395964     0.14377377593411922
     6   1      1.9310144439224941      4.0140863435094767      1.7628858084630572
     7   1    0.019592482184947347      5.7046287736364825      4.1894062869785582
     8   1       36.73865931122581      5.9454328963306171      2.5539130892242388
     9   1     0.28147083172690235       7.685271324603705    0.089474154457218402
    10   1      2.1222351687197403      6.0428276121278888      3.0431608335341234
    11   1       2.165889253741331      9.6117538884741389      2.6598451344707672
    12   1     0.24839750960619619      9.8164536648505951      4.0303697250466355
    13   1      38.336773544017873      11.411150171885771      54.145140222379787
    14   1      3.7454132630316015       11.46451858926158      54.100746691972553
    15   1      1.9065250247838648      11.646845406791996       1.299943165149499
    16   1      38.324376097809299      13.487180783223351      4.3325620827840448
    17   1    0.026061210861737644      17.428968099504811      52.989733327850288
    18   1       2.200216720953843      15.377112631821188      1.2368443160742326
    19   1       1.687117610383555      17.277856591913768      2.7337410342795212
    20   1      36.872855658885712      17.034091077704854      4.8480884710778023
    21   1   0.0030142981720538697      19.373579708543584      54.143219049196212
    22   1      2.1160671864374216      19.109463631788323      1.2339499813997454
    23   1      1.6611740423669554      20.782409327808306      2.7845948712321165
    24   1      38.105540530866435      20.990687699176529       4.159671260513905
    25   1      38.306682408575973      22.864835895177976      54.170156674363085
    26   1       1.704750301288636      22.690884661696284      1.3890354019782289
    27   1      1.7261551800638182      24.613298139350299      2.7625251017581851
    28   1      38.188883486403085      24.890492361068127      4.1212624036964689
    29   1    0.050076007341033762      26.860029385397787      0.1035875609037477
    30   1      2.0530173220741759      26.606966529161316      1.3012650339443754
    31   1      2.0414309607610939      28.549631241768711      2.5792479316037538
    32   1      38.330799820463071      28.629249190169563      4.1186448848585346
    33   1     0.22690562322352181      30.619962115907434      54.206564064437259
    34   1      2.0049496937753966      30.591526615365755      1.2947509447129291
    35   1      2.0698840718695903      32.513473373650839      2.5537259844716216
    36   1    0.019593408757746941       32.36744229791222      3.9859480447392479
    37   1     0.26030856106742678       34.65488125888605    0.050300461504139117
    38   1      1.9841070333169613      34.698236234105259      1.7130978828684664
    39   1      1.8874482632456808      36.618362053305134       3.049461154692314
    40   1    0.032696352978604688      36.532704859869895      4.6580401305174384
    41   1      3.7991661966913375   0.0066974699828021671     0.23920103307518753
    42   1       5.829344609071291      38.316940118356939      1.4387021069630099
    43   1      5.6308252909431653      1.9027397305589238      2.5654188739032282
    44   1      3.7467376467092177      1.9689734387257152      4.1362040332528407
    45   1      3.7553281187427014      3.8208918788227941     0.24566620114763976
    46   1      5.7760792593693333      3.9907193725930319      1.4794088734389697
    47   1      5.7926274216474534      6.0240725204061718      2.6922235049592831
    48   1      4.1845547749447372      5.7284990627834933      4.2954898090231008
    49   1      1.9949362838419027      7.5955972855330387      1.4117058640844549
    50   1      3.7057213691989155      7.5303239979775061      54.187544832911932
    51   1      5.7148438041731167      7.8413671482833198      1.1094005365275736
    52   1      3.8845467291432185      9.7406866273359132      4.2083897211691461
    53   1      5.7113624530505795      11.261898471578426      1.1394086892210689
    54   1      5.9259048504647724      9.6426624866053956       2.665746131244171
    55   1      5.8412649380593686      13.206804703751343      2.3107780416592392
    56   1      2.0423965405592717      13.636855250528622      2.8518032410603609
    57   1      4.0748860277852792      15.422973541148062      54.138198117180941
    58   1      5.9829827662964901      15.221214798879515      1.0979942512312189
    59   1      5.7590848927532541      17.124809090386485      2.5460236024708909
    60   1      3.6613002167736934      17.284108368267578       3.959848299411592
    61   1      4.0195840324988676      19.010498641610184     0.13494073752292468
    62   1      5.9651394157430442      19.189659777757349      1.3756515713882642
    63   1      5.4526493485513523      21.097461768423781      2.6708428715729631
    64   1      3.6998347093257862      20.871981443587476        3.95534534601462
    65   1      3.8574073168614746       22.95224837475488     0.29605316816824795
    66   1      5.8540877125127979      22.963393574813651      1.4732566027825642
    67   1      5.6197964286973434      25.160283660748881      2.6189621480794019
    68   1      3.6354157481017388       24.74839710852758      4.0824630758069684
    69   1      3.8924071457965748      26.773119668355719      54.242407830651331
    70   1      5.8046292434482059      26.835675872573447      1.1056998816537336
    71   1      5.8798050828329727       28.75269739992364      2.6971046928403659
    72   1      3.8916172651892071      28.385156311568256        4.17396459978736
    73   1      3.8279997095233873      30.641164736304702      54.189683347698811
    74   1      5.6768391864019359      30.885881807248751      1.4023364486551038
    75   1      6.0295240126873137       32.86119102356782      2.6404885397736759
    76   1      3.8901310925894119      32.534168675226432      4.0717774582611828
    77   1      3.8150992933129384      34.448365566991761     0.02197617732064145
    78   1      5.7427441486290007      34.536053801618394      1.0730853196391168
    79   1      5.8403779685004302      36.325104412332479      2.5621622671707631
    80   1      4.0751505416030689      36.330871582046605      4.2877469783146331
    81   1       7.609242580081701      38.235781323308181      54.174178017747074
    82   1      9.4950835706381138      38.191755647154771      1.1898232860871647
    83   1      9.5932706286549383      1.5777587266838249      2.7057791743603072
    84   1      7.5071052782077867      1.8287941862538066      3.9277351187747618
    85   1       7.749136078631337      3.6688100300171684     0.16300563772020929
    86   1      9.6266288635693282      3.6619291460734544      1.5273009398181654
    87   1      9.4526171175154161      5.8074980278737538      2.9316358705229146
    88   1      7.5194656402136326      5.8288456765350816      4.0808319509108388
    89   1      7.7473217060831852      7.5131033890145265    0.089082892475369338
    90   1      9.5521851130940281      7.8379674747266463      1.5186606757826422
    91   1      9.7724656207670186       9.869961958606364      2.8170930154137199
    92   1      7.8034409736379686        9.40452019602672      4.0997122997034792
    93   1      7.6490647287663762      11.383750232544653      54.226613795733392
    94   1      9.6618688860910531      11.498122756683511     0.96079875059200537
    95   1      9.7196277904130959      13.253646900447775      2.3757256355123086
    96   1      7.6659987199726123      13.365054601201937      3.7947425790454061
    97   1      7.6987191350735298      15.254680076863711      54.109111772296451
    98   1       9.796540725132278      15.294236288591406      1.1748886731512349
    99   1       9.633335154331613       17.36012408939526      2.4219004448954959
   100   1      7.7935521128274523      17.077622627877822      3.8049249084553729
   101   1      7.7138841648083245      19.418992234016518      54.077696636754524
   102   1      9.6559399031977673      19.229661314847281      1.0529516306554554
   103   1      9.6423301392224019      21.405145392684261      2.6886883990031252
   104   1      7.5842549652324953      21.115943233343593      3.9140150652330572
   105   1      7.6436127551990278      22.956146855368569      54.250549602503362
   106   1      9.4813653331858241      23.404742907154109      1.4857720823759115
   107   1      9.6158586366456547      25.492465172732743      2.9723646876092298
   108   1      7.4123987532616651       25.11961517234403      4.0394872050980792
   109   1      7.7457827297859589      26.853041406146613      54.131178342160048
   110   1      9.6622852099447698      27.054908416269292      1.1970832197300743
   111   1      9.3842711472638456      28.773956248825534      2.5900887421185317
   112   1       7.885362086427893      28.566888341535051      4.2545590954057477
   113   1      7.7350975553465435      30.770495577731324     0.02409157560856557
   114   1      9.8044410438774534      30.607583243053437     0.99646493885252063
   115   1      9.8120747591794917      32.479099164575864      2.4554956720587837
   116   1      7.9804562799638905      32.449464118545805      3.8429211628017672
   117   1      7.8845524230146173      34.478130194005885      54.027592966700162
   118   1      9.7759399651269518      34.245011194916955      1.1409521255016783
   119   1      9.7851436535039387      36.169901239133935      2.4946155581330145
   120   1      7.8699819875564607      36.438695388087403      3.9291724229633131
   121   1      11.525581559729977    0.014505073846112335      54.157130546752953
   122   1      13.470758219665324    0.034949523820861174      1.1768606288510903
   123   1      13.519154386291284      1.8849496726127115      2.7704844883796014
   124   1      11.395968358764806      2.0845909693883695      4.0306428253171944
   125   1      11.488380695526214       4.022037913243719     0.35489679338329538
   126   1      13.508429892109138      3.6979869852314393      1.2628262297898682
   127   1      13.683131727157672      5.9717241575155615      2.5802464875366242
   128   1      11.655447662163908      5.7205033867558566      3.9501957143165316
   129   1      11.502877717934675      7.6439792471751709      54.251457400017244
   130   1      13.401838075309939      7.7944508970888648       1.367255840655901
   131   1      13.739082181593394      9.8242981568992604      2.4455856421633468
   132   1      11.914963461809647      9.8886153233834904      3.7839694080215152
   133   1      11.685578207097359      11.348499815391072       54.18086375079686
   134   1      13.604962091715461      11.640791157029808      1.0315738088817967
   135   1      13.634068473265474      13.764290299356444      2.4470488772229269
   136   1      11.802023519490476      13.372988371316801      3.4859596839236731
   137   1      11.466537927704207      15.522041748029874      54.015671181872833
   138   1      13.390967276702531      15.771428869600401      1.2141045214783148
   139   1      13.610083544533014      17.554140195400276      2.7129313201922742
   140   1      11.574160205489649       17.34422176789575      3.8155127442977705
   141   1      11.667733616320616      19.161989915190407      54.238682005512018
   142   1      13.513466343426881      19.450732522050043      1.3481982259554659
   143   1      13.674314528987773      21.281710453051335       2.736099015968104
   144   1      11.633868802924379      21.406371261857586      4.1866355222591558
   145   1      11.307951541901422      23.014149436755243    0.039729628444138153
   146   1      13.323139062604437      23.295026567504316      1.3006951877441928
   147   1      15.449556859475726      24.909259689807723      3.5568053151264967
   148   1      13.242371656598461      25.262863819388645      2.5658951822372056
   149   1      11.440921768132711      27.013813680081178      54.034871318620631
   150   1      13.496251719651344      27.050438588142754      1.0877006540196261
   151   1       13.18513489158784      28.948312434543201      2.5223229020379336
   152   1      11.345176794471328      28.884400530243809      3.9858424279361411
   153   1      11.622138439929021      30.607277624726741      53.922277473172784
   154   1      13.403078706585335      30.919389311561606      1.3066001806306204
   155   1      13.622015507128237      32.671841442255676      2.6138299346814864
   156   1      11.585179966056991      32.641920368482879      3.8901354871944833
   157   1      11.752201341404488      34.461429975683295      54.106598729621801
   158   1      13.574461576235475      34.446572513876774      1.2332906655184299
   159   1      13.538281186243919      36.495229876310198      2.4207146730801443
   160   1      11.667224652429313      36.232072515870776      3.9196310191463799
   161   1      15.250867485700493    0.094243254500530727      54.206582386088868
   162   1       17.25201420885805    0.055661998369583104      1.2496812980857395
   163   1      17.161476274879313      1.8137664945756204      2.6732224337892481
   164   1      15.280079313350225      1.8437612010939741        4.08343360672343
   165   1      15.284510358040041      3.8854928545664267      54.077992320369844
   166   1      17.322167382897231      3.6185016497314986        1.30915294074864
   167   1      17.391681796695309      5.7498505096433652      2.4727591155834623
   168   1      15.506411495362864      5.9597131904202953      3.9609510859442154
   169   1      15.382567349074769      7.7773390226581425      54.256431384848383
   170   1      17.360582349099261      7.7624870267659842      1.1919972958394867
   171   1      17.521957281116368       9.572598823310889      2.5060764331558048
   172   1      15.432293065745833       9.560685712967901      3.9867621592396616
   173   1      15.523220784501458      11.690453658329268      54.155844523027042
   174   1        17.4489402434256      11.897217837603177       1.586275201920285
   175   1       17.24459787922504      14.104536328743706      2.7176255807754157
   176   1      15.448937773196576       13.63313647140801      3.9776423604372981
   177   1      15.449219489255578      15.547629776141502      54.183785681175983
   178   1      17.386454967794371       15.87538343663884      1.2207522054648408
   179   1         17.391550085892      17.547183738730304      2.8988641961262243
   180   1      15.338702685731159      17.557375370380708      4.2865547314594457
   181   1      15.535454945828164      19.331303404630816     0.11395549975175086
   182   1       17.36430616720483       19.41118828344764      1.5817901684141269
   183   1      17.785505053998929      21.583721169818666      2.5486030560285808
   184   1      15.728918116060992      21.270260653909911      3.9981282283663728
   185   1      15.160936807357185      23.411929047670522       54.22712550849981
   186   1      17.159518045264932      23.434084434636365      1.5691188132568967
   187   1      18.059922468429626       25.19424248031288      2.8426219635481034
   188   1      15.461419793423296      23.174471773485887      5.5282817746516475
   189   1      15.356952592732787      27.013026728797566      54.102942901643218
   190   1      17.270010343198262      27.051321673375192      1.2761242837757447
   191   1      17.379010588739682      28.981756589428109      2.5935690642074283
   192   1      15.259895216974249      28.871634839734138      3.7349170151761859
   193   1      15.355811203895831      30.692020291884152      54.209573708782116
   194   1      17.367630721980326      30.984468021959351      1.3445262300234626
   195   1      17.229571941940463      32.925432520402971      2.6151434766384338
   196   1      15.256765195753468      32.579746434879233      4.1341252537852631
   197   1      15.406399363407637      34.795536934196662      54.032909337054264
   198   1      17.153710570083675      34.760392717298188      1.1803328580167762
   199   1      17.327471571054108      36.523079923849593      2.6633612732164895
   200   1      15.396225422663454      36.391220657177968      3.9664056316970093
   201   1      19.189266634349071      38.274482192744323      54.100340084421092
   202   1      20.864946292660708     0.19653102506816916      1.2253454236134553
   203   1      20.958946861138134       1.999902694421821      2.6274034585806594
   204   1      19.069818801216979       2.162438099034079      3.9914151229488968
   205   1      19.297483781382379      4.0530105538773027      54.267041368704902
   206   1      21.225491445573457      3.7448713298067946      1.2447057147025911
   207   1      21.202213997518157      5.9557344648211981      2.5189823214472518
   208   1      19.234360084831756      5.9802505866275499      3.7742774044818042
   209   1      19.194248548349183      7.7864821878968122   0.0035684539460135016
   210   1      21.153983344661675       7.884745739043721      1.2547368263479846
   211   1      21.107155574896268      9.6629731797895069      2.8421132250364272
   212   1      19.277764662417777      9.4968769576649699      4.2468298605487567
   213   1      19.370171017221718      11.678599027271661     0.26337224235973039
   214   1       21.25447375814052      11.707607457581904      1.7787076877141537
   215   1      21.232416919617449      13.741176114931786      2.8622073031631112
   216   1      19.184649744944139      13.558430763039397      3.8163900213026536
   217   1       19.14720251171725      15.442924662425034      54.013472906018279
   218   1      21.090906913721437      15.471501627914288      1.0449409610475664
   219   1      21.125847534948054      17.290986099751951      2.5400713014937399
   220   1      19.468120382444273       17.50554067686776      4.2133264584863008
   221   1      19.274238620897908      19.471785670878479   0.0060481058258688046
   222   1      21.152708797053887      19.498617411477532      1.4731553223651852
   223   1      20.836701785980999      21.410615612727032      2.8976289363661265
   224   1      19.329183849863192       21.82913894354861      4.7360003360164926
   225   1      19.240048674137871      23.318885282592994     0.22295032446722857
   226   1      21.135946149873963      23.137165413717341      1.3136371081431533
   227   1      20.797655233479784      24.941317321861394      2.6198443236752498
   228   1      19.202528658711071      26.834065079660139      4.8448369700593528
   229   1      19.132664707564711       26.69640549663718      54.250067644961078
   230   1      21.092802782338619      26.864972265731247      1.2147556058049744
   231   1      21.176201849211647       28.78902885393623       2.725380255314632
   232   1      19.296510581458378      29.131855646849349       4.090562430674245
   233   1      19.232416553134897      30.714344929929066      54.153982245814987
   234   1      20.948962648462157      30.680148727929982      1.4490681565971948
   235   1      21.378680660712828      32.525526949920966      2.6702448656695861
   236   1      19.386211382484888      32.767979466055777      3.9308395627807831
   237   1      19.158521156467124      34.569949268637771    0.077278665725782306
   238   1      20.984845549006181      34.561033784887407      1.2340470311411973
   239   1      21.162368652412521      36.429185477047668      2.4516394224026739
   240   1      19.246870290344201      36.450114404921962      4.2176698735095224
   241   1      23.031040832108868     0.21604520238791211     0.13789485611209762
   242   1        25.0484457211851       38.35287294004857      1.4095690059980013
   243   1      25.048679007895888      2.0247137662913968      2.6633837547035353
   244   1      22.862608448427189      1.9838891817508144      3.7705684359251115
   245   1      23.205592024464949      4.0206664617125876     0.11718273101960247
   246   1      25.163837612532927      3.8834695719533308      1.3628208304895453
   247   1      25.001406271401137      5.9180875843898892      2.8746135143046208
   248   1      23.002322774962654      5.8799674002210507      3.9505014483382546
   249   1      23.201646109852405      7.7864706482748067     0.01902625314604621
   250   1      24.987322229474646      7.8073398062802024      1.5449136153653276
   251   1      24.933712915257711      10.004583256048175       2.478516490844902
   252   1      22.946797647412041      9.7000054258850188      4.1234518401280083
   253   1      22.971654000645021       11.85199389334913      54.230367325821277
   254   1      24.878290225029403      11.928028567030431     0.99820275718170548
   255   1      25.114542073486586      13.548219330489696      2.7536501636667339
   256   1      23.201102003535247       13.40040650933984      3.9846484020895336
   257   1      23.053724678652834      15.504392649721956      54.059840642520506
   258   1       24.95182192017937      15.429189101525701      1.2762852325270733
   259   1      24.919024335390393       17.16266245646672      2.5480910713668532
   260   1      23.075453751730432      17.136364770422983      3.9367637235126605
   261   1      23.135864899779925       19.19108526608531    0.061805644549690522
   262   1      24.992845922089188      19.475230150726048      1.3034396664733345
   263   1      25.152505039827016      21.154246651613402      2.8850570947404997
   264   1      23.052579236808519      21.238769636338972      3.9381271262197961
   265   1      23.332457747747508       23.17780804478803     0.13881253776662547
   266   1      25.237498332525945      22.938330253692328      1.3924410259533839
   267   1      24.756524375346181      24.744227018298325      2.8349205168790612
   268   1      22.794486076546097      24.970737855310503      4.0958953111619731
   269   1      22.928090153284444      26.972406462799846     0.17069957159824306
   270   1      24.827832115672237      26.784129769470916      1.3909695486286522
   271   1      25.330369998650241      28.747734225887644      2.7891065939739965
   272   1      23.231618818421168      28.690390490150389        3.97175270086051
   273   1      22.947152975438719      30.969578169534937     0.18455988043320984
   274   1      24.903421843839435      30.540746347453581       1.472872422221192
   275   1       24.91495727762663      32.536219765246514      2.3557646143689688
   276   1      23.401828654923371      32.692221115154553      4.0774144072425411
   277   1      22.908550527977035      34.817707548589439    0.021920121997391108
   278   1      24.880238199393794      34.584444938652574      1.2184069752087012
   279   1      24.825833530348337      36.439712803092036      2.6337864188596436
   280   1      22.894291387289108      36.564736770165275      4.0788226163838779
   281   1      26.883258128696315      38.229698517669121     0.13665118500302945
   282   1        28.8024841345864    0.067363081724610807      1.2603206887883081
   283   1      28.601672881485698      1.8359121650767425      2.5522068178428432
   284   1      27.055538050829654      2.1172462657473035      4.0812155221222817
   285   1      26.864188705590418      3.8106536757408036      54.227542744707037
   286   1      28.841923414610996      3.9253229479179295      1.3137139782277572
   287   1      28.914488503337335      5.8220012274820769       2.808889916795736
   288   1       27.14067985155657      5.8973135887082604      4.0850802550450904
   289   1      26.827624876654824      7.8770205273843343     0.16915696200107944
   290   1      28.771234855142936       7.830261786092513      1.6038775984923148
   291   1      28.823648546767988      9.8049435899154549      2.6974168313176166
   292   1      27.027864078980052      9.8169437342573698      4.0767045067236376
   293   1       27.04325353070703      11.688086939575763      54.286431446862622
   294   1      28.859343014751254      11.892550714021837      1.4342258763592568
   295   1      28.898424531092935      13.703041393795747      2.8486780512167127
   296   1      27.003064608686202      13.389131356869953      4.1938542843810618
   297   1      27.149913228466495      15.583869287307184     0.39721198867572399
   298   1      29.283756029239694       15.57783188566245      1.5778975401243562
   299   1      28.995522021170508      17.604691972192601      2.7600126831318477
   300   1      26.751257580148227      17.333317421419263      4.2385115910646949
   301   1      26.875157672915712      19.146713646503841      54.189162154892195
   302   1      28.741865206480622      19.386719211143923      1.4033335366391737
   303   1      29.017218412508019      21.186945410207166        2.89055940622768
   304   1      27.079093428849834      21.288839893173151      4.3907095903177495
   305   1      26.958977533936736      22.915759284042007      54.225636029004846
   306   1       29.07803598479099      23.067185659811827      1.4251579809680155
   307   1      28.484418500839997       24.77352262490724      2.9029979352626452
   308   1      26.551425784118504      24.773814954718237       4.250931989480657
   309   1        26.7563793964265      26.930537076137679      54.208302478569301
   310   1      28.463972837570068      26.820417245044077      1.3459467608687636
   311   1      28.906026465757311      28.841359234121729      2.5037339488912593
   312   1      27.190805099514318      28.871040713021749      4.0229905649458804
   313   1      26.715027482386091      30.709741246369145      54.155303584588587
   314   1      28.631526647070579      30.700867338306221      1.1195577492492381
   315   1      28.902765058475488      32.560530074355228      2.3959856727593341
   316   1      26.840912755216884      32.346421718675487       3.608133179584081
   317   1      26.971640302457537      34.574629407898044     0.21216574347710102
   318   1       28.81005313543006      34.722491600945261      1.5130966443371017
   319   1      28.877580509218358      36.535401448234396      2.8865371773266157
   320   1      26.711886489679657      36.539013282639409       4.101916823881119
   321   1      30.678176609862138     0.42739430192615741      0.0648742656330909
   322   1      32.538856776681612    0.035238624783107193      1.5701776499664231
   323   1      32.922918047573354       2.009630320927609      2.7985409023779222
   324   1      30.740400032462222       1.824246196188992      3.9605017312809525
   325   1      30.786044764535319      3.9721014994329074    0.075167432326042907
   326   1      32.805286079201657      3.8647335733373427      1.4777404811172126
   327   1      32.755067985915247      5.6039381275798155      2.9235683909001322
   328   1      30.750936444662884      5.6181985818334219      4.1124584959394817
   329   1      30.699926182243257      7.6838112487468351       0.337766250326763
   330   1      32.777818991565915      7.4480538408006254      1.3754610477719464
   331   1      32.756077693566148      9.3742256253983314      2.7006044520494923
   332   1      30.660001158009948      9.9124216517604502      3.8657473391230699
   333   1      30.843521798168798      11.533338882083616     0.15036970596875107
   334   1      32.739416751260769      11.435238724686602      1.5321489770541026
   335   1      30.704202122004322      13.340506110681853      4.0910360468345397
   336   1      31.140445407169057      11.526399137880992      5.5822497331247884
   337   1      30.917819661592993      15.562171539883584     0.17012558651754253
   338   1      32.580084418412362      13.506258780361954       2.664167011863809
   339   1      32.996484644465745      17.377664456955497      3.1035808439163941
   340   1      30.884029729083899      17.358040644564245      4.0628002700544936
   341   1      30.724719142362314      19.295482460006667     0.16493253154521906
   342   1      32.590406269867444      19.342077797351756       1.553913653117311
   343   1      32.600753463853287      21.131026266772103      3.0606205026642428
   344   1      30.833792524903966        23.1601191428128      5.5545185837244171
   345   1      31.001619326100595      23.273547472547794      54.252099463453625
   346   1      32.832953031712719      23.055306727079145      1.5044720906761528
   347   1      32.702514185524983      24.970729362551491      2.9496842334024334
   348   1      30.647478213500907      25.094221376153744      4.0104929548639001
   349   1      30.709586241299661      27.136490805170094     0.12417629361311834
   350   1      32.895747555620481      26.971679671438153      1.5481759320071198
   351   1      32.423204086825457      28.947714271022335       2.591273828505483
   352   1      30.672308404929005      28.959160938010882      4.1460937135742233
   353   1      30.673978277570189      30.972388257183038   0.0073187517797123521
   354   1      32.601009685907918      30.939689802064688      1.1183555341281803
   355   1      32.629258859281194      32.752935197010345      2.6363218221193025
   356   1      30.692610852166325      32.767580505354275       4.060440761747067
   357   1       30.91905352870976      34.686919585977861    0.044143860419148945
   358   1      32.789687822752938      34.706534851378045      1.4419131490385646
   359   1      32.934920814031571      36.541247804277269      3.1153298446929942