dump/Si_1000_20/steps_71 (written by ASE) 

3980 	 atoms 
1  atom types
0.0      38.395898218429522  xlo xhi
0.0      38.395898217999999  ylo yhi
0.0      54.299999999999997  zlo zhi


Atoms 

     1   1      38.035202143645101     0.17684484722296526      54.263405305238862
     2   1      3.6247055730460982       38.35051809346627      54.212294402936777
     3   1       3.757784398796828      2.0810268457387577      3.9888221207708532
     4   1    0.037985579561085801      2.0110205428912771      4.0008087478414271
     5   1      38.225114519492259      3.8361099640342697      54.087876119824514
     6   1      1.8503777484988995       2.173252743522569      2.6687737561746991
     7   1      0.2211803191185108      5.6080947338456513      3.8999663718927065
     8   1      36.553589521655816      5.7815140042786552      2.4133868617783047
     9   1     0.01408291345870189      7.7216366393633766       54.28551263997349
    10   1      2.0915558317087961      6.0651643824499031      2.6114828491579254
    11   1      1.8155504081476697      9.7824262266797675      2.4809846065413685
    12   1      38.339327710565968      9.5249603317948033      3.8849885597571854
    13   1    0.035487359590547864      11.696943979031417      54.164303798011176
    14   1      3.7179336677849104      11.597357333293214      53.784070465206113
    15   1      1.9154140540096301      11.637952327439928      1.1019799226426381
    16   1    0.093116699376291523      13.475810163718965      3.8603133507402481
    17   1     0.30367806062173086      17.348699078952784      53.025382793893961
    18   1      2.1121000044325542      15.256176279840611      1.0768264753039507
    19   1      1.9879146530369982      17.138444532416536      2.6773402984058272
    20   1    0.066551267824054378      20.673125422697019      4.3114228602122804
    21   1      38.389052912798149      19.455297894229066    0.016375890476933837
    22   1      1.8609345069492758      19.148699076177145      1.4724656104048806
    23   1      2.1053697544030019      21.068576786522122       2.892109927046226
    24   1      36.601714389640904       21.20744327332703      2.9071121146853556
    25   1     0.11357489510770773      23.110174191775652    0.058315337823614623
    26   1      1.9517287022729335      23.087493184669398      1.5104866411607061
    27   1      2.1597553719727571      25.024527504462569      2.7769492289706221
    28   1    0.064993630514454365      25.227348698949722      4.1777308920305218
    29   1     0.16785114668868595      27.062294272618821     0.27103547556097263
    30   1      2.1432842746026046      26.965515955184937      1.5858084166536763
    31   1      2.0940239996812751      28.885322572814609      2.7113449162501082
    32   1      38.350338267826373      29.101377208908577       4.229795386714204
    33   1      38.211500993799717      30.876914749447604     0.37352204443675435
    34   1      1.8986170329248351      30.993621073849585      1.3758144870492532
    35   1      3.6633343696499927       32.60625596984503      4.1184620194737001
    36   1      0.1743754088968395      32.913024359658721      4.1441800031756904
    37   1      38.327901275982782      36.345202975149789       53.27800082657879
    38   1      1.3710144802643116      34.984852870424312      1.1909559561877594
    39   1      2.0042507995760617      33.078574757608322      2.6798432713828428
    40   1      38.292453228496022      36.628146049518044      4.1136217066212213
    41   1      3.7235599188753352      36.500887404108298      53.083649411554731
    42   1      5.8409800516615356      38.329962474651921      1.1293557115562045
    43   1      4.0084904748832608      5.4670380532037139      3.7850341303048158
    44   1       3.852734421585549      3.8453373604358978      5.4091340063555906
    45   1      1.6707775201088708      4.1143832818228265      1.2817965606635435
    46   1      5.6477771929044032      1.8056992575918875      2.4148270373422172
    47   1      3.5582116383871409      3.9094202133176417    0.050595795858589539
    48   1      5.7800319864709939      5.8951314568158981      2.4099580682085522
    49   1      1.9687930630287591      7.8309627688215171      1.3420287620118652
    50   1      3.8704627458969059      7.7675279276392963      54.209075547006563
    51   1       5.667353379734319      7.9039081102894686      1.1625289805055556
    52   1      3.5736090264090765       9.277396276876356      4.0028947537933961
    53   1      5.4166978778531609      11.589258271082212      1.2226525996329516
    54   1      5.5092752474276505      9.5591154160412319      2.8287368176891032
    55   1      6.0142623281808367      13.317665590014116       2.753491999964806
    56   1      2.0236824743115913       13.40030348322991      2.5855993126553152
    57   1      4.1866142889122715       15.58230161511575      54.249419351903313
    58   1      5.9779714947913654       15.20459953662025       1.375390181385207
    59   1      5.7923404502163489      17.215111586309813      2.6277455918545121
    60   1      4.0082117841367202      17.047100482003408      4.0630973199399163
    61   1      3.9547103915772053      19.213614460366379      54.172207975737763
    62   1      5.6774587106193248       19.17806371613495      1.3510326481214412
    63   1      5.9591445764921795      21.267959896084552      2.6093854390486984
    64   1      4.1344426346519088      21.112814445850866      4.1517045135547033
    65   1      3.7175781713305276      22.921543518889305     0.11709481694664411
    66   1        5.70002617007684      23.113067119522697      1.3046269075832364
    67   1       5.789664444411037      25.086547683819816       2.528599054667402
    68   1      3.9574396439856585      25.132265809408228      4.2098710261590462
    69   1      3.9720307427357091      26.549877155593357     0.22599334104409086
    70   1      5.9334733405820117      26.864374097653211      1.2190979230550496
    71   1      5.8299369926650044       28.63848252321446      2.8303610401071762
    72   1      3.6340510377862398      28.925806799685532      4.3127461309953699
    73   1      3.7067001982311911      30.955719890073148      0.1305454898951327
    74   1      7.6201433881360785      30.557624788876954    0.052952001500364082
    75   1       5.711610399907574      30.711082515677909      1.5193274822314744
    76   1      3.6658954173525484      30.830069508590174      5.5748306530134011
    77   1      5.8048129185779436      34.721307457217456      1.2326998189412528
    78   1      5.7368922503827351      36.469229542221811      2.4298256804560761
    79   1      4.0567886354003937        36.4449323215497      3.8947691874107839
    80   1      1.8870122548795694      36.525794685897068      2.6334480299867775
    81   1      7.8753399636553745      1.7793015473930511      52.842965112426022
    82   1       9.946067578909263      38.316944710944078      1.6235916331479103
    83   1       7.465716628481422      1.9159137516582974      3.9560346266475994
    84   1       7.960038039718289      38.392019137280542      54.281709606189942
    85   1      5.5527846260115448      3.7546303941190238     0.88666213455193044
    86   1      9.6381769593307922      3.5081753117178498      1.2552286915600357
    87   1      9.6861746334261749      5.5441180545962165      2.6292007002914053
    88   1      7.6596597392365453      5.6588577513956988      3.9452969393292512
    89   1      7.4750851270160634       7.797390794557475   0.0066457725306804868
    90   1      9.3234081239547297      7.5422246215616342      1.2932599619739114
    91   1      9.4318227041226681      9.4426092612602535      2.6716060789418972
    92   1      7.4852767005975513      9.5770164040163124       4.094964290121367
    93   1      7.5458247852837648      11.568038444916736      54.249583236601637
    94   1      9.5659627056208318      11.519188718265797      1.3614083239338677
    95   1      9.6163591172459491      13.495686041839694      2.6906278374647075
    96   1      7.8530579336195503      13.265955208987211      4.1425910661122209
    97   1      7.8416541366296109      15.603618100933145      54.078179063660265
    98   1       9.625762445424547      15.224364551266909      1.2141138634549986
    99   1      9.5459610749034862      17.235992192994502      2.6792975934582746
   100   1       7.698350858092919      17.207651683302085      4.0024195053723579
   101   1      7.7405480934262156      19.314636976454004    0.041983474476705855
   102   1       9.796229161397175      19.069209075716561      1.1979851412787654
   103   1      9.9738360000509108      21.062674136406333      2.5930919156398451
   104   1      7.8723698203255035      20.694981019323119      3.7880781579769844
   105   1      7.8538768646683659      22.963455476946265     0.19222750746793066
   106   1      9.8413111669501703      23.125041834695175      1.2922227917723581
   107   1      9.6085432199824332       24.89495893919263      2.6131976175907652
   108   1      7.6206292457633982      24.769164820993801      3.9720160350496938
   109   1      7.8068747888451577      26.910121200353601      54.225381163723497
   110   1      9.7225388634350498      26.960528773442075      1.2454495218670087
   111   1      9.5955626413351709      28.902800468311831      2.7170441970584296
   112   1      7.8625831368776371      28.537319172029363      4.1354822349124181
   113   1      7.5540420940213568      32.562478894123196      52.868543406120395
   114   1      9.6138227887629011      30.620899807950025      1.1824167001341619
   115   1      9.6638771551893115      32.618322240203497       2.490771234077795
   116   1      7.8703973662638447      32.540430320168959      4.1009045434905937
   117   1      5.6457257480577354      32.766809108243429      2.9224742652246825
   118   1      9.6063339471040656      34.695557197657713      1.3252523891327874
   119   1      9.6983292230505285      36.488816188086574      2.9024233546167593
   120   1      7.4919261927415137      36.582063234496154      3.9402544887836801
   121   1      11.328014437799183    0.069669933599044109      54.159264882400819
   122   1      13.258527712957722       38.33355673194022      1.2303490598232536
   123   1      11.775002133323465      2.2804629932739657      4.1798702348157315
   124   1      9.7435962626132433      1.8873685085412573      2.7504556284005504
   125   1      11.597068231666233      3.9268686265987571    0.074317846262761209
   126   1      13.549635177235205      3.7009544457613774      1.3506729022893071
   127   1      13.502336726232581      5.5831044607767435      2.7942340495977072
   128   1      11.536943195771908      5.7861407294902447       4.094537911448958
   129   1      11.256714781334979      7.8458668660957596      54.173111393264641
   130   1      13.253910188927188      7.5159500551086325      1.1221463246104257
   131   1      13.423503424703943        9.01835105509622      2.7084764971432964
   132   1      11.454135796575533      9.6354475220787901      3.6657417626194717
   133   1      11.528409168390095      11.762765626117151      54.179351073934079
   134   1      13.431966862322632      11.105217380326387      1.2629865208798399
   135   1      13.205797593574887      13.044273230102394      2.7365354277064053
   136   1        11.4852853766716      13.565838920373354      4.2534629623553544
   137   1       11.53484589695592      15.260747495105546      54.220811981935498
   138   1       13.37094964084868      15.353319937170196      1.2223440933835577
   139   1      13.369202349254346      17.208707863999372      2.6442969015649034
   140   1      11.461431641590627      17.368256865607133      3.9591172554827598
   141   1      11.759454258993451       19.29250164535345      54.016922709014928
   142   1       13.60275693382903      19.305470843857801      1.3702821655423671
   143   1      13.485022072409002      21.274041420204213      2.5950669116630709
   144   1      11.765679360703338      21.328881244253903      4.1213707278593121
   145   1      11.612210887082707      23.125020312550777      54.179478102039099
   146   1      13.655239727854605      23.089833304714368      1.3071920217898108
   147   1        15.6509516457735      22.936145496034573      5.3750532826744557
   148   1      13.535963883776502      24.952516100022741      2.7675412493927651
   149   1      12.009398400170527      26.717762932966863      54.154571774180397
   150   1      13.698892013905967      26.876538954439788      1.4152928054972014
   151   1      13.336904877872758       28.77874977318254      2.5351228023135279
   152   1      11.663269365571415      28.716607831522744      4.1635687955988159
   153   1      11.607920696810263      30.913800215552445      53.897477981267691
   154   1      13.579876466964153      30.709450950161688      1.3560377199078086
   155   1      13.445945361759033      32.678065634176527      2.4962239743685126
   156   1      11.361527267177795      32.362032984630801      4.0614030317306282
   157   1      11.379277328226619      34.648972700958581      53.994739491959407
   158   1      13.162481368608422       34.59272644652561      1.3504090381004403
   159   1      13.544058473340522      36.415199366442771      2.5620264062171847
   160   1      11.650742841996589       36.24116569269296      4.0948586506132525
   161   1      15.267221265233999      38.280336645456245      54.272111232469271
   162   1      17.241382540571102      38.358605442472374       1.099853750986892
   163   1      17.677309155701469      1.7965578133014948      2.3329182020480634
   164   1      13.417434822609801      1.9018094556995324      2.6274119380631853
   165   1      15.458404387430463      1.6996014713268879      52.854492743354811
   166   1      15.518434423706095      3.8880510999742182      54.066549296764776
   167   1      17.453427426445622      5.9405522078158839      2.7203707019736862
   168   1      15.867275209004214      3.9223819864323657      5.1558050954566301
   169   1      15.249060085251632      7.5230739344491937      54.195911365726957
   170   1      17.011063348189012      7.6543843137093406      1.3411238533897876
   171   1       17.03769118935702      9.5341770715135841      2.8559224239813159
   172   1      15.273660696753447      9.5139274483808158      4.2635725810006777
   173   1      15.320189177974495      11.418553894675709      54.245985464938158
   174   1      17.395633570998644      11.161131826581961      1.1368329291725436
   175   1      17.249291172957381      13.063132259364275      2.6412410252283736
   176   1       15.19456205713486        13.2140463526343      3.9281756755235619
   177   1       15.37154259636881      15.291733524957861      54.145727424824095
   178   1      17.400345753423025      15.053533424308581      1.2584253879878142
   179   1      17.097089203913921      17.072201798877753      2.4810793889546199
   180   1      15.266209066036051      17.368718031240107      4.0567882276280676
   181   1      15.258944345587262      19.216512117132023       54.12071792092334
   182   1      17.252582821573831      19.240261032497305      1.1534586083049023
   183   1       19.17871780813411      20.935281067339616      4.2214849718988825
   184   1      15.466380833929756      21.137750833958833      4.1242766540475362
   185   1      15.468254861850047       23.11283211007834      54.269172531506321
   186   1      17.465646877252745      21.352215071344304      2.5920871844560138
   187   1      17.289757464891029      24.862013212874945      2.6956675432841832
   188   1      17.403335585595443      23.062294526108126      6.8777723250325753
   189   1      22.904414585810596      30.722436271922312      54.093470250396749
   190   1      17.387643464176772       23.22655429395504      1.0455786535283322
   191   1      19.103258572285178      28.953522613550561       4.019004749754572
   192   1      15.264994233541305      28.641631895937799      4.0184603581510512
   193   1      15.134351685674645      30.246949917031529       53.79014904030965
   194   1      16.853028014393747      30.507411082664596      1.2616798141933712
   195   1      17.160489574784254      32.393488102041132      2.3384370694647267
   196   1      15.354328861189622      32.677208479254148      3.6910851027233105
   197   1       14.95182170825619      34.411978282725215      53.954473834501741
   198   1      16.908690510696232      34.406759650751205      1.0107027603028438
   199   1      17.473003614362447      36.311879763686186      2.3159963541921829
   200   1      15.713262071223101      36.581097829031691      3.5610588374009904
   201   1      19.198590257750652      38.328222077905409     0.10736096248257328
   202   1      21.128916526001458      38.279139404913025      1.5463563182168716
   203   1       21.11959292776039      1.9525477434446714      2.7442273792356224
   204   1      19.304991641211124      2.1082104893085178      4.1960311489275455
   205   1      17.420519372456614      4.0760912319405325      1.3629527305975651
   206   1      19.121450977008667      3.8255367642902938      54.229956223396563
   207   1      20.991343814074458      5.8556594106479514      2.6934878750143887
   208   1      19.305330852441838      5.9202747885249654      4.2255954394718644
   209   1      19.118452738078599      7.6645857387376521      54.221764811677453
   210   1      21.070064733372508      7.6196363675842846      1.1394266999689664
   211   1      20.905425968911086      9.4186028229464522      2.6994884129629542
   212   1      19.059294165323195       9.368827211416777      4.1906052049280991
   213   1      21.194148553847413      9.5396451405008786      51.827288345099397
   214   1      19.038715297501209       9.575724069592086      52.736015015897728
   215   1        21.0617574696976      11.381963424533293       1.383942452188889
   216   1      21.165366581031428      13.490922577857354      2.4007272218518199
   217   1      19.281258280088178      17.569790209605252        52.9287523964705
   218   1      19.231286823213967      15.457334344093866       54.20865339842053
   219   1      21.201142183107084      17.437342315017911      2.3115653976730295
   220   1      19.136220346264537      17.296325425589693      3.8077837963647219
   221   1      19.212850775049642      19.411001126367101      54.249419262317907
   222   1      21.156302729752785      19.492317500245715      0.9790377224878305
   223   1      21.174020319245841      21.129456847690516      2.8401220724832794
   224   1        19.1910142755493      22.918091122477033      5.4059788793606325
   225   1      19.473442901790307      22.892169390722664   0.0092368522275592269
   226   1      21.157394989920572      23.045790517755691      1.4419794114994737
   227   1      21.021528492435117      25.120028513209345       2.787999134437483
   228   1      19.162857277342685      24.883483951674197      4.1895074124857734
   229   1       15.46395878852041      25.380394810936476      53.030032815921324
   230   1      22.999270491382909       25.13558485190751       52.81196996341648
   231   1      23.215970348835793      26.875877032467272     0.11315763089132817
   232   1      19.303763956279326       26.97616475293788      5.5270656786071113
   233   1      17.399462049720196       28.67352502616329      2.6189363467960889
   234   1       18.68614170925548      28.517831201675921       52.35721282939236
   235   1      23.077180119488293      32.611488821613172      52.927329257335984
   236   1      19.075671224991709      32.654991649168664      3.9451021649432527
   237   1      19.089351770969607      34.610049093988401       54.27762718102327
   238   1      24.745109658173678      30.793182979520388      1.2726815097459268
   239   1      21.163269704967451      36.280955479896399      2.8256213196200726
   240   1      19.121202442267656      36.351827063402567      3.9672775738327011
   241   1       23.09662795774387    0.093093164025463249     0.03177963809265523
   242   1      25.108609910795302      38.383993372339098      1.4574476171202462
   243   1      24.896484351273035      2.0949036082910943       2.879415614905418
   244   1      22.825764812822602      1.9843969883908337      4.1958476695196731
   245   1      21.038168275825473      3.8789996680572134      1.4979877109717787
   246   1      24.853721041041126      3.6710079171610341      1.3285401611367178
   247   1      24.817606885678732      5.7656062483764883      2.7874467332859245
   248   1      22.994260682730328      5.7372647650772128      4.2927144174629674
   249   1      23.187075806866549        8.00270228887541    0.017118560223946137
   250   1      25.033049154955894      7.7702235028796434      1.6435586600880043
   251   1      24.642022685671169      9.6755159938477604      2.6501244779216586
   252   1      22.787957483198987      9.4680628118538745      4.0698523986900321
   253   1      22.888540059722605      11.853719984206339      54.284774163171825
   254   1      24.848392809042998      11.661059358176772      1.0821638430317781
   255   1      25.233940309473013      15.470499843847177      1.4444531367908446
   256   1      22.955484096643303       13.26024447233543      3.9915930671735635
   257   1      21.208715998425049       15.46871438204831      1.1772046805997094
   258   1      23.151208874722215      13.645053979466597      52.828846508130525
   259   1      25.172689459124943      17.574763027832802      2.9017060711476552
   260   1      22.969043029391486       17.36392406402538      4.0522200055311739
   261   1      23.078955465773028      19.387741430923647      54.054797506895326
   262   1      25.054233835422018      19.229991681465155      1.3200423123831457
   263   1      24.981213704628605      21.101838583317811      2.6530744705631584
   264   1      23.120575049761651      21.212303032823915      4.1045326936301878
   265   1      23.004209258191146      23.124742108841193      54.230426962443524
   266   1      24.893029926809611      22.980090858142226      1.3695927471174969
   267   1      24.929194067445604      24.938650555178739      2.6741148046455221
   268   1       23.00414416139731      25.042671871003702      4.2152659963918824
   269   1      22.683174358379397      28.723174168385064       52.92410901834149
   270   1      24.966826057484795      26.979838096139989       1.486044952306034
   271   1      25.088607123319886      28.956818679543037      2.7012510629084563
   272   1      22.906340738117102      29.087278435021279      3.8471574593550946
   273   1      20.882318630678324      30.964921136259271      1.1830009426702313
   274   1      24.901387607951879      32.560171074072095      2.7380749024870963
   275   1      23.004348168882586      32.781740035262658      3.8824041456666909
   276   1      21.097135785147529      32.906528742818779       2.523598325748619
   277   1      21.139696090031368      34.920375115173819      1.0405336195560975
   278   1      24.893190894048178      34.462858634005251      1.1418799041270193
   279   1      24.989133770547305      36.225524641844949      2.6984056919633166
   280   1      23.084671878920808         36.600567705444       4.040623172419564
   281   1      27.012311873410642      38.352183702306789    0.018358841217877831
   282   1      28.861154084566831      38.390599065451696      1.4334446776447762
   283   1      28.839607065295532      2.0529460025772863      2.5894013551317263
   284   1      26.854452904354272      2.0494019315191028      4.0609554755043522
   285   1      26.784646886060258      3.9964949213943375    0.037092141301036455
   286   1      28.599320228123673      4.0836394648911085      1.3335752200710977
   287   1      28.644890395365248      5.8228887342679689      2.8688460156078786
   288   1      26.819957274851578      3.7516944452356991      5.5501346303833463
   289   1      26.756032026908862      7.6079279648593765     0.19581296670883166
   290   1      28.839514242831275      7.6444827226980623       1.346964662669689
   291   1      30.621862451603864      9.7160155994184283      4.1967815440148586
   292   1      28.807385274977815      9.5269959503870982      2.6898486439460405
   293   1      26.906270364228387      11.429407800410097  0.00077242114069804297
   294   1      28.646430331353354      11.456726651579745      1.3519422994798218
   295   1      28.880602339952148      13.534499896378019      2.5834771857079879
   296   1      24.976673083582348      13.477345906693168       2.543574809122608
   297   1      27.086180139315537      15.144867289601514     0.17873839428548313
   298   1      29.090524750249266      15.324874072364317      1.2244647027187294
   299   1      29.052464213053693      17.335611706107745      2.5939373183447407
   300   1      27.188470510100736      17.289908894043691      4.1069940628328956
   301   1      27.077819117433723      19.191113981413046      54.276336242964739
   302   1      28.851215612349833      19.245805653745496      1.4236396566285157
   303   1      28.719551133123637      20.994321879797265      2.9096019530103172
   304   1      26.712322169335657      21.287315146814528      4.4414460375726774
   305   1      26.984302383059109      23.315064604568736    0.094936801923859046
   306   1      28.810887636008076      23.174260800117199      1.5152889242226386
   307   1      28.890646079587526      25.167067162894643      2.7051782660057011
   308   1      27.026113677507986      24.909277172760309      4.0846407295594309
   309   1      26.920117355188626      27.065961151082504     0.19336521000670925
   310   1      28.856986877626856      27.046392302628348      1.4660289354745808
   311   1       28.78469644093104      28.939677683698573      2.7961093641475596
   312   1      26.853626938322396      28.830980061326752      4.1598095803005544
   313   1      26.818023271753887      30.972511163506244     0.10574171249922981
   314   1      28.612259461530655      30.828239710661794      1.6664316777262125
   315   1      28.759342473590166      32.766000825522624      2.9448174752418717
   316   1      26.758066797238413      32.675452255186052      4.2426859742657941
   317   1      26.869376918657281       34.50170982038982     0.14785476953680907
   318   1      28.981252364993562      34.465791559754265      1.3655496425688516
   319   1      28.862546256839046      36.473686598041652      2.8109110344215527
   320   1       26.83209649670642      36.513465581506125      4.1702946548686208
   321   1      30.839289134959539     0.23390114750939939     0.25018735987779367
   322   1       32.67355489023042      38.313474223028557      1.4667374241590316
   323   1      32.586856182210262      1.8143634255601577      2.9142966729285722
   324   1      30.740752521479244      2.0092603912166167      4.1506584254996808
   325   1      30.642830294606142      3.8768428559665322     0.26474085341642434
   326   1      32.555406564853421      5.4348133129505856       2.854268063116387
   327   1      30.609822696767939      5.6010538909684495      4.1209224940631222
   328   1       30.72940001344179      3.8806769753594956      5.6208215626188274
   329   1      30.699055658491545      7.7777605298858106      54.215681853636148
   330   1       32.47871683226635       7.521252036790524      1.4486246825938454
   331   1      32.659757906282067      9.3616481696271094      3.0477748946494243
   332   1      30.678632965853016      11.772036078200475      5.5884742229680962
   333   1      30.732147710964373      11.479318712088666     0.19634250659837565
   334   1      32.524948514499634      11.502922871302008      1.6438354233597945
   335   1       31.00674979810481       13.74655631327729       4.077810008011487
   336   1      26.660377529631855      11.494510319286842      5.2674966639525893
   337   1      30.972042913880419      15.316098500076334       54.23977666022104
   338   1      33.019601786539603      13.420809952741251      2.7865078041537483
   339   1      33.207490187279802       17.32379942798002      2.7451859390238713
   340   1      29.182726185059543      15.578341139602115      6.8507365360106194
   341   1      30.789215003528174      21.176637743625438      53.051511985153255
   342   1      30.844521697482559      19.292806399091898    0.090881870329383302
   343   1      32.670204958854498      19.157054082380977      1.4271889038749916
   344   1       30.98672549591441      22.824087733568906      5.6155318287597638
   345   1      30.789659550936488      23.279724384972862     0.25587644456144265
   346   1       32.56080936404458      23.105857072971492      1.5734970295018793
   347   1      32.752284394631339      24.865055644911685       2.933051084592659
   348   1      30.866835799435353      24.877088167046846       4.143833661825977
   349   1      30.609335844432884      27.183845568299159      54.174043299451945
   350   1      32.572483416789922      27.170338041436185      1.3627962542397971
   351   1      32.830519156711631      28.969383944274078      2.8935535414996951
   352   1       30.77378126919664      28.821453371910909      4.1448080006223877
   353   1      30.293026973810505      30.692621810104203      54.210118750213212
   354   1       32.51010951881635      30.727607786559954      1.1652959000342102
   355   1      32.454365495064053      32.474536733619864      2.7157123419843052
   356   1      30.622221146325032      32.745369608686197      4.1247806186544498
   357   1       30.80474046508764      34.685645632356582    0.034901694916231886
   358   1      32.796017894111003      34.653697574293446      1.4773420707357197
   359   1      32.738514577327031      36.671017241858998      2.9433997919001849