dump/Si_1000_20/steps_31 (written by ASE) 

3980 	 atoms 
1  atom types
0.0      38.395898218429522  xlo xhi
0.0      38.395898217999999  ylo yhi
0.0      54.299999999999997  zlo zhi


Atoms 

     1   1    0.016273246184741103    0.053747727460004127     0.18596222777991914
     2   1      2.0999543971839025      38.285685545189885      1.6253691202077785
     3   1      2.1797774769204517      1.8605022738920947      3.1087773430069654
     4   1     0.11760824522621501      2.0106305851556883      4.1173039975786647
     5   1     0.30696377795529101      3.8700345955335358    0.069009155187666066
     6   1      2.3450428083565762      3.5945408498466795      1.4848112699516616
     7   1      0.1363864994129238      5.9337019990505535      4.1182705746314481
     8   1        36.4992037223426      5.8774007366452725      2.7567509549807601
     9   1      38.337891876261374      7.5048286794090968    0.079255455951181566
    10   1      2.0586601990674729       5.854034445136107      2.7250914882892965
    11   1      2.0135510407427457      9.7762769980593198      2.5491673122337595
    12   1     0.26694814736211508      9.7509490119652327      4.1740621238277509
    13   1    0.013067495735497623      11.532524663780302      54.290200288215665
    14   1       3.849260247936281      11.446603442005888      54.004197890399873
    15   1      1.9460421877027814      11.609609239561781       1.370238988276137
    16   1     0.15422551471980567      13.577071358050294      4.0448955628370538
    17   1     0.19498620000825148       17.31271842649803       52.98508164216225
    18   1      1.8691909032975085      15.282571298422036     0.92720102946399185
    19   1      2.2379168278350194      17.125965845578659      2.5420140636283595
    20   1     0.40258397460450701      17.229207639909664      3.9627206715672165
    21   1    0.051526236404175675      19.061158358694566     0.21652682089480771
    22   1      2.0962900638838438       19.12690586624565      1.4325723331216986
    23   1      2.0518415260135199      20.996986085008192       2.589614253722778
    24   1     0.28833784161936116       21.23699231953087      4.2428548092802769
    25   1      38.067324642742065      22.835854262568503     0.11435668386100149
    26   1       1.735273864919979      23.057482323850099      1.2901483039903958
    27   1      1.7610155000693932      24.935045429347095      2.9310418591707523
    28   1      38.343023126538178      24.981730416613178      4.2062200111399424
    29   1      38.148122493721537      26.777453497318092   0.0048089205926203247
    30   1      1.8621818231129581      26.934351034466268      1.4711112439345819
    31   1      2.1437592151989597      28.755818872119104      2.8448363011493463
    32   1    0.059507647742692141      28.834480115056753      3.8474175512154374
    33   1       38.38503969338467       30.65549424663191       54.13283351748241
    34   1      1.8962935514022428      30.689574774576268      1.2809038147486174
    35   1       1.419640530619398      32.727744344781641      2.6210127852275167
    36   1      38.116673352881719      32.609538533361658      4.0881641493976328
    37   1      38.373384456859675      36.677366953052513      52.880986788110988
    38   1      38.228368566472604      34.609813872583089      54.205493900797137
    39   1      1.8433160133798123       34.48514106638595      1.3441759487800136
    40   1     0.13198225290400525      36.394477591515844      4.4037075164815525
    41   1      3.9138275219762946    0.082515650035480337    0.066704954870294597
    42   1      6.0247587202614943      38.240995192951274      1.2913667252244745
    43   1       3.825656626665527      3.7041806285315078      5.6972600726458404
    44   1       3.859286834695479      1.1734659098601974      4.7197064465988907
    45   1      4.3530481882830481      3.8893601978895682    0.024902372553583532
    46   1      6.1647937345642516      3.3249722517336062      1.7514550147109818
    47   1      5.8462733014507897      5.6569869510495359      2.5885681186712195
    48   1      3.9493638717485613       5.625333056348043      4.1362823334013461
    49   1      1.9740813859989159      7.8133456612745338      1.2633020974256048
    50   1      4.0260479043204871      7.7162975429251484      54.229772434995574
    51   1      5.8414510923042826      7.4711539351971243      1.2930894042613783
    52   1      3.8162844430454039      9.2201882038232927      3.7023244931972488
    53   1      5.7217967962873173      11.499654958699406      1.1681434102322685
    54   1       5.935379125799745      9.4719518705953156      2.6651016759168424
    55   1      5.8796312281797718      13.437325822136053      2.2661116717927698
    56   1      1.7956895921251979      13.500361059374427      2.5301275840827104
    57   1      3.8909655072228202      15.254076588892955      54.201663122084319
    58   1      5.9810777615426174      15.554731661914696      1.2045442620129401
    59   1      5.9015639686832699      17.324981323253621      2.7885783179165524
    60   1      4.0325532470320011      17.338333670090549      4.1619645995201129
    61   1      4.0948326033347637      19.471628105390604       54.26779838813696
    62   1      5.9318206746300923      19.321421659409552      1.4705949078739202
    63   1      5.6909220531758162      21.295897042270131      2.7698557032270044
    64   1      3.9102596309894224      21.096518252562905      4.0993549592754102
    65   1      3.8306126677261929      22.932990876224082      54.221334322215661
    66   1      5.7879818407046617      22.946386827917017      1.2488988792577305
    67   1      5.5419137216593732      24.877824506332022      2.4061287947800132
    68   1      3.7890096045111714      24.996611468250411      4.0640886606544777
    69   1      3.5774651216252931      26.950835417182894      53.963345689088307
    70   1      5.6314753768417551      26.826529210773938      1.2022517691110473
    71   1      5.8468951132555214      28.605816994042168      2.6531322019459682
    72   1      4.0400551556162068      28.932287576842356      3.9705265976404784
    73   1      3.8037052741829411      30.912214475850529    0.022504028007892869
    74   1      5.6596652982530857      30.765485526322088      1.3015509810047212
    75   1      5.8419181972301608      32.598918745018153      2.6667621671103907
    76   1      3.5859887767110727      32.646577466445066      4.0528705964034657
    77   1      3.7948544503881645      34.705652200251258     0.10133867545954468
    78   1      5.6418729841481081      34.586891764196508      1.2954038023207974
    79   1      5.9476998041306786      36.336559504477606      2.7639853940185248
    80   1        1.78084946752889      36.343700557367491       2.812830762907673
    81   1      7.6728517039341515      38.355700068433237      53.875687167864768
    82   1      9.6316808605915369   0.0010038346028945677      1.0724177061376055
    83   1      7.9595243211371614      1.7627307919084607      4.2462575203529793
    84   1       5.877618460139054      1.5003574917283724      3.1401005243480338
    85   1      7.9262812329025856      3.5210384502048928    0.048522657358091699
    86   1       9.918087065660977      3.5118107514846097      1.1960153355608463
    87   1      9.6617011485128224      5.7923693220120676      2.5904034191186267
    88   1      7.7988844199814906      5.7862990186476146      3.8924356162031342
    89   1      7.6258624288913008      8.0399679735350809      54.160348510829301
    90   1      9.6444857224129112       7.864781401759859      1.3268993599051333
    91   1      9.6817536981699099      9.6954581890589147      2.6272757066746748
    92   1      7.7237985330896102      9.4348793884684863      4.0316516971409007
    93   1      7.6518163935699857      11.582002079273668      53.934244838383229
    94   1       9.336324799957687      11.637490296939347      1.4372043755634409
    95   1      9.6153534255033666      13.563651031505561      2.6430879318693785
    96   1      7.5672967746474846      13.308493210205887      3.9881686504795182
    97   1      8.1056237092719403      15.153297021526031      54.220218617296531
    98   1      9.8993495824496005      15.422502134674303      1.2401455067898017
    99   1      9.7722290578809776      17.265452710337552       2.512189544759039
   100   1       7.813369101722607      17.247404285492767      4.1254567785312393
   101   1      7.6591261875940022      19.314532401743389    0.088240967162244152
   102   1      9.7323216907855841      19.147033567618465      1.2755261647053517
   103   1      9.7757913728611214      21.116690225103635      2.6113252656684494
   104   1      7.6884582687684571      21.367571420277027      3.9853127604898666
   105   1      7.8689075532379746       22.69774906993613    0.077350395983296336
   106   1      9.9307551308085138       23.06465562149782      1.4855500565180806
   107   1      9.6191500315183909       24.83007929145062       2.761377231614893
   108   1      7.5886528339428807      24.889026605956612      3.5957282488867333
   109   1      7.6461689488750268      26.721732662138923    0.086230711557505127
   110   1         9.6943167136263      26.705820537313407      1.3885709997810634
   111   1      9.7409524480757081      28.617574461448068      2.6719728158868303
   112   1      7.7615033795529333      28.672549277605352      4.0270023781540667
   113   1      7.6944573589363383      30.585177640203717     0.19945511920481049
   114   1      9.5241647148302313      30.853653453851479      1.4422080402254998
   115   1      9.5704509198103835      32.985936041074154      2.6108155610270152
   116   1      7.6397521049792418      32.789804836515998      4.1533415889357572
   117   1      7.8448221695796709      34.527693372287018    0.079546978981033842
   118   1      9.7579765728482428      34.837323134567505       1.401157986020269
   119   1      9.7403106313639931      36.740464735543625      2.9140618369559079
   120   1      7.8044519392388647      36.747336044744607      4.2218574516624496
   121   1      11.439879123470236      38.360544452091688      54.136040550592355
   122   1      13.398721513786992      38.198435629920269       1.148647091389809
   123   1      11.630123772885154      1.7806337872091433      3.8910089978835334
   124   1      9.6996055181027945      1.7714381670713721      2.6222700157847294
   125   1       11.49993632669112      3.7664761297844236      53.968348072093171
   126   1      13.352567869998694      4.0333163732390647      1.1231281979892276
   127   1      13.679956204406441       5.866869095962012       2.668137443915453
   128   1      11.566541217434285      5.6613671667426404       3.919574533113122
   129   1      11.508969984694943       7.824556519851102      54.100436940188402
   130   1      13.291947890604586      7.8127913592954892      1.3033222685529704
   131   1      13.409679398896845      9.7450324289520847      2.6510758058363173
   132   1      11.456003435492043      9.4913409583611354      4.1191935561531556
   133   1      11.439406001120409      11.638306297529461     0.22659037610756044
   134   1      13.452623628526357      11.689168994522053      1.2039686111819128
   135   1      13.613108131780294      13.500877985306142      2.5798115488893933
   136   1        11.6708643612196      13.449392431794379      3.8903774467320189
   137   1       11.81156650172097      15.421166827797848      54.251904422638695
   138   1      13.651825943509342      15.452072125365975      1.3454331165928699
   139   1      13.604649204754576      17.313866241760813      2.6950281403097711
   140   1      11.653835133172828      17.358991673754218      4.1547774269472137
   141   1       11.64055646240503      19.067954418383703    0.048086481954396749
   142   1      13.565185066080167      19.188178545687457      1.3026173162822121
   143   1       13.59630076110677      21.026239745576468      2.5320736791254608
   144   1      11.715516292029065       21.09469212689967       3.867273874262946
   145   1      11.559343355480275      23.168485097607324      54.238058567034855
   146   1      13.466416897278728      22.962312747187369      1.4213924578432535
   147   1      15.415983994929993      25.020135752966933      3.9052806059292378
   148   1       13.53600635818732      24.997958932180342      2.7071690951389749
   149   1      11.552059815613708      26.797627517945799      54.270375438664175
   150   1      13.392144716514538      26.705343331204073      1.3061152305640227
   151   1      13.295523249344471       28.76592642616674      2.6787619954788409
   152   1        11.4878647998648      28.734629703505686      4.0794620797444852
   153   1      11.549263076929314      30.700761890582655    0.030962789626028119
   154   1      13.485968652999341      30.697971638920588      1.3384363559817063
   155   1      13.434237231573915      32.612170143108884      2.7108047071715866
   156   1      11.468706226385272      32.809553488846809      3.8884779344727591
   157   1      11.664933988410386      34.565566129182059     0.18982117027023812
   158   1      13.691330634973509      34.336032586917234      1.3733308420133317
   159   1      13.452980890322168      36.398284716184556       2.458106506678154
   160   1      11.745152543108691      36.481309036365779      4.0109962846996643
   161   1      15.432363081955614      38.188499837491371      53.968404091611895
   162   1      17.185701489961311    0.027226385963308387       1.352636875146366
   163   1      17.398909715824391      1.7269231124554385       2.726584032525714
   164   1      13.454015549918353      1.9011892938358763      2.4583518754739102
   165   1       15.52426071094559       3.847405356171012    0.091747188182057196
   166   1      17.444839582718018       3.872514861189583       1.393884174404683
   167   1      17.155006916889228      5.8934905894285592      2.8344133392906774
   168   1      15.296305943483222      3.8031319353044268      5.4644329361358936
   169   1      15.271349889466688      7.6659885473905849       54.16295361593945
   170   1      17.219411150329726        7.46389193338584      1.2744121615139301
   171   1      17.151197087468457      9.3675903822423514      2.8032768808098476
   172   1      15.272743923069104      9.5204411102989273      4.2292056826596625
   173   1      15.476872070664804      11.385232772256888    0.059004125526951286
   174   1      17.405826411967489      11.213069098082824      1.3504015708120505
   175   1       17.36648494721355      13.285583815144712      3.0334733122774318
   176   1      15.359621712025451      13.446483520823712      4.0984501616350384
   177   1      15.649158966556207      15.265509992120318      0.4293434499710656
   178   1      17.707734871467849      15.302227972793014      1.7103113278254358
   179   1      17.369569678528666      17.653857246708931       2.958943665628885
   180   1      15.565295803233584      17.305459068314178      4.1260310469862951
   181   1      15.419014986101015      18.995057417176525      54.274507823086715
   182   1      17.445244059410403      19.153117165967714      1.2521435202573583
   183   1      19.377792712626349      21.105110798275877      4.2508575732350078
   184   1      15.497984310112283      20.884720146719367      4.2531976560772033
   185   1      15.476711094063104      22.920296367264001    0.012666893813684535
   186   1       17.54313520962431      21.025430089920022      2.9018386645055125
   187   1       19.41825091333423      25.029540019285761      4.0584166960377628
   188   1      15.213526127549965      22.991856005698562      5.1853462295552477
   189   1      20.890601117252352       28.94470206615981      51.564313549173626
   190   1      17.400198420669899      23.101081641263558      1.5123627704056641
   191   1      17.445089284427098      29.103869437008534      2.5123793037448738
   192   1      15.429942670362605      28.904662050736668      3.7860443298655353
   193   1      15.388511639088748      28.680949061037229      53.273876405784968
   194   1      15.491487493993667       30.81692531114566     0.23431606221064408
   195   1       17.43290122352807      32.579377117221924      2.3469475852693344
   196   1      15.668974120508279      32.569715670650488      3.7432764166481083
   197   1      15.741397807498123      34.506688057890557      54.090305345100582
   198   1      17.377293715554984      34.564291610091537      1.1090075801456003
   199   1      17.013827764530173      36.417392239063794      2.6011970532786686
   200   1      15.291763727889101      36.352103745046904      3.8859296884358874
   201   1      19.028739440550346    0.033113179290829006      54.251626446318596
   202   1      20.893874980580115      38.186576898299627      1.2365824292956307
   203   1       21.09846287719585      1.6716639694198834      2.4778620219466365
   204   1      19.482045049484405      1.9741626688976346      4.0572989457538391
   205   1       19.35753819085539      3.8450438449392568     0.13100950153892654
   206   1      21.252450954768303      3.6230352912402521      1.3917230084296317
   207   1      21.135288743300336      5.7140363008439667      2.5439298503996524
   208   1      19.308232030400685       5.777650253522518      3.9665361382432365
   209   1      19.318072481798382      7.6898899195960384     0.24630984260089681
   210   1      21.395879988363337      7.5692232579016281      1.2723309180401423
   211   1      21.318227489024117      9.6069226485822448      2.3917357479452548
   212   1       19.43837658667363      9.5128144177315477       3.888864961513002
   213   1      19.236655384211513      11.535866144856621     0.21081797988117601
   214   1      20.993863633141867      11.855158994644428      1.4376887224594705
   215   1      21.178197176409988      13.590066922615986      2.9230854068048626
   216   1      19.374626887412749      13.515419794633029      4.4084671634010331
   217   1      19.234897289725033      17.262491897919855      53.034937719795785
   218   1      19.470745391995095      15.547848630542898     0.29546793892716344
   219   1      21.140557639648669      17.283323222829228      2.8213950219825259
   220   1      19.107185713911569       17.41374361922642      4.2831797104579206
   221   1      19.290935511131234      19.222705241678259      54.232316587169962
   222   1      21.009520881828582      19.084232598720764      1.4371251814498336
   223   1      21.211175951124122      21.009767659666618      2.6884778675608429
   224   1      19.185586666086806      23.124329548937386      5.2836140748349409
   225   1      19.193664417608073      23.271877519077936     0.24091044066819894
   226   1      21.299752236879741      23.027334338799218      1.3776347907064164
   227   1      21.184794483047522      24.901352761559778      2.4815380018489899
   228   1      19.244062176427807      27.021139706493493       5.189461137692799
   229   1      15.494121721972158      24.836219924535616      53.139795367386576
   230   1      20.996206603410499      27.180134658578236      0.9377052983481704
   231   1      21.274054317294208       28.91148073012867      2.4534823005954554
   232   1      19.387375573752511       28.93090843619926      3.8122782721928514
   233   1      17.761932940651331      30.802293617382311     0.92710541023090987
   234   1      17.668185524186775      28.438461548175205       52.32428381782286
   235   1       21.03899795965933      32.674495626592346      2.7393199798747463
   236   1      19.095279796603386      32.800990491114682      3.9817910759430308
   237   1      19.137773496365096      34.485697592108288      54.211064400143229
   238   1       20.88975307954826      34.609147537276606      1.2906164905167772
   239   1      20.797724442982602      36.489462064008457      2.7712529172593467
   240   1      19.032517376975541      36.379536689089335       4.013897586769529
   241   1      22.834752195244413     0.34319230869648359     0.23792877233692034
   242   1      24.626029648216825      38.311400711156324      1.7084600118685795
   243   1       24.98801354210952      2.1126901144185677      2.5406345308557872
   244   1      22.850310157885282      2.0904591035237643      4.0022809838024722
   245   1       23.00388386281611      3.9735788063494115      54.083205336869163
   246   1      25.074514182884496      3.8959094009206074      1.2106874087052228
   247   1      25.245478358579916       5.754590615730633      2.6478710309120839
   248   1      23.240800431821512      5.7101008243926055      4.1050943453581024
   249   1       23.12534697205794      7.9681764702844795      54.267673494154941
   250   1      25.252459016304947      7.7494503916562456      1.0687995526420528
   251   1       24.79992289384333      9.5573291441524546      2.6922063357043284
   252   1      22.946232005278972      9.4331869845397378      4.0661732202144423
   253   1      23.091064625585659        11.7062532757722       0.154367224797545
   254   1      25.132979244924222      11.619294210875783      1.2751939912153922
   255   1      24.901635853159618      15.398608495877976      1.6201893816448982
   256   1       23.02774734879814      13.327469491395641      4.2603078449601854
   257   1      21.354532691585998      15.327548476144329      1.4824738197179854
   258   1      23.155409287979172      15.446692594113761     0.11732033435138184
   259   1      24.980008009331232       17.32337918123843      2.9950237816837326
   260   1      22.912862628015485      17.413678478899318      4.3317476824214722
   261   1      23.200390733171496      19.293660936372351     0.10533346906337338
   262   1      24.954918816505501      19.031524338054574      1.6044047684551532
   263   1      24.881368495984301      21.118875167649968      2.5396304449869271
   264   1      23.105839764200748       21.09903767399949      4.0327608449845913
   265   1      23.318499624199877      23.014756837176922    0.092846857133770472
   266   1       25.26992982722733      23.334823741579665      1.2758906188335359
   267   1      24.851746843764758      25.067847971868531      2.8629550096386773
   268   1       22.84008294001276      24.813418462756093      4.1453694259792329
   269   1      22.951968842288093      26.715338711904653      54.037567979834627
   270   1      24.629472929497378      26.485617782264917      1.2650179483405861
   271   1      25.244531024598086      28.328974738327194      2.7587097691207543
   272   1      23.129318149529322       28.90022321473899      3.9677273631506407
   273   1      20.769793727308294      30.883725045422249      1.1607595279396055
   274   1       24.80932671342396      30.415332947169279      1.4713091135545273
   275   1      24.730070427327302      32.492975270711966      2.6081426081794095
   276   1      22.751918623020551      32.683750129709459      4.0045192231022373
   277   1      22.945538180672735      34.649670729133511    0.055264577331308802
   278   1      24.814648358355907      34.671888767018245      1.3954873485047317
   279   1      24.834435334015147      36.479625571550159       3.055479308143779
   280   1      22.765714133762362       36.58415530698548      3.9799634103986157
   281   1      26.686291134816443    0.093977111000116298     0.44323893853726321
   282   1       28.89423791478206     0.11566843399274344      1.4363775501946503
   283   1      28.820146039916938      2.0009525735746392      2.8107249402765677
   284   1      26.951415862323707       1.950831964474746      4.1305596268293376
   285   1      27.057377944114169      3.6520730416770317      54.079997905310336
   286   1      28.891952684144339      3.8294923594251893      1.3340269054859752
   287   1      29.092353276372826      5.7011592388445589      2.6698684180415371
   288   1      26.760159331870497      3.9039779691226797      5.3512489794618761
   289   1      27.184683941276763      7.4722265406443649      54.135901904197375
   290   1      28.933229562327497      7.7270363856719593      1.3918203729608303
   291   1      30.829562188598608       9.647157111139693       3.970476106366299
   292   1      28.838946515468582      9.5776200098231978      2.7401619380539617
   293   1      27.182391712239944      11.480508945286516      54.297514206966824
   294   1      28.880002791504676      11.337210226364512      1.3235483550655223
   295   1      28.645579775771854      13.538826661888093      2.6208853886876931
   296   1       24.88845216620884      13.277447902327568      2.9573719578793902
   297   1      26.745468927641099      15.207737360751342     0.41000344685365908
   298   1      29.035423722080417      15.324906585567572      1.2255776280825996
   299   1      28.793012693682094      17.156075881286373       2.554587708110978
   300   1      26.898886174795763      17.144023938566367        4.15442324539256
   301   1      26.802760049908628      19.119802144372613     0.24287058271805781
   302   1      28.976137244922313      19.153070584531314       1.320080263033333
   303   1      28.972078362609043      21.083168497914929      2.8363317428856258
   304   1      26.843915286419044      21.106533478734878      4.1548747578715375
   305   1      27.236955208891917      23.103576387214655     0.10841843047123778
   306   1      29.172931600076051      23.020956332402196      1.5430982229912169
   307   1      28.584023730730866      25.023789839472169      2.8782878133014633
   308   1      26.682634998102781      24.889085903538298      4.1573130667822422
   309   1      26.585867380709256      26.762938289729107    0.013646412575303668
   310   1       28.44354001452799      26.804842342889337       1.515966977307301
   311   1       28.78225930071984      28.880823947889965      2.6253807511656873
   312   1      26.922802760394646      28.774566093476444      4.2901557529737948
   313   1      26.778518066848207      30.522865771300836     0.19436799923911419
   314   1      28.754235638324133      30.914453940528244      1.6113216495490041
   315   1      28.412196001877092       32.94247734862617      2.9525677775044068
   316   1      26.531360622602964       32.74476348219082      4.2645464987604784
   317   1      26.693694587388848      34.552291124057682     0.12868667682718093
   318   1      28.715088905946899      34.610426820900202      1.3793586941101785
   319   1      28.641414436984736        36.5877927357662      2.8269234547035573
   320   1      26.821997678414494      36.401516913977829       4.289937707481168
   321   1      30.636350607587001      38.377679278161224      54.191975764858682
   322   1      32.589342375273056      38.318809855340874      1.2415912674533836
   323   1      32.644751708964172      1.9294044826280079      2.6132027991054452
   324   1      30.808565588669175      1.9254055892466775      3.9377083811725262
   325   1      30.763700257525731      3.9796450975202746      54.213509656151849
   326   1      32.592566548508906      5.7728482572673725      2.5027120736452853
   327   1      30.900342987553255      5.7302843843532854      4.2588889381282344
   328   1      30.645209997011875      3.7537072935289335      5.7640691808336371
   329   1      30.642231737976704      7.6914018663790493    0.072699651704442522
   330   1      32.605072314963813      7.8475526686712884      1.3924737679083141
   331   1      32.819377768452952       9.823389700356854      2.7772049427700023
   332   1      30.450159897056956      11.365980492671392      5.4700870239753954
   333   1      30.966146002122777      11.430207140962226     0.14614322698124607
   334   1      32.975474460738489      11.673928377132508      1.2680675611494618
   335   1      30.567557587467263      13.361654247561448      4.1667331751640626
   336   1      26.826100983605048      11.475556069248043      5.3091994788650467
   337   1      30.903749584804544      15.447990156492851      0.1509779452088198
   338   1        32.6273245705788      13.477881254896412      2.8382136998676857
   339   1      33.117111672196501      17.095890601486108      2.8364300414583119
   340   1      30.854994827320812      17.079959698379607      3.8093445876208651
   341   1      30.912905993358372      19.491561156485666     0.12878748819283611
   342   1      32.916367822989038      19.225479698606438      1.5414189670556968
   343   1      32.654814148343526       21.09750465020398      3.0572965587854788
   344   1       30.58258244415623      23.092780386526922      5.5928807895630621
   345   1      31.053763314191386      22.861227658351126     0.12941969025840772
   346   1      33.002355561078367      22.964060614426003      1.5948043137410886
   347   1      32.467787158955851      24.793308954010815        2.72887408452767
   348   1      30.689219008797558      24.997783968527703      4.0395237615876702
   349   1      30.538771843625522      26.796636945912422       54.23691287356332
   350   1      32.687809058601722      26.781193162036828      1.3214762423587125
   351   1      32.427562501893412      28.746455434120062      2.7107687021520515
   352   1      30.553853593882632      28.787056959341761      4.2726681795255761
   353   1      30.714472720562725      30.805890596498937      54.204072482771075
   354   1      32.481278877518363       30.69484687401917      1.2850736853439582
   355   1      32.323361767791148      32.649591137176451      2.8318576082853846
   356   1      30.508212724380332      32.591147578647131      4.2354739128325383
   357   1      30.546040885618826      34.510286902462411      54.223502911368527
   358   1       32.54285711039153      34.470520129829517      1.2850892812242833
   359   1      32.713225028315591      36.509374637529554      2.5572483616880071