dump/Si_1000_20/steps_41 (written by ASE) 

3980 	 atoms 
1  atom types
0.0      38.395898218429522  xlo xhi
0.0      38.395898217999999  ylo yhi
0.0      54.299999999999997  zlo zhi


Atoms 

     1   1     0.19755652644680796       38.25023231909843     0.32017789218109577
     2   1      2.2645340431815124      38.297863242852536      1.6466855301889844
     3   1      2.0215062013242213       1.825805194469486      2.6756963987549272
     4   1     0.20408477158052105       2.030721423403218      4.0296859078643346
     5   1     0.09136997176266172      3.7960877955657351     0.10131670855154175
     6   1      2.0820507370333781      3.7991403885486963      1.5730683823468785
     7   1       38.07192171635613       5.792203050005849      4.3013572937292901
     8   1      36.341033950136293      6.0315194991359293      2.4853930653379712
     9   1     0.13628859478848049      7.5487028674009533    0.076093085791864898
    10   1       1.654347464141247      5.7786082269624259       3.014179341467345
    11   1       1.910670926974934      9.5521780293113192      2.8133688045649827
    12   1    0.053156044418725394      9.7652643254850329      4.1904513919275344
    13   1      38.201182270149864      11.892400167575651     0.20202582869682162
    14   1      3.8608716701521222      11.431644430024235     0.21274313094525041
    15   1      1.7397952602092559      11.436480674469101      1.3606768465232697
    16   1    0.032973469055990419      13.420725377014136      4.2580824592345525
    17   1    0.058926395794838722       17.46046640637876      53.175200261229783
    18   1      1.8728376976842829      15.425212696357065      1.2892395433932264
    19   1      1.9373298117320779      17.342369851780557      2.7718565095464092
    20   1      38.307050011169196      17.418493990411385      3.8368546064187088
    21   1      38.258867947223095      19.356347998883344     0.46629659937881324
    22   1       2.053098216330103      19.100959973280993      1.3938551152175571
    23   1      2.3246010749194128      20.922793690308911      2.7799184739130611
    24   1     0.12816616385252363      21.106917781494538      3.8175834058283482
    25   1      38.285144591116541      22.972107018205993     0.16467248444054097
    26   1      1.8363672996129707      22.873787325572895      1.5081132391513059
    27   1      2.1585666286736531      24.775559944874733      2.9019547036747224
    28   1     0.16937042027974272        25.0419688533791      4.0145403061511278
    29   1     0.21517058935719724      26.900766444760016      53.975620403493821
    30   1      1.9011261974265283      26.777429702567353      1.4875731362940203
    31   1      2.0962665025223788      28.749606565872927      2.7724741515938258
    32   1       38.36392142334374      28.407150627414634      4.2452219453174367
    33   1      0.1898641296763188      30.386999267832323    0.019076380318995254
    34   1      1.9748476140446101      30.895269969565785      1.5333262496018267
    35   1      1.7521299187204125      32.975242335201038      2.4227737156447935
    36   1     0.15394976043833597      32.628031628715199      3.9403551223921807
    37   1      0.1760468060389779      36.723278116395271      52.843197423666744
    38   1     0.10602385938652811      34.762624992677551      54.183982494086884
    39   1      1.9792843295993352      34.754659573685807      1.0963280918467955
    40   1     0.22953104433419072      36.280015944739219      4.0548677625192449
    41   1      4.0170966381495621      38.322987075269488       54.29798854496503
    42   1      5.8488920848425199      38.263654367158885      1.1278503270550684
    43   1      4.1126661952914585      4.0295874079768135      5.4083048538465031
    44   1      3.9217750007878593      2.0377688906726603      4.1571227218428808
    45   1      3.9835436610675474      3.9416887766385091     0.11387538415293647
    46   1      6.0092846969062403      3.9024422007304245       1.284981037350019
    47   1      5.6081890754521027      5.6058673621022876       3.006056884546398
    48   1      3.6343724859772171      5.8675009898878194      4.1883685959136523
    49   1      1.9954745842289519        7.52047644084716      1.5289944044861621
    50   1      3.8346702789111902      7.6029082726764203     0.16800788025709626
    51   1      5.7866559015119927      7.5373832601928612      1.5873294562175602
    52   1      3.6793447708196374      9.4534805099364316      4.1946510972361812
    53   1      5.7570820050652101      11.398635906067586      1.6914623065049705
    54   1      5.7348812070530109       9.543265067196721      2.8209876717154305
    55   1      5.5577844671227368      13.469625240106733      2.7434852324878878
    56   1      1.8423846385349583      13.424064645190132      2.7316118448140534
    57   1       3.758609509743275      15.382159907324011      54.244007268569995
    58   1      5.7036108732563111      15.298837133569446      1.3889239364800232
    59   1      5.8283756982546304      17.173458250754649      2.7872560577843024
    60   1      3.6995578045894768      17.276997656350275      4.1422950010242996
    61   1      3.9756962691202435      18.947850742090861    0.085978081559312525
    62   1      5.9741704100312338       19.24055308708385      1.3945583780576172
    63   1      6.0395314767148154      21.193044934147522      2.7957311900805069
    64   1      4.1096670720515611       20.99142105925354      4.0518028270865356
    65   1      3.8454456286866074      23.010220406377069     0.28503393059233972
    66   1      5.9953624281657536      22.926384720193951      1.2533001632457637
    67   1      5.9663004686898695      24.910456369947418      2.7246423715409853
    68   1      4.0845654994296536      25.049129766930957      4.1655035225666319
    69   1      3.7147846834644676       26.61398622854545     0.17220944651867306
    70   1      5.7517976764397316      26.850673691336493      1.2995316039792193
    71   1      5.7636799380870567       28.52223676602841      2.9436756814611265
    72   1      3.7536997953713089      28.588622515734642      4.1019316520567006
    73   1      3.8597307045735434      30.325430920122905    0.069135843260732785
    74   1      6.0508526637124387      30.663988569726691      1.4063601681729436
    75   1       5.863944776347048      32.473517602957415      2.6927455207917297
    76   1      3.8119082882473756      32.761410149435299      3.9029573549336658
    77   1      4.1991353930262401      34.535641110839904    0.040879150423370425
    78   1      5.9236525926630739      34.501072858468582      1.6476590925764547
    79   1      5.8653997173655776       36.57562333873009      2.6824962551659857
    80   1      2.1078329732506647      36.367214926269234      2.9576635315047479
    81   1      7.8696573647968666       38.15947662396507      54.171160717683208
    82   1      9.4885707338781877      38.295121393178214      1.5432721226000572
    83   1      8.0052407423171559      2.1242206155940249      4.3585877778624518
    84   1      5.9925828604029192      2.0982181231254997      2.8755127926577644
    85   1      7.7776006003292322      3.8336028851813242       54.17552136058822
    86   1      9.7660343428943843      3.7632678024459345      1.4860487796932815
    87   1      9.5748944664976126      5.7057632411621571      2.8418046906743055
    88   1      7.6749558842734649      5.8404994130887289      4.2486370900017931
    89   1      7.6759283955841573      7.8496830482942315     0.10450053579318136
    90   1      9.5342328065096904      7.6379334543344077       1.293293288660075
    91   1      9.6020507629307836      9.6768675116624685      2.6922202866441665
    92   1      7.8781362312005507      9.7298807019547322      4.2456220359068766
    93   1      7.4696097043970999      11.507592785885526      0.1114638924297764
    94   1      9.5540598924633198      11.588400869793126      1.2687972459135377
    95   1       9.512450358289616      13.365986862665766      2.8386180356030191
    96   1      7.5077764885501361      13.453659452307878      4.1730129926529029
    97   1      7.7231047481228732       15.12056999370116     0.12791540016602321
    98   1      9.7313910718596066      15.278651695005861      1.5532620614033823
    99   1      9.7002246676367303      17.241559864105167      2.8427078482386712
   100   1      7.7314453337900924      17.290181647496563      4.0037158000328166
   101   1      8.0084973275861362      18.958835020386793     0.15154718113309429
   102   1      9.7254468188093579      19.114210900621039      1.6244515963648136
   103   1      9.8437660061126167      21.197292950599184      2.6129033939978621
   104   1      8.0008471998612247      21.152085380333258      4.0953539198610001
   105   1      7.8044025563196255      22.948321056830501      54.264583049205733
   106   1      9.8662200115614738      23.059647528642799      1.1888343690554979
   107   1      9.6139847728534331      24.853630494484552      2.6213206478595703
   108   1      7.9405364276810717      24.852939618443447       4.107490200291168
   109   1      7.7719896012063927      26.702125101455994    0.068033521705524194
   110   1      9.6206479880291074      26.910748563873227      1.2910151631232545
   111   1      9.6905102408602719      28.614349487668871      2.7221700631522618
   112   1      7.6740181806764163      28.689800355853279      4.2601918775173333
   113   1      7.8427739839541584      30.693943565960456      54.143722332763872
   114   1      9.7770897846422749      30.642121565165187      1.2563511398801552
   115   1      9.4597533269685936      32.309008561518141      2.7677692236242804
   116   1      7.6097701710510472      32.592503391697782      4.1290896194226567
   117   1      7.5711261974022772       34.57196353734156      54.293760422308715
   118   1      9.6543247054580821      34.500223186629469      1.5099036078116097
   119   1      9.6305433171923323      36.430336108180654      2.8481927739584165
   120   1      7.7460170545063614      36.173436191070643      4.1692020808566772
   121   1        11.4525069536777      38.099804612938996      0.2650752821227797
   122   1      13.454126183325043    0.036204348760800101      1.4658591809071029
   123   1      11.610209810674505      1.7259608270001003      4.0783000232897608
   124   1      9.7810904712887172      1.9206051137821503      2.6108112475808869
   125   1       11.64549383487547      3.8832114123013808     0.06163735295541535
   126   1       13.49375804291164      3.7906379705440116      1.5067559449814123
   127   1      13.326642789289364      5.7716377327372426      2.9404171366540006
   128   1      11.501240011344075      5.6818743373296785      4.4003330330542223
   129   1      11.374843957043208      7.7175045635435922     0.16625066030355809
   130   1      13.311146510224518      7.6451073062984927      1.4274088327601155
   131   1      13.313176744263803      9.6699941312568853      2.8090644527375503
   132   1      11.404263137339646      9.4846296160119365      4.0787111049262288
   133   1      11.411793524811102      11.518054820360593      54.217528512463481
   134   1      13.604122749451044      11.455157076510973      1.2741745223797103
   135   1      13.343086433031411      13.405907956899981      2.6274194665711552
   136   1      11.396811614911886      13.228820720576245      4.1100396759915041
   137   1       11.38202463601924      15.382395851722201      54.237077997919499
   138   1      13.513659173105253      15.362050555273003      1.3079747767668186
   139   1      13.319886092801854      17.124640541627098      2.8416117313250111
   140   1      11.733400265213984      17.035183051263992      4.2747650768089542
   141   1      11.484900026617698      19.293072222961616     0.12209318922961084
   142   1      13.205570119446611      19.196580024396454      1.4613006628880061
   143   1      13.282405881714686      21.131866543636765      2.8397786290660156
   144   1      11.422200495126253      20.978751277531703      4.2084527925881181
   145   1      11.761044144710082      23.017035583468136      54.072848420554564
   146   1      13.656316768849884      22.917058179525146      1.2945574218990614
   147   1      15.444682587320839      24.730300736665939      4.1008944530818869
   148   1      13.480995855327009      24.790503235473786      2.7724418833945963
   149   1      11.549979269572466       27.13055964097553    0.057349310808706436
   150   1      13.453355858245493      26.733085255335137      1.5045720486469456
   151   1      13.265601011169993      28.708608560466157      2.9183279959154929
   152   1      11.377863584514811      28.702754771630424      4.1262496400907231
   153   1      11.619507714338823      30.804341764848044      54.278422780123243
   154   1      13.515940018118746       30.65366906959839      1.3537938174730129
   155   1      13.335243899497609      32.599174880372964      2.4564537272068403
   156   1      11.407073044368332      32.684959996081673      4.0016433154712452
   157   1      11.534646679814623      34.586794938853814     0.29266402528493235
   158   1      13.561645047326543      34.479267921782871      1.1836221867091903
   159   1      13.547943339364956      36.540702897281442      2.6003347242957822
   160   1      11.547399756100107      36.540912794917197      4.0187170709215838
   161   1      15.348067701533594      38.303776006033651     0.12017886048062128
   162   1      17.310640286296554      38.194972542406298      1.2546625046201239
   163   1       17.55658780348584      1.6607021789481766      2.5153075159027001
   164   1      13.462782093255006      1.9533621232744627      2.7983921697010121
   165   1      15.332305482177253      3.6554812792879652    0.063005741727693007
   166   1      17.145538076825538      3.7864755578854044      1.5088979384193846
   167   1      17.144757590289061      5.9265441207854073      2.6253545086655903
   168   1      15.369945192329423      3.8168885258679093      5.5570395257431882
   169   1      15.320586673802421      7.4423153220070377      54.260660000934365
   170   1      17.163802037092399      7.7523867596511007      1.3881388045573795
   171   1      17.269680550906429      9.6294600141145743      2.7855935342081897
   172   1      15.165935824798641      9.6778225549317654      4.1729938775018445
   173   1      15.503246601632799      11.119575142838999      54.097914441403958
   174   1       17.29848777823517      11.583985865745628      1.3386612393931152
   175   1      17.162343689979924      13.493101492809014      2.8195360044089637
   176   1      15.258613227546606      13.519367785845411      3.9621203401285801
   177   1      15.399272512659229      15.279301292990096     0.13412788878681572
   178   1      17.277446213037503      15.312027295053801      1.6907440122492174
   179   1      17.408164082051812      17.349706138384157      2.9147234507227489
   180   1      15.317697606967407      17.286204278328714       4.049274695424967
   181   1      15.290798725097121      19.114144015066941     0.14702383470895458
   182   1      17.392989259480419      19.099279357375096      1.2107178913756236
   183   1      18.965320447648068      21.061251445650051      4.1448418048731153
   184   1       15.34038359528226       20.79856796364518      4.1307568196201467
   185   1      15.460901543314193      23.161594917541411      54.264411954486945
   186   1      17.239512927901046      21.001776013271186      2.5668431025233769
   187   1      19.237747726954051      24.919220029230797      4.2772203135841531
   188   1      15.491125495963715      22.864270369388173      5.2675553762623046
   189   1      21.485164024315395      29.036594642186785      51.708922759015884
   190   1      17.058199259920446      23.005261029282487       1.480104570213336
   191   1      17.404786619501621      28.970070031708502      2.8499390663130275
   192   1      15.366049618615854      28.959973550596043      4.1304024274545883
   193   1      15.320567780378594      28.826494336283471      53.146113453945176
   194   1      15.621489387026925      30.602406503651856      0.1353682709162059
   195   1      17.538234110064128      32.625557201705682      2.6276103643324951
   196   1      15.310801020712168      32.741611925900614      3.7105221820034466
   197   1      15.702419035756137      34.436523767933771      54.077585776562799
   198   1       17.13943007541712      34.574998619339205      1.6792368311440673
   199   1      17.541934255275372       36.59577610990609      3.0831554180140053
   200   1       15.36320789842507      36.463430358057359      4.0334776435800697
   201   1      19.310853992228527      38.183412131454553      54.134654744902697
   202   1      21.078176106053139    0.058330512496729686      1.4258136788877296
   203   1      21.160259482200125      1.9791964851697164      2.6565769541823876
   204   1      19.204849128933201      1.8798531051595138      4.1685241112521343
   205   1       19.14189785118143      3.9242823770092174       54.27023470118263
   206   1      21.100436998602309      4.0149883725085616      1.3404005299861645
   207   1      20.737320184060437      5.9470322107945686      2.5177946946361094
   208   1      18.804046831373569      6.0494575251243505      4.2450306920726435
   209   1      19.145891140292008      7.9447059702623131    0.034707944681849769
   210   1      21.162174861227403      7.7490558075170277      1.2518219122343435
   211   1      21.123967054149336      9.6132203847199413      2.6198896887280649
   212   1      19.291211562947197      9.8156202873494198      4.1005951803276162
   213   1      18.984968045828676      9.7687635045651913      52.916327085021386
   214   1      19.246676827773143      11.599451099732615     0.10391213128884824
   215   1      21.286920058376783      11.491783469970906      1.2222308824884638
   216   1      21.173483325898808      13.380028883707263      2.6742778386713559
   217   1      19.394502261813308      17.265572811816821      53.055866508637685
   218   1      19.187964984862358      15.371821549089962     0.14767495782180071
   219   1      21.268724649171073      17.335530545632576        2.73675350944186
   220   1      19.443006854855952      17.321269885686345      4.2037742705293235
   221   1      19.513791189622474      19.222261940599999   0.0087193752184248526
   222   1      21.434768133731403      19.236306352328352       1.384842761817515
   223   1      20.891117036742873      21.090869133159305      2.6770088821261755
   224   1      19.161407226188278      22.933115069800255      5.6953582944658159
   225   1      19.139291871079966       23.00258078007688     0.28182684014576603
   226   1      21.050960639936019      23.164285358205298      1.5031198052517196
   227   1      21.102823175100852      25.016392023826089      3.0051161424517074
   228   1      19.252889374261873      27.146204349635852      5.6410568615079839
   229   1       15.50604220947916      25.176439761007877      52.924162132924273
   230   1      21.058496983257182      26.924069786283582      1.6025740514077031
   231   1      21.085154181393271      29.217023526312126      2.5446552439102321
   232   1      19.154576537863921      28.757080123227365      4.1771050913585794
   233   1      17.637199104905328      30.833024800573298      1.2435694550556171
   234   1      17.238347540139831      28.960006796805718      51.628341640282642
   235   1      22.695199917739238      32.408647714431964       53.04313036186668
   236   1      19.210637814274662       32.49679278096405      4.1203786900490167
   237   1      19.025398251722329      34.308845033581129     0.27416749316232636
   238   1      24.890236630899196      30.464806115010703     0.74990583863298044
   239   1      21.187445266432412      36.578031758192104      2.7078456102399397
   240   1      19.510682611166612      36.522425523731179      4.4531907226314162
   241   1      23.128280821053604      38.201539244038862    0.043883792695999103
   242   1      25.105730312159405      38.223653222957054      1.3409440334705993
   243   1      24.787256287344718      1.8243022007373655      2.6719712807798381
   244   1      22.908599153440854      1.7970730293897537      4.2107419119992864
   245   1      23.017020243246726      3.7715087951258761      54.208105482218812
   246   1      24.642574889443086      3.9531182716011508      1.5432002613535114
   247   1      24.888954455880221      5.8108849959010733      2.7673158657364754
   248   1      22.857594058344702       6.131433245648898      3.8210187620294156
   249   1      23.027033857096253      7.7784848097999379      54.282539722424318
   250   1      24.997919971424366      7.5766284355778071      1.2892729094273367
   251   1      25.161905900161091      9.3938190571250431      2.5055196356521008
   252   1      23.156777166952946      9.8834681284357799      3.6801477634415511
   253   1      23.272100556849079      11.323448370402314    0.078740575425024661
   254   1      25.071445454737209      11.378072602890489      1.3175255099794623
   255   1      24.978122130085275       15.25999848749046      1.3198709427596205
   256   1      22.974008094671753      13.485556081922782      4.0598337203599835
   257   1      21.220923035650028      15.398428846897126      1.4042106873898663
   258   1      23.111793491460961      15.466704370529785      54.297775240467857
   259   1      25.496696006059462      17.189020270152326      2.8007296779565518
   260   1      23.397941943095418      17.340773272864471      3.9546210445299392
   261   1      23.278928854530196      19.192394083437694    0.044683224245250147
   262   1      25.058567083414683      19.247585396942675      1.5967987231486043
   263   1      25.114004888838668       21.09248766248929      3.0503705396958365
   264   1       22.99388796305168      21.175171968307854      4.2002725237056433
   265   1      22.944713605338148      23.069136466965549     0.27027658694711354
   266   1      24.795125883126644        23.0632156893715      1.3757118052548085
   267   1      24.992490415376793      24.874903974845186      2.7581433806445346
   268   1      23.039370563336451      24.972398246862305      4.1228998910457095
   269   1      22.906020716604992      26.935690005920971     0.24148227229145514
   270   1      24.880886595969269      26.956515649807848      1.4194214766872184
   271   1      25.013605907545774      29.030810998226745      2.6226839237692712
   272   1      23.119548952168174      28.962785968849644      3.9714624664851725
   273   1      19.506778092674022      30.577056278291604     0.08885966575203369
   274   1      25.103529621952532      32.233613603774721      2.4526884757150151
   275   1      23.077464541115603      32.392814486633284      3.7468494523890481
   276   1       21.05535718366578      32.374743245957006      2.5052238554818342
   277   1      20.942468068287319      34.556218852284779       1.619400407611931
   278   1      24.846736884498473      34.285040497993435       1.203033181702053
   279   1      25.121049757956456      36.299815941551095      2.5434354751478758
   280   1      23.289557346899695      36.428874889608331      3.8139997478332361
   281   1      26.893096260043368     0.34403138318769871     0.12707463025899401
   282   1      29.066848629546012      38.317332464978769      1.2990649406208727
   283   1      28.595931024274755      1.7647164632210661       2.756298459093248
   284   1      26.667549455265011      1.7172227985367319      4.0365120005652528
   285   1      26.569499784442648      3.9964309670977594     0.16966938543500856
   286   1      28.621161359789607      3.7336455040684662      1.3632398394347445
   287   1      28.577707891947917      5.6226591978704592      2.9698177767480756
   288   1      27.143883692113818      3.6905358776505555      5.3174820371057629
   289   1      26.953047773966865      7.7271715132026486      0.1311291150561146
   290   1      28.975102597207968      7.6266737677442631      1.5275241098900865
   291   1      30.482875907658904       9.411321935088381      3.9973395802534246
   292   1      28.507547399525365      9.4602196618882957      2.7344949753428081
   293   1      26.839078359079107       11.47548969318939     0.10035233508255055
   294   1      28.577141751625039      11.618776980988507      1.5656227434887999
   295   1      28.700923268025313      13.731456253984117      2.6996090194386073
   296   1      24.987606841163139      13.370946714780146      2.6158491705568752
   297   1      26.923333266234874      15.452290273750396    0.022037030858700773
   298   1      28.747306200713805      15.398650063398255       1.293719997394714
   299   1       29.28622683124944      17.475720843714097      2.7880146301700597
   300   1      27.293720704397117      17.493637421590364      4.2920129152490718
   301   1      26.987188182946749      19.193086728303612    0.097073633422360264
   302   1      28.884339605419758      19.249284135739106      1.3626707301844365
   303   1      28.940338413508385      21.053937128601323      2.9605001558285036
   304   1      27.009914737548289      21.351300710831499      4.0771481137840384
   305   1       26.70168833853478      23.273453246286582     0.29611084271444976
   306   1      28.523955570725949      23.009750233282116      1.4942028752524823
   307   1      28.978851752758981      25.145817765491003      2.6759153662204436
   308   1      26.923941323090261      25.131858955669948      4.1016084353730751
   309   1       26.92782371646857      26.832985085725916    0.068907053371094859
   310   1      28.792008667590629      26.891991547789178      1.2821848393561723
   311   1      28.726701920824869      28.783562978210657      2.4946171818130094
   312   1       26.99613237390578      28.792807828074185      4.1232474466012015
   313   1       27.01759812260083       31.02940254699983     0.00946213255073192
   314   1      28.847770882927161      30.800399252313589      1.3877920649378011
   315   1      29.000162620887494      32.704324053138166      2.6464376004344468
   316   1      26.901192231369329      32.427910632964853      3.9919925752109036
   317   1      26.957839269295039      34.614422519262355      54.257717592319452
   318   1      29.025954863770583      34.614922908483479      1.3093927210494734
   319   1      29.079326189038067      36.373353435270715       2.757557307039975
   320   1      27.153846038906241      36.329941177041505      3.8837653024172258
   321   1      30.789598733851921    0.041566831301389502      54.190747988903361
   322   1      32.565671702879634       38.23993380219391      1.4550299314845594
   323   1      32.644100202214119      1.8050818460912721      2.9851971913626345
   324   1      30.503966988544914      2.0484692707919399      4.1175508623063157
   325   1      30.654013305066819      3.9218337230829703     0.22755727475295065
   326   1      32.358429800446963      5.5201716000372736      2.6083310396010781
   327   1      30.564114638214313      5.4621961800434198      4.3105857460653274
   328   1      31.077714431306042      3.7200584320473604      5.6039789526630379
   329   1      30.723727991131415      7.5798274969001946    0.038466352760747197
   330   1      32.508612318944763      7.5422110021620252      1.4277996281471674
   331   1       32.46661808367341      9.3752236638577209      2.7132217680860879
   332   1       30.67324779769201      11.529041037467342      5.3478781910129314
   333   1      30.576856457859012      11.450613709903369     0.25860950771291302
   334   1      32.599222098768358       11.76144437835074      1.6100958953737876
   335   1      30.627057803115566      13.768562501397488      4.0465957578003424
   336   1      27.017736077455762      11.704223462302409      5.3403135031887254
   337   1      30.682853788845797      15.589261525083975     0.14714118547227586
   338   1      32.604152964189403      13.801738915593267      2.9913932066574724
   339   1      33.097497197539802      17.155836254199123      2.9398568004031378
   340   1       31.12466889717729      17.364857893073783      4.2312550993176838
   341   1      30.814690816387998      19.042855106831404     0.32657773756902769
   342   1      32.870951137261891      19.051563329480057      1.6982687210038663
   343   1      32.814211305563767       21.07512126999378      2.8705646231138315
   344   1      30.925322138880965      23.111854605878236      5.3763508704464797
   345   1       30.60070733120995      23.053787384095987     0.31440044523816352
   346   1      32.659487413536176      22.932891529865493      1.4012068781590743
   347   1      32.608518489311521      24.941790975366274      2.6981763435600117
   348   1      30.819766342701225      25.073199644009019       4.105051634334794
   349   1      30.711707987908358      26.929746051854508       54.21525418255591
   350   1      32.656044017413976      26.729643266672298      1.2451497715358324
   351   1      32.599913408378228      28.455018271189928       2.659115397388859
   352   1      30.476856476924642      28.785666607904616       4.135978484235169
   353   1      30.777757471003682       30.63502531877575     0.01848791778662642
   354   1      32.542552429205578      30.537942504865452      1.5891865954791671
   355   1      32.740596783807405       32.35092283820714      2.8806565237318282
   356   1      30.735406860149528      32.508708568571961      4.1677386211421803
   357   1       31.02132157716073       34.59523209859055    0.041307508827162553
   358   1      32.815948616355577      34.399887826480501      1.6967242233657862
   359   1      32.800380895707299      36.385465568162815      2.8265116119861866