dump/Si_1000_20/steps_51 (written by ASE) 

3980 	 atoms 
1  atom types
0.0      38.395898218429522  xlo xhi
0.0      38.395898217999999  ylo yhi
0.0      54.299999999999997  zlo zhi


Atoms 

     1   1      38.338140888942476      38.393780472143987   0.0020230454653187755
     2   1       2.084868596516662     0.13435326238721479      1.3201687656649037
     3   1      2.0873721748627423      1.7591705717176176      2.9007074943926017
     4   1    0.071506106279929829      1.8710243512473832      4.0469115104179902
     5   1     0.40638059340929206      3.8113009000664735      54.203098803676262
     6   1      1.8859521658738567      3.6176500680352963      1.5771079170910181
     7   1    0.011645374398822643      5.7466856697089046       4.068676591140318
     8   1      36.640935222971763      5.8854048318056327      2.3945628171504145
     9   1    0.023298293804317496       7.413442648230852     0.11891476384868167
    10   1      1.9380725323297554      5.8794361804411999      2.6658117187217303
    11   1      1.8089691704208304      9.5588019613063011      2.6771233690701233
    12   1       38.19714584494573      9.6283583981884497      3.9498100256497164
    13   1      38.310647167819177      11.383779402581334    0.027958685760972886
    14   1      3.9310865813577833      11.716250574173953    0.013300446636117149
    15   1       1.763259129283032      11.391576982811641      1.3371367238881615
    16   1      38.373848333347105      13.347934732935373      4.0000824100727161
    17   1      38.215456568645635      17.286474813263329      52.834387780424876
    18   1      1.7912510948947917      15.222541997772554      1.4400209355332874
    19   1      1.7572691749767779      17.379660772169895      2.7004895204749788
    20   1      38.238558176383954      17.425777897558099      4.1426520312246087
    21   1      38.280886199496585      19.231880034326206     0.14511050960422855
    22   1      1.9785512655203201      19.340398065502509      1.2759273045898314
    23   1      2.1399931581102956      21.140009553198876      2.7539554903995502
    24   1      38.280375596635871       21.14264119422646      3.6752518917203578
    25   1     0.25413740257083917      23.098094199625212      54.201101184503507
    26   1      1.8839948365281411      23.135398038251232      1.3909772211696136
    27   1      1.9121913150697936      25.231709075601202      2.8307729587054626
    28   1     0.16094179052315719      24.992308648746416      4.1732169464815225
    29   1      38.365413489439874      27.245966349385199      0.1884192462380497
    30   1      1.9270599067675722      27.165442463528432      1.2923451525528196
    31   1      2.0506036714096738      28.910672541964875      2.8068786521204965
    32   1     0.13694271212644044      28.796422729622538       4.182189774294935
    33   1     0.33877639767056683      30.917483223741474     0.38997792966603118
    34   1      2.2028683710440284       30.83304558877715      1.6545194445234546
    35   1      1.6721288604819324      32.848897677811934       2.892332834022739
    36   1      38.253908987496096      32.952298937273561      4.1668791895299817
    37   1    0.090022747839464956      36.394486858068859      52.782062542775428
    38   1    0.039475889096200499      34.481456271091012      54.266273605934522
    39   1      1.8995859322656128      34.414467304046362      1.2681377256500681
    40   1      38.296917847284995       36.35683383132065      4.0235992397048808
    41   1      4.0005565053091026     0.30447289695491014      54.207138636635122
    42   1      5.8340562073437736     0.27417822488138127      1.3499344510631976
    43   1      3.8854852627306946      4.0933693167640017      5.5309493616591121
    44   1      3.8812528586386543      2.1389239968448308      4.0825903101707812
    45   1      3.7935668860712495      3.9530764780904848     0.15260692077737315
    46   1      5.7802249136004216      4.0083643131091575      1.4927738130698107
    47   1      5.7837410806386931      5.9470954771326801      2.8832013382684654
    48   1      3.7091968283245449      6.0158232118632702      4.0826285089340333
    49   1      1.7847601881549766      7.7013453527696107      1.3695420238546356
    50   1      3.7332867007502402      7.7308329002160843   0.0094522527097183392
    51   1      5.5703405425546197      7.8146532348460465      1.5555331068654823
    52   1      3.7449876061923173      9.7537211317227985       4.069381488006651
    53   1      5.9072893053999866      11.741631546348408      1.2219163846715326
    54   1      5.7974232687048319      9.8276271187840205        2.73731084756314
    55   1      5.9102891229801742      13.602800809086654      2.6931354400171839
    56   1      1.9234129820648538      13.384926733195524      2.7349163855930674
    57   1      3.5634545215276421      15.217123297993714    0.082053667301806632
    58   1      5.6298261626253723      15.454063445757217      1.3305951380226033
    59   1      5.7051856196120694      17.437277914821127      2.7907069990749478
    60   1      3.6993780361661832      17.829928422538565       4.042149716380937
    61   1      3.8526766964293988      19.270120290405057      54.181280425190842
    62   1      5.7669843986061204      19.444093676994434      1.4830686869713292
    63   1      5.8024448008333795       21.34107764742031       2.708302640777684
    64   1      3.8935617290593125      21.455060709071319       4.077796728196744
    65   1      3.9594965097118715      23.281897912791631     0.11593968942212292
    66   1      5.9778043331455422       23.17044549884119      1.2798588263680832
    67   1      5.9448602967529878      25.086464888083462      2.7394535933963291
    68   1      3.9019017531859062      24.971478043080289      4.0179300468405001
    69   1      4.0085717611346414      26.820813330771809    0.029553441110385863
    70   1      5.9661038516733464      27.042882381523139      1.4803765864893197
    71   1      6.0007389877570771      28.989189490461168      2.7765600467753089
    72   1      4.0881334232334261      29.065149927855195      4.0227039161105269
    73   1      4.2242538677663575       30.71054933390409    0.095014572492459454
    74   1      6.1462062781940494      30.864618854416136      1.4599595666578222
    75   1      5.4403004621444682      32.845723077429966      2.7191248778146004
    76   1      3.6671225274825225      32.805212347363451      4.1605800151601082
    77   1      3.8891591314613043      34.510802764294198      54.272642877819671
    78   1      5.8208403558047586      34.536615394742498       1.206186757570574
    79   1      5.9175762488399499      36.455047023789476        2.69889168265779
    80   1       1.710729242143042      36.553727539339178      2.4945289626607408
    81   1      8.0721088595553372    0.042946390737357072      54.285583844064867
    82   1      10.076282724805655      0.3305479030250949      1.6041959854654915
    83   1      7.8392633675220749      2.0142779996235114      4.3892452635594488
    84   1      6.1192474841916527      2.0709043137126577      2.8052024229458419
    85   1      7.6542498348670236      3.9799870003553166     0.19197748964497799
    86   1      9.5343007808833065      4.0544527412280607      1.5942854735854879
    87   1       9.677995989988089      5.6487869501234176       3.347950984571388
    88   1       7.535807828136698      5.8483695770068422       4.626991029392296
    89   1      7.4809638475779048      7.9193961622163069    0.019138851931791129
    90   1        9.48842232912871      7.1926799187888193      1.5820328885942669
    91   1      9.7759514264781888      9.2512150590227975      2.7303818890818654
    92   1      7.6088661547884193      9.5299552179711782      3.9016929138559475
    93   1      7.7926056474192427      11.500147918549903      54.167908359658568
    94   1      9.5900108920659175      11.284651202904543      1.4342712737102274
    95   1      9.5424887354988766      13.205113478179198      2.7084801056599077
    96   1      7.7845696150795938      13.400904796687101      4.2164952702267433
    97   1      7.7890344915060048      15.521156054649616     0.07995271454395847
    98   1      9.6025243202199757       15.27339375072725      1.5104695005061697
    99   1      9.5610314401288896       17.20395116895115      2.6260245356765708
   100   1      7.7121192015184592      17.382624275231578      4.0779191745438625
   101   1      7.5679760383701016      19.275674485365826    0.087753899189635845
   102   1      9.6775106301533391      19.146891054446844      1.4118883676274412
   103   1      9.8390740047229706      21.252190017146322       2.574345807923478
   104   1      7.7054567655059074      21.095566962217205      3.8763200217402836
   105   1      7.7494733946062677      23.192230895150384       54.10547255598204
   106   1      9.6824200988046467       23.11634422092266      1.0655363341766841
   107   1      9.5676344215555496      25.073921783579618      2.3997286505415207
   108   1      7.8656218489517009      24.960790054403308      4.3071961876395424
   109   1      7.5645489148039768      26.951152760548315    0.041576859869292077
   110   1      9.5351149957119965      27.180238390530519      1.3052915339064159
   111   1      9.5694831301761454       28.94420709114398      2.7861332626479003
   112   1      7.7458232071030091      28.681433993100079      4.4490820455752109
   113   1      7.9837013089841387      31.002769201928242      54.093643480584298
   114   1      9.7205650074053356      30.822072798843742      1.3372271651191103
   115   1      9.4148268472935879      32.436953311233424      2.7554876271894262
   116   1      7.3005040477066787      32.751331398371107      4.0578923428051654
   117   1      7.8497122209461434      34.887735800969054     0.16814347613984648
   118   1      9.6476824328583106      34.497631418879607      1.5245242525722433
   119   1      9.8351699970877302      36.624855367554851      2.9587099074775982
   120   1      7.7613287375215005      36.500294174731209      4.0818070462878948
   121   1       11.81765064994301     0.14564042722468837    0.020901777251185642
   122   1      13.745067528008445    0.011974057769688106      1.5377761242791959
   123   1      11.680951763168881      1.7771211423156601       4.276616878651839
   124   1      9.6223409952332712      2.2013110410483425      3.0617300013059308
   125   1       11.44580215346895      3.8296882033897761    0.030269010653546508
   126   1      13.609292032344211       3.779804856117035      1.2097934755490332
   127   1      13.425893107213819      5.5270132846672366      2.7017845747738303
   128   1      11.831061101050276      5.6289588202325369      4.2508913157043953
   129   1      11.475239302170364      7.3223608999268404     0.21865878303859726
   130   1       13.39596485411224      7.4383928056362816      1.4572042400380476
   131   1      13.309966098232143      9.6327135523677025      2.6933532686701507
   132   1      11.427188151107625      9.4746062260616988      4.4052391893187623
   133   1      11.383748068477516      11.620312161007815    0.084035532282643724
   134   1      13.331156815254458       11.55933221821814      1.3004735687061053
   135   1      13.431354221684513      13.503450465375604      2.7662646069822139
   136   1      11.408677099972785      13.554009260633372      3.8468765955692015
   137   1      11.428698293459677      15.470497277268299      54.230528317041099
   138   1      13.323159215362013      15.286251993143019      1.3325502306579879
   139   1      13.432107201002456      17.413934774200456      2.5389160484558131
   140   1      11.520155838613348      17.539931148275741        3.80393135498365
   141   1      11.635760558937358      19.402216083273984    0.095753388356865629
   142   1       13.71509813055761      19.281245617339465       1.347803233554919
   143   1      13.578918255983785      21.376789574138122      2.6058259477056467
   144   1      11.802069660666456        21.2755470194476      4.1068537509684706
   145   1      11.829941369824523      23.077323134271346      54.298065866973815
   146   1      13.679135811011447      23.327672324150537      1.3709746134875205
   147   1      15.329139546705344      24.904091240894758      4.0647451363227241
   148   1      13.582366151297281      25.249750840604683      2.7587244991116688
   149   1      11.587026376063944       27.02626500698365      54.213238570185652
   150   1      13.654889592054372      27.189010452398488       1.090924493320383
   151   1      13.434598662344943      28.899551361634455      2.7018540007689102
   152   1      11.608291616047682      28.921226038758213       3.993326055792294
   153   1      11.652531275984602      30.717583507921674     0.19195023209872492
   154   1      13.586930353251969       30.55128228935736       1.334449954182513
   155   1      13.131179427154571      32.297295957118997      2.7836489577529595
   156   1      11.312981943755304      32.526621688688877      4.1904414262852789
   157   1      11.583210473354582      34.482455372231641     0.15543876671462178
   158   1      13.567615920963272      34.493011437441609      1.4277905533216892
   159   1      13.427086376929402      36.471244186992806      2.8910045761621053
   160   1      11.628290248751938      36.758321126945056      4.4230772158289717
   161   1      15.439588320484807     0.14481259108006217     0.10403521289480298
   162   1        17.3299981276312     0.21340749255468325      1.3800805965862319
   163   1       17.28134124643363      1.9480287398069864      2.8425640671125754
   164   1      13.545029779850777      2.1446451287924058      2.8316274645152499
   165   1      15.584714661897786      3.8508394308271519  0.00063804311826061021
   166   1      17.400554547463376       3.605129163236696      1.2215907055003052
   167   1      17.062945594192254      5.6454320326414882      2.6115119793306212
   168   1      15.577255263330605      3.7127663473112218       5.464869213212121
   169   1      15.168770080457902      7.7724976666933197    0.041102064110145865
   170   1      17.195650373236475      7.7150731144514282      1.3895297703530678
   171   1      17.029449353582503       9.403974104672276      2.9108818833634462
   172   1      15.135645266210728      9.2968611014746738      4.1783338672511636
   173   1      15.180580567555648      11.408476445382874      54.115487042255673
   174   1      17.220579268055818      11.236283031979452      1.1043183274436748
   175   1      17.271259816358349      13.067508135188167      2.5804066273647908
   176   1      15.537958917374466      13.260371090174862      3.9914491394587692
   177   1      15.329103818713397      15.294012262724028   0.0092318304936952721
   178   1      17.135293288593513      15.108655029575297      1.2534299794250381
   179   1      17.321566849135671      17.089628633551765      2.5410038810068833
   180   1      15.474110013869854      17.256418426604284      3.9511138210696335
   181   1      15.496881633381898      19.271572142965447      54.090506411509708
   182   1      17.401521132126934      19.023571682914401     0.96328611701524314
   183   1      19.433227905375908      20.993942625459891      4.0661130905823031
   184   1      15.504139609341207      21.155921654540077      3.9830985329875594
   185   1      15.328608497723463      22.923398412357532      54.107962102250049
   186   1      17.488562553971239      20.833659889349224      2.6050597598007368
   187   1      19.455281076601313        24.9134107354189      3.9563033869643283
   188   1       15.32944511474601      22.953900719225263      5.5059024916048251
   189   1      23.054031990405822      30.348480048929765      54.281395692027026
   190   1          17.36659691977      22.794423193868656      1.3081661514568856
   191   1      17.578659020400526      28.869895362360189      2.8635265595852042
   192   1      15.408870842729396      28.591428855583729       4.112950265608994
   193   1      15.576532343636588      28.679389000154078      52.975242449960533
   194   1      15.810814105557675      30.700952574395632     0.16189114238931113
   195   1      17.170514042702408      32.887272836696965      2.7088000445249931
   196   1      15.055047399359152      32.446803238037013      4.1159956651750438
   197   1      15.423909794051726      34.555995630413612     0.15110869199111243
   198   1      17.229071021424577      34.668460702810684      1.4526174535872765
   199   1       17.31925005944187      36.506083710910772      2.7430392221408288
   200   1      15.374846164782022      36.175168492298333      4.0160293355368228
   201   1      19.172512283402199    0.070479346734460019      54.050635114533442
   202   1      21.049379503188355      38.368597318464651      1.2253812576601713
   203   1      21.374443826153762      1.9015738504615198      2.5722430193561201
   204   1       19.23869913175287      1.9465618272040948       4.102161099490413
   205   1      19.278065031020873      3.9396981676508056      54.191962431500727
   206   1      21.159824766870745      3.8153019481438024      1.1749720737480185
   207   1      21.198668332885529      5.5675572877364621      2.8321598783111628
   208   1      19.081502172058471      5.6746179730731372      3.9608557919829623
   209   1      19.369359278068558      7.9505505849674671      54.120063924978247
   210   1      21.230697504272268      7.5549545967512719      1.3888116098087246
   211   1      20.909672218126882      9.2103633722147542      3.0740568982158041
   212   1      18.961257276249267      9.5976024243604172      4.1157969510990267
   213   1      19.223404208701854      9.7174518845055662      52.663562583697548
   214   1      19.435193451714884      11.370410211634113      54.193721017458927
   215   1      21.099786264899837      11.320495917302249      1.4126718181260249
   216   1       21.24730010280701       13.42987331990745      2.6507659035743716
   217   1      19.341345135633443      17.057222158381027      52.549492635896065
   218   1      19.099206994290864      15.255092104490597      54.106219068243725
   219   1      21.105865289842296      17.199382800343521       2.592409611550921
   220   1      19.392972584440702      17.142123558771353      4.0246303782625086
   221   1       19.41723896483321      19.057452702503621      54.101645260278595
   222   1      21.316895454586323      19.009094388429496      1.2468069713606726
   223   1      21.472616986176639      20.929040550066688        2.77793447524135
   224   1      19.077294303729207      22.896084855850358      5.3573096472339552
   225   1      19.350760489824953      23.166743490104192    0.031035112275708359
   226   1      21.284919630405387       22.94518036616774      1.3671962730252871
   227   1      21.221307248383717      24.998150045458853      2.4176650774759629
   228   1      19.246185998933584      26.896257685258767      5.2248534684415846
   229   1      15.637666528731714      24.918884452092378      52.964327569411424
   230   1      23.280015112643611      25.380221314056264      52.965928375717603
   231   1      20.966855979282407      28.447726183900194      2.1971942254584982
   232   1      19.417261765164238      28.920039795339157      4.0975705949241172
   233   1      17.738705554966245      30.767236733894286      1.5117412501223841
   234   1      17.628434935489107      28.696601784957338       51.58297479830177
   235   1      22.891977575122958      32.241210639831571       53.04434582339622
   236   1      19.277393580972966      32.819459913800799      3.9796337741042618
   237   1      19.268431746630508       34.52678852107956    0.098783254651141406
   238   1      25.036682667400846      30.533864960492249      1.3960979002422733
   239   1      20.921726821821384      36.463542717471483      2.6820685589608524
   240   1      19.190873942369503       36.50525537919539       4.214359561410232
   241   1      23.200592319339979    0.038189069841724071      54.298630428048426
   242   1      24.955133058441064     0.04155965526421844      1.5348208784460433
   243   1      24.829959608762611        1.80522366329002      2.9616725810721718
   244   1       22.94728467893048      1.6540114001830639      4.2219357964061119
   245   1      23.195530734139211      3.9988811050604109    0.044167588928678482
   246   1      24.886928186939421      3.9248036830913589      1.6108966636667457
   247   1       24.84568929298975      5.8789407584950455      3.1685432464315801
   248   1      22.842970017842564      5.6682607279778079       4.472135516582691
   249   1      23.032896887503494      7.6173372283759555      54.293026160015394
   250   1      24.947923008825441      7.4985881645282344      1.5989911070154421
   251   1      24.910767731490015       9.508301043983499      2.6856730487306444
   252   1      23.058844397601344      9.6173437202179777      4.4367157352086197
   253   1      23.234854920834326      11.196042371601227      0.1786333623247289
   254   1      25.019736814270473      11.462870723483931      1.5338265734248364
   255   1      24.944751614929746      15.329315691437152      1.3393008586577693
   256   1      23.146585238239354      13.540274373977418      4.2055069551305317
   257   1      21.096194261155379      15.262970016833815      1.2069730666783496
   258   1      23.145970746550912      15.324059725927594      54.251426517657144
   259   1      25.024086191918698      17.276721422181872      2.6657665774348978
   260   1       23.00837665304033      17.229004485968932      3.8515918145762935
   261   1      23.265942158236104      19.398512061052202      54.255512834464767
   262   1      24.920961604160908      19.269697493650177       1.451888405088267
   263   1      24.884277644460543      21.208964882997417      2.7861897486317733
   264   1      23.124563983646574      21.309462317324009      4.3385583327385699
   265   1      23.207690369889811      23.396194726773192     0.14940858411926006
   266   1      25.165603493652277      23.175784198364511      1.5930376325570814
   267   1       25.03466477852502      25.189988464596151       2.662931880160476
   268   1      23.059488586042242      25.232110157692947      3.8501302938624349
   269   1      23.215065124455247      28.444898537612907      53.005624985465552
   270   1      24.304905000190537      26.658830046998787     0.49347207251294073
   271   1      24.801640406062408      28.440407103278673      2.4135879684860497
   272   1      22.865779111507759      28.688139022332912       3.654152583936674
   273   1      19.367440467594797        30.6905881323176      54.190971084714832
   274   1      25.097496840739879      32.631295749330796      2.5608961458171957
   275   1      23.151891289564105      32.578548872215045      3.9468085658074186
   276   1      21.227446734204868      32.491030622023189      2.6265866137253515
   277   1      21.250829894291002      34.185693562589464      1.3311809160113603
   278   1      24.603837911903071      34.570101427943435      1.5349021185109002
   279   1       25.05602497331088      36.530883045405844      2.9003729862125285
   280   1      22.981357800015484      36.093567590873064      3.9886060084328512
   281   1      26.996852653970844    0.054060675056635268     0.16098381543032486
   282   1      28.871733886781605       38.02482350731767      1.6859912614432371
   283   1      28.585455447771487      1.6411170677856368      2.7897517245809791
   284   1      26.750244816044187      1.6815717037274009      4.3988722582228519
   285   1      26.933626770545995      4.0044297742524577     0.30730019213768878
   286   1      28.710640201500141      3.9478229076590803      1.8177524405754868
   287   1      28.577260700327244      5.8978763535540351       2.977488098147957
   288   1       26.86314489016225      3.6459345317937739      5.6824215188757234
   289   1      26.651622929091655      7.5767683982515912      54.205667532029402
   290   1      28.704692310869842      7.5779483866582131      1.3936422233182471
   291   1      30.479967372467254      9.4851129924637085      4.1010262754199962
   292   1      28.487059314548947      9.4682316861412108      2.7017462204213665
   293   1      26.768197907675781        11.5741524177408      54.177030065481333
   294   1       28.76633808143993      11.651187814636922      1.2736238842062995
   295   1      28.701332268266288      13.528315322301887      2.7260594395015207
   296   1      25.049291272894571      13.372966414132591      2.7535407407245174
   297   1      26.963907100633296      15.389633763928433     0.12558932355080954
   298   1      28.962095829770732      15.542614041260894      1.4862156808061848
   299   1      28.838880335481811      17.483912911968318      2.9839348331024866
   300   1      26.866308851692899       17.23314931607629      4.2391776292285019
   301   1       26.93542437164113        19.3220781206753     0.12015307884041712
   302   1      28.812652043981949      19.424007267227829      1.3571855945390121
   303   1      28.957215807122637      21.237080694320831      2.6859609169449183
   304   1      26.879674148601381      21.075056281153397      3.8706122559305967
   305   1      26.703843634003594      22.998921505317487      54.167547639112861
   306   1      28.746058147196056      23.099532380020502     0.96743723723981279
   307   1      28.809163712239378      25.058278159578848      2.4944435603868649
   308   1      27.095429963957745      25.161967578112769      3.9732750394930925
   309   1      26.763999549280445      26.920664516501024      54.010978660186211
   310   1       28.70857569040033      27.011326264150789      1.1091696034094762
   311   1       28.65317925646837      28.879179019598762      2.5549987188791636
   312   1      26.820158568976861       28.94150584045099      4.1371997016983073
   313   1      26.921059901270876      30.631571956138039      54.170162624249215
   314   1      28.820338651291912      30.685355250906028      1.2927934546986288
   315   1      28.835074267601414      32.722409680080702      2.6138677521449867
   316   1      26.897836238027885      32.735073875214781      3.9739683570130522
   317   1      26.593840817649784      34.450955007863911      54.253667785415388
   318   1      28.696188410273514      34.485763068622887       1.053364530464614
   319   1      29.055684165845349      36.044130544699605      2.7239443324464312
   320   1      26.938657445171167       36.08478285750622      4.0934380774568702
   321   1      30.625171059146027       38.29534683568906      54.255260905392774
   322   1      32.717559345284009     0.10613903980742936      1.3235573340644895
   323   1      32.864391709641254        1.94594292885594      2.6939493504255903
   324   1      30.818563599845202      2.0232366580309611      3.9359662377669129
   325   1      30.643787543909482       3.811608349193782     0.17646610891241632
   326   1      32.592797478192153      5.7203446812937626       3.034429832762962
   327   1      30.429515008173112      5.8637997086222748      4.3503172439381954
   328   1      30.717220931535522      3.8346143128463672      5.3833592435602444
   329   1      30.555014088409877      7.5571356362185504     0.10449078846597774
   330   1      32.497471398359416       7.461576750514598      1.4956598329811419
   331   1      32.389713873474264       9.555680750807797      2.6350145627713548
   332   1      30.418811608014273      11.304004857262079      5.5328253215239407
   333   1      30.872862356461994      11.523156740239656     0.17321368188997871
   334   1       32.88007692671146      11.670672537376024      1.6175346490510971
   335   1      30.711788909970032      13.670590117703126      3.9738936545842427
   336   1      26.851830570488225      11.428328895199362      5.8020658433517216
   337   1      30.678915530331935      15.562901149394081      54.265178884144476
   338   1      32.694244965208938      13.549413214755733      2.8524160916464445
   339   1      32.972658105846875      17.245198029078857      2.9008737831121851
   340   1       30.97808544167701      17.311340299289007      4.1619372104971486
   341   1      30.835145061142097      19.247759711551701   0.0062576190242793891
   342   1      32.698444726864345       19.07120279000306      1.4682344337824371
   343   1       32.59154871906339      21.047052679158607      2.8251091438547413
   344   1      30.642321974005174      23.275812025711378      5.5063995659442417
   345   1      30.958665391277151      23.134242438568673    0.046241070337828198
   346   1      32.648763714921223      23.038641179746271      1.5075188549381426
   347   1      32.649412389239806      24.964389937526036      2.8090295343547163
   348   1      30.587046992317752      24.926737278049337      4.0781633290288939
   349   1      30.618684507706085      26.711891610495272      54.252795006154301
   350   1      32.381332991257842       26.76819239943908      1.2818998129785208
   351   1      32.708517224064245      28.641740044598283      2.7033841813287633
   352   1      30.720909834698574      28.882701165311879      3.8971852814362236
   353   1      30.955809931510906      30.472474865605584     0.13388986770465877
   354   1        32.9202315857667      30.657928495792611      1.3248129595353728
   355   1      32.701538244064189      32.714611858411885      2.5313240170927407
   356   1      30.724629498225053      32.763281687096196      3.9408474133386422
   357   1      30.595754212017432      34.460529520087491      54.121025467981639
   358   1      32.484648576823929      34.670248335211987      1.2193626707577991
   359   1       32.58685308896797      36.719491881916753      2.5827977682483967