dump/Si_1000_20/steps_61 (written by ASE) 

3980 	 atoms 
1  atom types
0.0      38.395898218429522  xlo xhi
0.0      38.395898217999999  ylo yhi
0.0      54.299999999999997  zlo zhi


Atoms 

     1   1     0.29443079261907107      38.342014993825927     0.19711452384542538
     2   1      2.0614246138895611     0.21896906251862364      1.6329972027720578
     3   1      1.8523724249512761      2.1784163505396137      3.0422604027195015
     4   1      38.306771655604038      1.8751274961249176      4.5155649405548477
     5   1     0.22109993049489832       3.744095773472401      54.279076909313659
     6   1      2.2871173657959782      3.7520662337494692      1.2772949783270739
     7   1      38.349410397089628      5.8960394777903185      4.0423800206232858
     8   1      36.385274832259896      5.7780459772518409      2.5927478679902243
     9   1      38.360869573376377      7.7408033886162517    0.065706043818192755
    10   1      1.9517490251213048      5.5769194892880529      2.7334740997285181
    11   1      1.9132049207448945      9.5154692161953296       2.633899430021005
    12   1       0.211618027408258      9.7333072381038157        4.01947631888331
    13   1    0.086714337656926418      11.467919025402642      54.066768315643749
    14   1      4.0208546522512707      11.635760369256737     0.26211783682953166
    15   1      1.9873325843904865      11.574805770953427      1.4589815834908795
    16   1     0.10356023611594765      13.551134757200707      4.2377702431593001
    17   1      38.381850720643669      17.375433950147766      53.030319343675622
    18   1      1.9982907219258406      15.329338874225884      1.4646178279933666
    19   1      1.8078466994436009      17.270590848659069      2.6225249778000395
    20   1      38.344910419382948      20.872932949325058      4.0187603946839072
    21   1      38.295234123105537      19.535829676972632     0.13067606196365178
    22   1      1.9088713572290981       19.18806681629377      1.3701028948832357
    23   1      1.8630665793001178      21.113921865974152      2.7138754417409903
    24   1       36.32664203568882      20.991087604980745      2.7748824033956909
    25   1    0.094020645299565525      22.900584616995214      54.207408688862735
    26   1      1.8680050353344912      23.040038848728653      1.4425498082869463
    27   1      1.9436275320725069       24.84276098384175      3.0482000199347801
    28   1      38.383630416638752      24.406736347469234      4.0180682942402655
    29   1     0.12516245005091353      26.908904355277652      54.255631703377311
    30   1      1.7594509561807565      26.828208910413061      1.6503021556952375
    31   1      1.9624390558353182      28.946484793990997      2.7823474727995414
    32   1     0.03208044004146858      28.636864521241918      3.9426040292573679
    33   1   0.0028353780289714376      30.969902862345812     0.23341669770438758
    34   1       1.915312672122496      30.842135935092877      1.4749726497829201
    35   1      3.6342442887848629      32.733531256928821      4.1298216428462089
    36   1      38.222597572580931      32.551477351086454      4.1242255557445455
    37   1     0.19830628058706301      36.482607015669458      53.034241791659312
    38   1     0.14376339604171368      34.656600801509086      0.1379004260627423
    39   1      1.7279412737907212      32.694899725013194       2.752716431661248
    40   1      38.350240504989372      36.664699301455478      4.1631415315790843
    41   1      3.9440316837139173     0.01322354625129865     0.14902751346551216
    42   1      5.6191093641377936      36.732936201412109      2.4618973264707296
    43   1      4.2078435122699629      3.8001098905581356      5.5771253583946772
    44   1      4.1959456002516404      1.9213752337801739      3.9994141971230759
    45   1      4.0879693605219654      3.6225113949509069     0.21128827345492046
    46   1       5.800647336095512      3.0927570096897115      2.2459245347040202
    47   1      5.7749951435288374      5.4022131249222101      3.1786975925065444
    48   1      3.7996095971936694      5.8893808033836743      4.3091360980789464
    49   1      2.0947182369168562      7.5806700337952595      1.4269250467976438
    50   1       3.854672300860134      7.6405837655629441    0.070031844887989594
    51   1      5.6405157326720206        7.26555178888486      1.6892470245406566
    52   1      3.7749352557877187      9.4988154250636381      4.1845615251350994
    53   1      5.7630496283288526      11.597976738439153      1.7221461362511281
    54   1      5.7684677078738904      9.2916922013928573      2.9075174924190152
    55   1       5.755830358762136      13.703146984533323      2.6499115150305985
    56   1      1.9135566204368524      13.401437284264647      2.7596301413192359
    57   1      4.0460590135997814      15.434997005687958      54.151886912735968
    58   1      5.9639122906625639      15.524053652228744       1.411456941559196
    59   1      5.7540756060279463      17.302226441849815       2.853032123397349
    60   1      3.8204228353209047      17.456384363757099      4.0954539060432928
    61   1      3.8168300432073448      19.428462074999423     0.10434112213032475
    62   1      5.7695802842550794      19.233178553301322      1.4783644006930925
    63   1      5.7955416808622902      21.206527970906787       2.735214775784129
    64   1      4.0070637464018279      21.124433263821452      4.1742536442484397
    65   1      3.8307240354270227      23.050166549396511    0.076473829655174311
    66   1      5.7808665723694217      23.005012587400394      1.4423084277457385
    67   1      5.8826792280562055      24.890408852653639      2.8328187124980579
    68   1      4.0627486207634762      25.008457854098655      4.2875606546996297
    69   1      3.5755617406829852      26.774035624031871   0.0079162448448869323
    70   1      5.5189020465766827       26.73210617913298      1.5475559072421354
    71   1      5.6333791161943338      28.607645800824717       3.046989106485249
    72   1      3.8182641914517772      28.911541193198609      4.4155159817099863
    73   1      3.8439082687147437      30.651743414543247    0.067698809019839157
    74   1       5.671648402487139       30.62322855084232      1.6752780252995174
    75   1      5.5169820557383655      32.666271616828752      2.8615815136708207
    76   1      3.8400979002424052      30.838992493687339      5.5140312316533047
    77   1      3.9335325514976613      34.560918239529201     0.12075731293607539
    78   1      5.7109356955317692      34.621000346390353      1.4704142682963839
    79   1      3.8414504543861887       36.72999586502533      4.0990314757060364
    80   1      1.9207785715899375      34.603074915197183      1.6222400058046109
    81   1      7.6024369024264287     0.15301557926804027     0.11622229627143951
    82   1      9.4544038128764516     0.15201138938898573      1.4043766972847376
    83   1      7.5129497902631428      2.1353518588608447      3.9617351742079463
    84   1      5.7446189965479855     0.62145059690663118       1.428418653873097
    85   1       7.493653117360604      4.0284703302654465     0.13909080688446229
    86   1      9.5309460561383421      4.2712090034069483      1.4630157557778165
    87   1      9.5019454908929397      5.9671920718754192       2.906078453865077
    88   1      7.6851403316192828      5.8495072140026814      4.3883603859066413
    89   1      7.5134487655820115      7.4492065303353412      54.147381641088096
    90   1      9.3378316942370638      7.6683216738860871      1.0786336554208114
    91   1      9.5619858678262872         9.4531596903996      2.8424337490957305
    92   1      7.5825887317951759      9.6620330415533306      3.9423048288838132
    93   1       7.643216322065431       11.62013077674804    0.094969479338032986
    94   1      9.3844633308800081      11.467647868579762      1.4710939480426983
    95   1      9.5558036197678025      13.313037647317053      2.9549083717217504
    96   1      7.6158425682314004      13.520402471575446      4.3109752681629541
    97   1      7.7624454826596665      15.422030742902264      54.192189640138743
    98   1      9.5674931608993656       15.15332999961768      1.5848911442387816
    99   1      9.6052148378407569      17.231396257401318       3.016057545986226
   100   1      7.7781484442179165      17.346023418222412      4.2158080617996117
   101   1      7.8000535205422903      19.194950137705188    0.078443199539333403
   102   1      9.6388107392234268       18.98729032964124      1.4130317887241961
   103   1      9.6959457609203277      21.105425747305173      2.4886985627955847
   104   1      7.8166165617327641      20.886365572532476      4.0579208942963652
   105   1        7.67173156976963      23.027435373542403      54.299042727159375
   106   1      9.5511525180325449      23.067997595119884      1.2959018152822275
   107   1      9.4988595738049071      24.846521784558686      2.7356047921448066
   108   1      7.7071819973316336      25.132136523518575      4.2176246232225809
   109   1      7.2952674837543974      26.986416044347347    0.046312702787236038
   110   1      9.2653045201076836      26.944150178674281       1.434426571623532
   111   1      9.4436144204343027      28.739480569286602      2.7034171667977289
   112   1      7.4443669345309482      28.788028143026605      4.1686618834640159
   113   1      7.4802066479860256      30.516984193924081     0.16729497212040745
   114   1      9.5015229037025346      30.656587904057755      1.5075072689494176
   115   1      9.3588583307208602      32.847388846450336       2.726292464135224
   116   1      7.4501862015327225      32.730702695125537      3.9952213652414312
   117   1      7.8018961769795956      34.510082291614395     0.29522747231517316
   118   1      9.5964084190612216      34.830300417850367      1.6777949198257953
   119   1      9.3999878733179667      36.906915556250318       2.856251355617772
   120   1      7.4256223747850525      36.300679154309563      4.0319564013995643
   121   1      11.639059861945752     0.11679402596998502      54.282329475581783
   122   1      13.691806114416266     0.40256354503782993      1.3009849509936062
   123   1      11.768490907118272      1.9264204227306889      3.9195399690284844
   124   1      9.6694990448774529       2.216123440349516      2.7841384330062824
   125   1      11.382390661817503      4.0997434261887991      54.240194210359938
   126   1      13.320692108909665      3.9003045104416469      1.2368701939298581
   127   1       13.39816189339499      5.7531628613309342      2.5450986441624197
   128   1      11.535971569338463      5.9259714970676569      3.9919860409824657
   129   1      11.436924484563987      7.8236531449276532      54.224020189850798
   130   1      13.373306947093118      7.6194321304855883      1.3533320717561077
   131   1      13.333958857423163      9.5259009938177623      2.6434656518423592
   132   1      11.646262237439114       9.687977975499301      4.1432485822972245
   133   1      11.244458015509107      11.520560227093323     0.21352563178415929
   134   1      13.243736106338806      11.582131146532468      1.4607018571298924
   135   1      13.447450620921245      13.633931773396862      2.8683837379343933
   136   1      11.573022524078841      13.497050481889476      4.3501983261586377
   137   1       11.48124361433038      15.367024230615771    0.082150073907428248
   138   1      13.302030200764264      15.422546905895958      1.3385117059601814
   139   1      13.455592174100003      17.307775290997828      2.7092341270920204
   140   1      11.598732216968076      17.416979762165219       4.323635356325144
   141   1      11.320304225057638       19.14030664157524    0.010710451551130967
   142   1      13.501205273992765      19.093674622440215      1.2712481025288893
   143   1      13.301491541141909      21.043812599821919      2.7060055845140267
   144   1       11.47498041203503      21.096199363316241      4.1006607317907555
   145   1      11.476844067104947      23.264867750092471      54.105669199809121
   146   1      13.304539681173196      23.116076863655849      1.3500828622647876
   147   1      15.264368686177328      23.100444700342834      5.4126814415655309
   148   1      13.357202471227552      24.924810321375663      2.8402605007268003
   149   1       11.46455955823992      26.999225337155057     0.14474811852087452
   150   1      13.191452908751858      26.913939979420444      1.6452680345309529
   151   1       13.26231544121557      29.095106892643624      2.6622916394711202
   152   1      11.287765178571945      29.016246410870121      3.9508301371212018
   153   1      11.312199303788718      30.832627370274384      54.220125156968734
   154   1      13.385825615144926      30.905191211382103      1.2217446656575026
   155   1           13.3185492904      32.774970988639957      2.6113414279024019
   156   1      11.319081536703756      32.591176367138445      4.0497239839177492
   157   1      11.521683303792722      34.667191643335663    0.044242864223838274
   158   1      13.471999665295293      34.711127107883399      1.2648025622666645
   159   1      13.300302559368196      36.765755882149477      2.6268605342407096
   160   1       11.39239681650022       36.68338152642518      4.0666198180089399
   161   1       15.48519893748213      38.316730934363996      53.958003274896797
   162   1      17.348010259700313     0.16803904666509967      1.1995048882496331
   163   1      17.382805096988431      2.0477534212986712      2.8433583708415986
   164   1      13.690604784336239      2.1395254713090375      2.5903934498033188
   165   1      15.463600116122425      1.8659953435043433      52.796931897274369
   166   1      15.335683554982683      3.8753222059608157       54.25094306374158
   167   1      17.327282472954014      5.8371446498391659      2.6495740121841087
   168   1      15.395278528928991      4.1621725969738801      5.3181899632948317
   169   1      15.280581068850191      7.8586290008886515    0.043851032135057734
   170   1       17.33663718367438      7.4983593752365065      1.1501080455401509
   171   1      17.525503662739911      9.5150167021283352      2.3393400846690393
   172   1      15.600910863729831      9.6558326856814549      3.6400382231141557
   173   1      15.274016189449455      11.587968897406125    0.048709838645982002
   174   1       17.41706916377985      11.516073462202687      1.2396865652592073
   175   1      17.537192876916116      13.503647818008877      2.6253636615758165
   176   1      15.345595313928829      13.308078236502007      4.1038171781271799
   177   1      15.306692203433151      15.462264690328897      54.235647263260809
   178   1      17.369559429189028      15.648352405756652      1.4424277317759553
   179   1      17.540733195081259      17.301071073343397      2.7699657848059469
   180   1      15.539945684704678      17.473593945618532      4.1039879134301929
   181   1      15.566832022655024      19.153441341840637   0.0086780088960722295
   182   1      17.364005387325655      19.179622459178837      1.4381369777630753
   183   1      19.408936634337362      21.331405986661451      3.9518618152840062
   184   1      15.176737813507094       21.02576333287357       4.047575682356956
   185   1      15.386328617644033      23.077036734219817     0.33242408834114501
   186   1      17.384157874219831      20.947314408792487      2.8059640602736735
   187   1      17.206088597508447      25.231017768392167        2.75204867762077
   188   1      17.225314268123249       23.32785699695626      6.5242574166623459
   189   1      23.071640941722059      30.828834216413995     0.20757635462942972
   190   1      17.315730499047028      23.190321321075462      1.6411822465346617
   191   1      17.893167474542029      28.962239763644412      3.4710982816762557
   192   1      15.350240368382806      29.030247532641432      4.2821427463855368
   193   1      15.568007168410558      28.722302007276866      53.045203649866529
   194   1      15.444425535376228      30.451398356005502     0.16869842033303245
   195   1      17.262979972320434      32.634720027457419      2.9792230555529944
   196   1      15.223425476838219      32.783323608054957      4.1374971949302681
   197   1      15.420567614510015      34.642113183381639      54.279857931734036
   198   1      17.201182460460558      34.555883105574985      1.4530324213304306
   199   1      17.106189108005324      36.612248350332052      2.8256710135026193
   200   1       15.13375487598773      36.596251637949976      4.2542287757757205
   201   1      19.235851674574526     0.29421591671810698       54.15861171454668
   202   1      21.107790256367135     0.36492303156212919      1.3621898347527588
   203   1      21.208928756450753       2.179495810202063      3.0759709392445083
   204   1      19.238423422855433      1.9923895792865738      4.2292912375596208
   205   1      17.197563842450311       3.784697147499839      1.3652948890408674
   206   1      19.175861063061785      3.6551723046775439      54.191290940349809
   207   1      21.020962910719533      5.7831077647534297       2.766178756102236
   208   1      19.063018407656177      5.6627059964753981      4.1261055092963232
   209   1      19.324322057255952      7.5184221788294945     0.11307464115773226
   210   1      21.403520643654936      7.6577556452859774       1.423578275146453
   211   1       21.22605985647721      9.7438438385365682      2.4101403959574563
   212   1      19.367457898484727      9.4417117205048058      4.0605740257546845
   213   1      19.297013897440905      9.5649119276725099      53.115635199855696
   214   1      19.236889419245891      11.689011900051172      54.040075622512866
   215   1      21.095185896264134      11.652508006287174      1.1304134087062254
   216   1      20.973499542387131       13.41759595026004      2.7432401684010541
   217   1      19.015814039084475      17.392332683226464      52.852229726824596
   218   1      19.337923691361272      15.564456018496067      54.245181260681747
   219   1      21.066431219858153      17.253556609001194      2.6229835219620563
   220   1      19.400889391583448      17.280139844624895      4.1764039021195121
   221   1      19.006863367205561       19.23164003088371    0.066027036737853123
   222   1      21.087765269313049       19.03185802232931      1.1277047643201148
   223   1      21.283723315206178      20.996655843581642      2.6113245061061541
   224   1      19.296802484662987      23.301506422593135      5.2207601151636043
   225   1      19.102085711781626      22.980755326788774     0.10089907478436547
   226   1      21.198933858993747      23.042831886220284      1.0903664697521915
   227   1      21.098774745755183      25.115655979857944      2.3433516739939484
   228   1      19.207437000933076      25.288191506289447      3.8686881870091399
   229   1       15.47745253491145      24.966500367360236      53.152446487334359
   230   1      22.994725436063256      25.240527936977657      53.358916004426092
   231   1      22.843243549424027      26.969364492015369     0.74714637220671609
   232   1      19.106135255757685      27.464895757475173       5.166294929558263
   233   1      17.275889106769544      30.742322445513157      1.5248015055080597
   234   1      17.336155385047714      28.802316678239865       51.93331072824067
   235   1      22.789490636415614      32.666153996586161      53.236522042766275
   236   1      19.211715631652439      32.921720457485918      4.3109631619714053
   237   1      18.947507141737507      34.550382217796326      54.276709579740654
   238   1      25.154203298068698      30.894426396834859      1.3905633215620909
   239   1      21.159371034794514      36.534180593330774      2.6484969532762292
   240   1      19.181659638651617      36.457632150000926      3.9281500367064024
   241   1      23.066135538897981     0.32576684296404512      54.130227509119585
   242   1       24.94087432476455     0.11337865458485652      1.2523297610404274
   243   1      25.098058953303159      2.0234151106622131       2.554337524185859
   244   1       23.17679323193526       1.985083797936388       4.001321421999684
   245   1      21.125897475099553      3.9835220622578391      1.4277823070377831
   246   1      24.971786322564661      4.1381574663196128      1.4072603204776906
   247   1      24.891638836835412      6.0441285463522858      2.6694847548556582
   248   1      22.981005693665683      5.9632301131591472      3.8439381767120127
   249   1      23.209520810322889      7.6626863651131787      54.110885788900141
   250   1      25.104828604523995      7.8642878498522562      1.1561642827173704
   251   1      24.746637774531173      9.6167173289694539       2.803603515696647
   252   1      23.010544860538587      9.8812018970757602      4.0614084289058878
   253   1      23.018032117191705      11.660060275299768       54.18503577792081
   254   1       24.71547260069265      11.614118201748099      1.4544138118396945
   255   1      24.799654346128587      15.165235038700887      1.0435383151280919
   256   1      23.035312381823843      13.595060269794873      3.9040338698966113
   257   1      21.113909913836807      15.262235444291285      1.4229429442462309
   258   1      22.825266773863092       15.65707822509084      54.222789051735653
   259   1      24.797722440530851      17.119006745150326      2.4626781410704801
   260   1      22.785570016339477      17.407415397548125      4.1114889338195981
   261   1      22.950331918182407      19.308402601054269      54.169898780583139
   262   1      24.840084836505049      19.136743291937911      1.0857352040712591
   263   1      25.182098183760299      20.977438399074661      2.5670559653037262
   264   1        23.2802979079407      21.126240976262039       3.775105970679316
   265   1      23.214373873158852      23.005062067102834      54.092705993578434
   266   1      25.003377608479621      22.955591806048073       1.293850599446442
   267   1      25.158328873539553      24.798939400205924      2.8168390106017203
   268   1      23.023921109385842      25.065979328213249       3.694952242513228
   269   1      23.095484380892049      28.834750133481219      53.384978379050565
   270   1      25.074603310847692      26.900572724324569      1.6577911729422454
   271   1      24.849085229315346      28.944292877787042      2.7700437200754009
   272   1      23.107463544219058      28.595429656015376       4.051889112942197
   273   1      19.414818441733527      30.733220910076135     0.12101111791556614
   274   1      24.875462618058599      32.855535326539787      2.7314705575106939
   275   1      23.096286605820392      32.762398005485196      4.2343238155732363
   276   1      21.241189198675826      32.809042630590163      2.9394312405001424
   277   1       20.86434410450568       34.67266667850317      1.5079354846906632
   278   1      24.958265999648596       34.60840823553648       1.179624382493581
   279   1      24.921641367780079      36.590236788484233      2.6169803740420763
   280   1      23.043645663434013      36.599457416213681      4.2250761176527032
   281   1      26.696644215836141     0.32055648736185938      54.277555898393395
   282   1      28.814649973339186     0.19641352828392294      1.0157299954344567
   283   1      29.058616231406177      1.9133873202026899      2.5716172723107209
   284   1       27.11208847769149      1.8556915255730815      3.9376298856917757
   285   1      26.894981613149717      3.9396887295752219      53.991342216912962
   286   1      28.699271803355575      3.8854563428890865      1.3240118986699962
   287   1      29.192328669516716      5.5167190920702884      2.7491558603300263
   288   1      26.983043157116644      3.7661725809293483      5.3613286034710983
   289   1      26.993198348581572      7.9117964842213668      54.096274129018447
   290   1      28.919979512286773      7.5014374640397667      1.4735999954870278
   291   1      30.745639321992449      9.4534013461316331      4.0509676477609675
   292   1      28.635043384820559      9.3644670591885895      2.5088325735632231
   293   1      26.733345320516221       11.52038506302112    0.093395229664258825
   294   1      28.745380038297728       11.42420247125192      1.1847144578333111
   295   1      28.815346771736539      13.389396948900048      2.7891172727561195
   296   1      25.114566796612905      13.542278470905206      2.5473460935608938
   297   1      26.976014129792958      15.224561296115628      54.268162727196774
   298   1      28.785124044826841      15.329827518795856      1.4370848296489169
   299   1      28.797744754124114      17.265462199585265      2.8893738895443208
   300   1      26.825516216522807      17.402433386123196       4.134373529038645
   301   1      26.881641467907663      19.185913767236293      54.187093819332077
   302   1      28.659943442534399      18.975119290874847      1.3738769199239176
   303   1       29.19878776326901      20.866682921266968      2.4923624708910879
   304   1      27.090780067001067      21.325511810718023      3.9235199342406619
   305   1      26.902696484374101      23.070055339939589      54.243904243820602
   306   1       28.92325370124723      22.920121585610222      1.4341080699523894
   307   1      29.048126080194965      24.941852649299779      2.5856535336876614
   308   1      27.123231342587733      24.829375419814383      3.9068646524762816
   309   1      26.734242475335041      26.944625210178359      54.214447441199567
   310   1      28.793516761746584      26.879356234577141      1.3226414000971087
   311   1      28.807905616104783       28.80336572819234      2.8045642211209056
   312   1      26.916691091684175      28.899372601223806      4.0434122403975463
   313   1      26.940161589580779      30.882048171143111     0.20238597850902823
   314   1      28.828889578945475      30.922760211830635      1.5286101711871791
   315   1      28.635686725225703      32.936376507256846      2.8069614589670073
   316   1      26.764059133256872      32.770436132797343      4.2536782509421736
   317   1      26.858248081372533      34.832680367325537      54.233787241086134
   318   1      28.825350877725558      34.816302454317807      1.0978679352413203
   319   1      28.946315794508827      36.755886092016873      2.3737984879072402
   320   1      26.963351447321511      36.737183067638085      3.7274729429454401
   321   1      30.820483181227623     0.12793540033003509      53.993954607381262
   322   1      32.886317551855051     0.15091229435652725      1.1787123713078351
   323   1      33.057913439176247      2.0591797891457695      2.6060912380878203
   324   1      31.017893547393765      2.2851589162156976      3.7311382155578605
   325   1      30.725094961429324      4.0844301382414123    0.081539211232211459
   326   1      32.708731201378193      5.6246182748265383      3.0492121579528999
   327   1      30.843394764469839      5.8376500851472208      4.4136901816311029
   328   1      30.668343862391591      3.8176925007244793      5.7189401458207101
   329   1      30.907931633579672      7.9341468708918201     0.35561640533227296
   330   1      32.728767057455755      7.6410267538506362      1.6219019019111334
   331   1      32.768648138428034      9.6828484338044909      2.8311746215274889
   332   1      30.891460815668104      11.515421169754998      5.2444265085452582
   333   1      30.920321337589989      11.685889001748619      54.276486041508619
   334   1      32.883015058039817      11.602015921450979      1.2825615910634716
   335   1      30.927276086738811      13.626341491127169      4.0069590767254244
   336   1      26.830957850143953      11.524924957918488      5.3311632938806168
   337   1      30.777365940262015      15.265422359189266     0.19519481811987596
   338   1       33.03492158157588      13.536722037447095      2.5960795853355187
   339   1      30.672854228051936      17.464323660491857       4.322357075011495
   340   1      29.000847269796132      15.402737829789915      6.7792556051130717
   341   1      30.853029047588226      20.856143131040064      52.763514804933145
   342   1      30.589043432282597      19.056138853499711      54.279010052895686
   343   1      32.638248152009723      18.951534233069651      1.2729939980334646
   344   1      30.906806782256517      22.905986544046446       5.254563265890476
   345   1      30.696571116526592       22.77599839101784      54.135319373797017
   346   1      32.759579936494042      22.638905251736428      1.2419317720963354
   347   1      32.639782723615888      24.587776420759997       2.822272897151517
   348   1      30.712704080293381      24.840495467604338      4.0238465138820487
   349   1      30.788362516910087      26.970876284417614      54.293307990693428
   350   1      32.842844451026707      26.563872311256862      1.2855367843240408
   351   1      32.766756804538481      28.504096524636807      2.7235197173077621
   352   1      30.743134981878239      28.911589140342095      4.0837060525179947
   353   1      30.731839286824663      30.841871775556005    0.085156557940524638
   354   1      32.740890966890582      30.420253817906655      1.2632951995836175
   355   1      32.616704948480312      32.427192557222725      2.7487642187954409
   356   1       30.59875952933719      32.721340329328001      3.9460441500725434
   357   1      30.829270192094196      34.623362435902933      54.142721311985241
   358   1       32.65126965390472      34.538793202104685      1.5846683194213231
   359   1      32.788769711996636      36.588401546126569      2.5746463219900289