dump/S5_s00_n130_r1024_560_0/steps_11 (written by ASE) 

1559 	 atoms 
1  atom types
0.0           114.158223526  xlo xhi
0.0      7.2199999999999998  ylo yhi
0.0      22.831644699999995  zlo zhi


Atoms 

     1   1      2.2374318317828505      1.7169816308172983      5.6303609259104812
     2   1      2.3484780275957498      5.4924861511251262      5.7009744174637085
     3   1      7.7191941956882273      1.5935448283826341      5.5049278665404104
     4   1      7.6774413342976091      5.4674214087802611      5.4769651674015041
     5   1      13.754380527910104      1.5605486097704278      5.4156961068740319
     6   1       13.72406532260556      5.4540543178650465      5.6893384244714751
     7   1      19.556231675500722      1.7326656068219888      5.5925242466240617
     8   1      19.366949045703063      5.4994999286896462      5.5597531790897712
     9   1      25.305077355864231      1.8456731785301095      5.4880232857673317
    10   1      25.240995746523996      5.3962181685814912      5.4660947181426023
    11   1      30.885726368655746      1.8484979537392787      5.5098389851716902
    12   1      30.972559631955296      5.5478558065328958       5.411707696480101
    13   1       36.59474236609298      1.8703435888934139      5.4149228188798135
    14   1      36.454418986197602      5.4537616015734915      5.5248607502870142
    15   1      42.121426711818678      1.5336576670182049      5.7362223022838226
    16   1      42.206623564944948      5.0936875156509567      5.4954937552188801
    17   1      48.022524322969666      1.6880032229393922      5.5926241669573482
    18   1      47.939824824446902      5.4224637655595576      5.5154169794987018
    19   1      53.763012834266782      1.8088619984822452      5.5694084889575173
    20   1      53.646498614193177      5.5044621634982436      5.4635887745272882
    21   1      2.1738518155625335      1.6749937206306835      10.961798283829058
    22   1      2.3368699775234036      5.5130157166262723      11.267462948236556
    23   1      7.9464899725096645      1.7121270141795533      11.139891571112452
    24   1      7.9096700211084796      5.3949153353287924      11.132077764526967
    25   1      13.745480890490816      1.6772236115148378      11.227243660050833
    26   1      13.852459556035086      5.3460299294369094      11.335306122414231
    27   1      19.296935360054405      1.7512974859513084      11.282024214530894
    28   1      19.165754225676046      5.1654129063988092      11.171191545346195
    29   1      25.115563906588584      1.6351999962087229      11.366333289983306
    30   1      25.173102873998552      5.3613687452720704      11.319631548265367
    31   1      30.673570579225817       1.641725830362994      11.258009537425504
    32   1      30.823321100343897      5.3898988084821227      11.169960747586332
    33   1      36.625655649700512      1.5148566296514752      11.236857645509573
    34   1      36.438071943722335      5.3952801081163821      11.076556960928318
    35   1      42.247828251468526      1.7394584951236667      11.154255100253273
    36   1      42.198745620076423      5.2763227708251419      11.213281979998735
    37   1      48.027187469689785      1.8028934951402844      11.178243160560132
    38   1      47.998946999033379      5.1792332017169107      11.153699393556703
    39   1      53.814456315751229      1.7502096937863627      11.045142568887464
    40   1      53.795595272059089      5.3618685608888637      11.192048054625102
    41   1      2.2051223698012197       2.161039055305904      17.076901436270155
    42   1     0.20671345697411644      5.3815692465632337      15.757482663154713
    43   1      7.8779424982934421      1.7369299796306497       16.90548325565684
    44   1      7.6577580736057644      5.0505261012871632      16.881319454153584
    45   1      13.721494425316399      1.4752300636301647      16.875221615756526
    46   1      13.688958175509923      5.3493849439597927      16.922336935667101
    47   1       19.57418858217855        1.69406787744048      17.064945634104898
    48   1      19.439321206599239       5.463874081245474      17.129520338380601
    49   1      25.047598816058354      1.7359861228300841      16.959563308887255
    50   1      25.033448018706085      5.3050376056587369      17.151951467474053
    51   1      30.977359314360381      1.7978225854352157       17.01622886085687
    52   1      30.907631962204213      5.2525397653549488      16.832622454310201
    53   1      36.595729451196725      1.7853396115759483      16.939086991743153
    54   1      36.697082341474534      5.0334548315998395      16.721927620025244
    55   1      42.406131861529701      1.5993589457595776      16.852843575313397
    56   1      42.310355734768706      5.3598434612690893      16.847503115954506
    57   1      48.158612249961614      1.8452694087137704      16.745419964089773
    58   1      48.041714697830457      5.3493622209336191      17.008535503768737
    59   1      53.656325865037836      1.8907643604620907      16.892688991050509
    60   1      53.687253896210869      5.3478719654925646      16.802992384808302
    61   1      2.3961148819728169      1.6477491555094352    0.083006338069404106
    62   1      2.6707935168989803      5.6631641362955616       22.73717186053133
    63   1      8.3191552961619486      2.1894465150890561      22.584710078390401
    64   1      8.0332253119569526      5.2829585048767873      22.418009209804474
    65   1      13.599078641549985      1.8724516423996584    0.037504089438479285
    66   1      13.628300748804502      5.4316460408928968      22.572959897023846
    67   1      19.558176022161874      1.7092808223703539      22.798834988942602
    68   1      19.369155213713316      5.5257589431529652    0.060957169656806511
    69   1      25.180604939980295      1.6613014128719585      22.775565929808593
    70   1      25.098553735168608      5.5144556745915514      22.700367388437979
    71   1      30.862705577759332      1.8759211015706108       22.69157657617491
    72   1      30.947900097480332      5.3356352561812983      22.601650114850621
    73   1      36.505793232464065      1.8243090966137097      22.638770714789406
    74   1      36.552518685814491      5.2762741312165318      22.484288063585968
    75   1      42.395666471160077      1.7557818436420083      22.682892005898861
    76   1      42.214011680927072      5.1073547417487104      22.530689802591237
    77   1      48.088781872473973      1.9307705945242466      22.502253769016853
    78   1      48.064771857911495      5.2212433630088624      22.486144022006886
    79   1      53.751170457931316      1.5796990432037206      22.770073832287306
    80   1      53.782458153295003      5.2369313914690361      22.654829634371659
    81   1     0.19299708554893558      2.1115859239735522      21.935984072913378
    82   1     0.49852368127311669      5.2773512862218421       21.71697104136295
    83   1      5.8598143263405715      1.7046400831371031     0.54297100052057701
    84   1      5.7867910640237836      5.3052111052716908     0.81000664502052178
    85   1        11.4133102259437      1.7022098665835776      1.2656102722553153
    86   1      11.248421314645986      5.3687103975206449     0.88695267983904524
    87   1      17.175413427018789      1.9991366925463581      1.0420701138214128
    88   1      16.994933065272519      5.3591142511273278      1.1225998731926166
    89   1       22.86168579067596       1.879205221339483      1.0750834920636401
    90   1      22.883393508584593      5.2692151392068691       1.002059416881423
    91   1      28.887245445294678      1.6143965856646423     0.89764200929433857
    92   1      28.511657451688027      5.4435218642792096      1.0980187354078015
    93   1      34.196993258010913      1.9008242175876033     0.99963699870512623
    94   1       34.35249135091204      5.5812412332061117       1.077525320561423
    95   1      40.136160525037752      1.6143598764808029     0.83375574321487278
    96   1      39.938758946234564      5.3025984237576278     0.61885684697909149
    97   1      45.734932345786767      1.5817358210179739      1.0041840182156987
    98   1      45.759988158939741      5.2055285234295416     0.93237665234839406
    99   1      51.553065789979989      1.5650638620192079     0.96561681924083764
   100   1      51.489445780492048      5.2998283579007399      1.0382132724230144
   101   1     0.21566091155668557      1.9332486704306409      4.4096285938130517
   102   1    0.091546865461112209      5.4391321414733946      4.5931195296812328
   103   1      5.4868278058818936      1.7905390864310076      6.7438855894745409
   104   1      5.6505173670843849      5.3402198416260775      6.8703655161631998
   105   1      11.324700850200605      1.7002934259175191      6.7362365388190852
   106   1      11.404924017972197      5.3385152134310561      6.6819313104536704
   107   1       17.22498591425305      1.6884183816583145      6.5013709797911972
   108   1      17.191424978401905      5.2466292896991504      6.6657841826794275
   109   1      23.090470909106173      1.6623583619983449      6.7526527933217029
   110   1      22.803097950417595      5.2823159326294054      6.6809143909304485
   111   1      28.551916377441689      1.8049332475770374      6.7066065560510717
   112   1      28.581636343534502      5.4916024987282306      6.6888356873185728
   113   1      34.365075336039133      1.8554173448586606      6.6248822469212003
   114   1      34.095943279131887      5.3544931912775562      6.5138501192960874
   115   1      39.917250471929009      1.7608461767911945      6.7937913657688371
   116   1      40.105924415114337      5.4528519669253646      6.6683121932327252
   117   1      45.679065482072176       1.630927326770427      6.4642284791636611
   118   1      45.548976641959406      5.3830960242400385      6.6907832468659354
   119   1      51.568558329097336      1.6629416784001618      6.6167806160092759
   120   1      51.480208000646272      5.4182874918983996      6.5898266172675326
   121   1      114.02361564515211      1.6594174944200881      10.422015784865646
   122   1     0.28872690465124101      5.3476440418768254      10.267375476263579
   123   1      5.5121235665577384      1.8609102993907198      12.221787268305963
   124   1       5.412005827383374      5.1682314761944195      12.288800847644339
   125   1      11.286533579174003      1.8066375914329786      12.429561691264979
   126   1      11.634924672693312      5.3261403198358117      12.390333371086568
   127   1      17.061929220379774      1.6294830517480063      12.528722932660182
   128   1      17.034217216697527      5.4160684663993139      12.524267446869422
   129   1      22.791549866249781      1.7641037798785311      12.522729051817169
   130   1       22.83414881337195      5.3871145121729667      12.616213653271684
   131   1      28.587158705185161      1.7415401021128036      12.542458862880508
   132   1      28.610527741053641      5.3162299323718853        12.3100059041232
   133   1      34.350310232735644      1.4651264339330872      12.195237575004095
   134   1      34.332408420666106        5.25688642364406      12.229219392036818
   135   1       39.89895333805751      1.7016391262709369      12.222943922005255
   136   1      39.892819651775838      5.3211481835082353      12.172305716368729
   137   1       45.77765399097504      1.5206564447044248       12.12878983919385
   138   1      45.725160699220503      5.1818057038978687      12.203959833583111
   139   1      51.463562314422475      1.8015957217251528      12.232205830478746
   140   1      51.606878856177822      5.4867710798364957      12.299266315850087
   141   1     0.22606665958339936      1.8169323060580653      15.891056553045663
   142   1       113.2492127873859      5.4421845367011725        18.3292414326833
   143   1      5.3755844057961202      1.7376564642799619      18.092620102333868
   144   1      5.6545066108695643      5.4742564475814302      18.040471811396312
   145   1      11.467782319571105      1.5844007346362545      17.803218059436357
   146   1      11.287461923277009      5.4219205134391135      17.861539711665596
   147   1      17.023071028106703      1.8708066264522685       18.27691113374965
   148   1      17.200304835236981      5.2771870023678069      18.249138713949741
   149   1       22.68240099443948      1.7162848490307157      18.022040563906558
   150   1       22.82163693440291      5.4296487983011401      18.211874953595558
   151   1      28.628238402300006      1.7190470112800333      18.247321405146533
   152   1      28.397387870149764      5.2871689914233304       18.21219533911356
   153   1      34.559259715035978      1.6659156124054366      18.064130789613856
   154   1         34.368048316766      5.3905787689456934      17.915498467495961
   155   1       40.07783012176445      1.6515995264474639      17.905149071603155
   156   1       39.99940946136595      5.3979782843784578      17.916098506054887
   157   1      45.956946430618167       1.716781122051118      18.118943966519666
   158   1      45.655189769501547      5.3867556147870355      18.057515940101819
   159   1      51.489091389158808      1.8560483755138952      18.144800235533381
   160   1       51.50067054037482      5.4565632516036224      18.060699708630715
   161   1      1.4148783008951042      1.7230651425515251       2.190164406425835
   162   1      1.3541329554031263      5.8451855632544527      2.2157405036227642
   163   1      6.6183873768711896       1.792992763649522       3.142369244804653
   164   1      6.5555611404544933       5.527640610106606      3.1897864356238146
   165   1      12.655002543122572      1.6649172433279409      3.2835831628923748
   166   1      12.439613615251419      5.3586839113796421      3.4806990685272408
   167   1      18.245821247749888      1.8481087202731019      3.5813487953143492
   168   1       18.36683291898288      5.3419487908709904      3.3447756576419745
   169   1      24.131405472085454      1.5222048325402258      3.2883897630090662
   170   1       23.92758831624856      5.3075472946656763      3.3980269600007147
   171   1      29.528968697017142      1.8784956067172969      3.2161581330789377
   172   1      29.625700573702442      5.6835200911811192      3.4397473656024879
   173   1      35.433334893595756      1.7542467673385076      3.0592949436385846
   174   1      35.369643993042033      5.3118522468253522      3.3204709716840899
   175   1        41.1862500702047      1.7576919674995177       3.211213039396239
   176   1      40.915265351825731      5.3274696496041702      3.2893682973030729
   177   1      46.893491829808049      1.6514523965311676      3.3053368806383396
   178   1      46.947970583191726        5.35133133982968      3.3005479463718004
   179   1      52.667000645238801      1.7906582260273114      3.0698481771107762
   180   1      52.741146402555678      5.2588517777956456      3.2571235813312591
   181   1      1.1508694608224903      1.8695716720077673      8.1297788843681165
   182   1       1.233216767663007      5.3480963518891036      7.8830713020661953
   183   1      6.6185793824963648      1.7463171454021733      8.8652986886705705
   184   1      6.6620842182473883      5.2632510865325033      8.8299214953844913
   185   1      12.469489499738073      1.8241055813977818      8.8633943001867763
   186   1      12.532615205361205      5.2374671795879291      8.9128497538600051
   187   1      18.335083077393985      1.4879839090270057      8.9841815788375694
   188   1      18.341578538226834      5.4790098557965505      8.8718892232001707
   189   1      24.046862422602302      1.8873421903628005      8.9847175898798159
   190   1      24.136898959824048      5.3536481301958316      9.1704301901780969
   191   1      29.822770689380675      1.5951756994629112       8.983043236435055
   192   1      29.452817219081268      5.4239367582296598      8.8785710965806164
   193   1      35.434097410538186       1.905128044475068       8.796799540524864
   194   1      35.396912203705348      5.3929846321780044      8.7538961004588351
   195   1      41.145541335385957      1.9335993576306623      8.9257866617488748
   196   1      41.107516924065202      5.4017603521071154      8.9380626403622916
   197   1      46.785762561973129      1.8423820957941457      9.0402455915533473
   198   1      46.752338010480031      5.2553509207002049      8.7872450309468526
   199   1       52.73972901937308      2.0062205222950471      8.9268492612358763
   200   1      52.735750623307737      5.1151418098903063      8.8086341568177033
   201   1      2.9729343023197652      1.7185148136514952      13.352498522481323
   202   1      3.1482641769293163      5.2761152787766026      13.390956283947443
   203   1      6.4700946197609364      1.5921833685471638      14.604156601737373
   204   1      6.5448391087337887       5.282388106619111      14.659204524239884
   205   1      12.318013459434177      1.7281163721458823      14.733025761962391
   206   1      12.445405264750747      5.3148226180174643      14.697329734292051
   207   1      18.247864778260293       1.604067703307422      14.856677834831139
   208   1      18.425768034735228      5.3423503580655911      14.696017592247523
   209   1      23.873900135607212      1.7874620720236751      14.811332516586415
   210   1      23.886084499134899      5.4087239007317827      14.908389852244976
   211   1      29.623130242396503      1.6938784065076882      14.600942188930725
   212   1      29.910587748930219      5.2634975629585004      14.559551778580964
   213   1      35.421005299203088      1.5707354286179362      14.605308811468564
   214   1      35.474077007129125      5.1547661260427269      14.568523304624515
   215   1      41.067038422988439      1.5269543177028049      14.523542408140763
   216   1      41.484708500188574       5.273634498390722       14.71364044196365
   217   1      46.904318485992903      1.7480032075159331      14.482243838239658
   218   1      46.767349142114114      5.3382878645108995      14.541479618228315
   219   1      52.747027672931068      1.6477806533456567      14.356709213097115
   220   1      52.489058294826677       5.608684845815799      14.712054279122707
   221   1      1.1513944084095338      2.0493345523746411      19.532187765132736
   222   1     0.42679624238545694      3.6039285307840396      17.676592779227551
   223   1      6.9324748428263625      1.8703049419776085      20.307534763856612
   224   1      6.7622814256690287      5.1697356220413209      20.431643178595685
   225   1      12.469129791875293      1.8165569853478158      20.400255818733815
   226   1       12.61003743835947      5.3309195860375596      20.155900121711966
   227   1      18.309218753156262      1.6936669780174052      20.647971919703121
   228   1      18.260821905244132      5.3365976318479698      20.376606225832326
   229   1      24.183574653615736      1.7744623669830828      20.529517334417314
   230   1       23.92926834395411      5.3141033633509274      20.494927085359645
   231   1      29.763540026992427      1.9111189770187331      20.393288136640642
   232   1      29.782061659513626      5.3421605174761568       20.45412959134163
   233   1      35.412447421336879      1.8406323286307511      20.356822236261745
   234   1      35.460446841849787      5.4219795818810352      20.351425429189142
   235   1      41.318837821134203      1.6228620449607987      20.261642255379169
   236   1      41.249668320741627      5.1367419192105244      20.103666778720186
   237   1      47.009460001403205      1.8750625880129344      20.247587375436552
   238   1      46.948836312612649      5.3751753748794142      20.235835656301223
   239   1      52.583557654645112      1.6718491248471061      20.461815569525811
   240   1       52.65596036735127      5.4162280485432088      20.350742856579203
   241   1      3.9398737254463447       2.087515124273271      1.7867513022961274
   242   1      3.5277038272391841      5.0445921287403532      2.0685966808925804
   243   1      8.9588879982734326      1.5970998625957435      2.2318712867832247
   244   1      8.9022820919380283      5.4063560111245588      2.2265780469841872
   245   1      14.802523726747287      1.7585509864740092      2.1099022666611846
   246   1      14.665762769791872      5.3372126824375457      2.0501380515757939
   247   1      20.463315745918795      1.7145116581884259      2.2530947724458033
   248   1      20.544197942287958      5.5171758759973484       2.216141100981611
   249   1      26.268876732014395      1.6735876120149975      2.0390229725395241
   250   1      26.287368823253857      5.5171420995766995      2.0930128413818809
   251   1      31.770617428514782       1.976135663822232      2.3017769060217321
   252   1      32.284772657304238      5.3863794345816469      2.1080711306140461
   253   1      37.810404637581705      1.8553026123387175       1.896368414009677
   254   1      37.809299417019602       5.446051398048235      2.1390174987944635
   255   1      43.440870957413104      1.5487984675144186      2.1076321036610053
   256   1      43.555735884533213      5.2563472557653137        1.93187595367952
   257   1      49.197983553002842       1.805520793836294      1.9296877788453988
   258   1      49.120665574561571      5.4078978894900027      1.9814558622792542
   259   1      55.472966262844565      7.0821427995578254     0.36024624614652884
   260   1      54.961123181605281      5.3041159601619974      2.1310451028732453
   261   1      3.3785826221235955      1.7229758579239205      7.7720276268696624
   262   1        3.46016023357511      5.3538160028189692      7.7638285749051823
   263   1      9.2032619941288374      1.9939255921334691      7.9064189837952412
   264   1      8.9735642045258945      5.2502148569997287      7.7184448730717037
   265   1      15.031100156885355      1.7807082069594895       7.648092919229617
   266   1      14.861885940794714      5.3944177292499562      7.8444707317976246
   267   1      20.639820928333162      1.7096788497560609      7.9496727831727698
   268   1      20.667783798275284      5.1900744263553102      7.9211692919696448
   269   1      26.243477960309182      1.6506946897693922      7.7049878703333379
   270   1      26.453955947186923      5.3316204314755948      7.9102491407678768
   271   1      32.071802489383821      1.7717749055301242      7.6520548613355741
   272   1      32.070436451459905      5.2676049512698766      7.7824255170652759
   273   1      37.746232280253167      1.7185932132805621      7.6570646427689741
   274   1      43.445467373413237      1.7999172421252538      7.8209277553300884
   275   1      43.253403435426172      5.5035085195633959      7.8357856002158375
   276   1      49.105945809192214       1.671502941230413      7.7706395660694021
   277   1      49.062540102080746      5.4109799711830195      7.6819403005006848
   278   1      55.211778721866914      5.3733318580310341      7.9105088850509775
   279   1      4.1891648497715313      1.7584140334759506      15.803202540897766
   280   1       4.164084592792789      5.2451890515325461      15.668122028595779
   281   1      9.0245879913091045      1.4332983877174164      13.416490010623122
   282   1      8.8538580447410276      5.3266692619485756      13.576834416261789
   283   1      14.893546615137724      1.6437917612587243      13.537543034460159
   284   1      14.849353390411755      5.2305301237556803      13.743035689548453
   285   1      20.367763937045819      2.1034128036212327      13.478680366018697
   286   1      20.393760794581397      5.4572120762597418      13.429427781189123
   287   1      25.949899724211175      1.6646192536529181      13.597659654601147
   288   1      26.292059169933708      5.2254763896144691      13.667574549673429
   289   1      31.923299023521562      1.6564930501513699       13.45302647234405
   290   1      32.055391444198463      5.2326181048867495      13.509679082570525
   291   1      37.591533644264281       1.560635844915671      13.478509854124733
   292   1       37.73430297639981      5.3265399885672533       13.43707164798434
   293   1      43.528449809062515      1.6153223316577554       13.32198897999881
   294   1      43.639564432285916      5.2599438437737147      13.411957549316991
   295   1      49.209028285804322      1.7618860403269738      13.611679760372475
   296   1      49.076096703662508      5.3587934755940765      13.547783351917111
   297   1      55.080608326515204      1.8718879881474046      13.143970180913469
   298   1      3.4228237440369607      1.7265953454830045      19.397129103752906
   299   1      3.4592373791708937      5.4465598054119253      19.304135543047774
   300   1      9.0590151415927398      1.6936545199620026      18.970852343463871
   301   1      9.2005845664881161      5.4877671980757077      19.087715842455257
   302   1      14.784055303309803      1.6524978179979879      19.286883852744545
   303   1      14.936777018265188      5.2122303509605343      19.121246190307868
   304   1      20.464172244792294      1.6862304784436843      19.284343859019195
   305   1      20.526316982251064      5.5388906440311096      19.309572820537333
   306   1      26.349163451033217      1.7025237906653863      19.137609630079893
   307   1      26.234752478048655      5.4295424409156139      19.177922181910681
   308   1      32.076612470410382      1.9504222740056985       19.10570798220731
   309   1      32.151188854364548      5.3144539468651004      19.060384363036228
   310   1      37.783546277238223        1.62972869403807      19.197619479306336
   311   1      37.790851128317776      5.3489717795551677      19.172716451282717
   312   1      43.537626867524622      1.5958916554476239      19.016225699972161
   313   1      43.499510453111441      5.2146487281583331       19.06809222349295
   314   1      49.159182094482667      1.8377056297299259       19.28599008426081
   315   1      49.291638724074133      5.4621541247240861       19.12504681539512
   316   1      55.038788835726059      1.8725095183697469      19.275257924359721
   317   1      54.920904631550478      5.7434946101594351      19.209116769507006
   318   1      4.3129034849384826      1.7931049175650349      4.2788324930378563
   319   1      4.2679589999746765      5.2318634292075048      4.5039882421330084
   320   1      10.202782961012499      1.6567618276574478      4.3239002320058511
   321   1      10.144199805812066      5.4355870026786484      4.4770418150409448
   322   1      15.966575256917906      2.0235302625809344      4.3742419669550516
   323   1      15.959834147784674      5.4542426042739889      4.3651206730734744
   324   1      21.957890340086177      1.6844432256115489      4.3361236765623463
   325   1      21.716011012925708      5.4152611851834367      4.4921453189912537
   326   1      27.366356681874588      1.7798280582053785       4.380314536945745
   327   1      27.524744436597445       5.542969392729244      4.4647747456169178
   328   1      33.258959239998937      1.8506509664167943      4.5050832197372745
   329   1      33.179097804728862      5.4751086717885915      4.3951118213760401
   330   1      38.701974227789691      1.6816352011439941      4.5106671799104854
   331   1      38.784463138128693      5.4214940150445781      4.2730356507401472
   332   1      44.558296560826228      1.7034913537848193      4.3403782431389049
   333   1      44.515066998587884      5.2839973549941721      4.2934698852447575
   334   1      50.349812852442348      1.8755358093225178      4.3331897543036515
   335   1      50.322052943448156      5.4775551719925986      4.3181890023932148
   336   1      56.667040165742129      7.0497220880778251      2.7160234735390176
   337   1      56.022643455243056      5.4050956360380935      4.3253201326099902
   338   1      4.2594577072729667      1.7679854778567694       10.02985766898643
   339   1      4.3833322432659623      5.1675221039838792      9.8346097644707413
   340   1      10.142119482921039      1.7558037721581035      10.227218767067109
   341   1      10.112941563399797      5.3719297151652592      9.9141203643052354
   342   1      16.021277347238737       1.647160671713209      10.072260103239159
   343   1      15.865778305222488      5.3217550258153743      10.148716839729044
   344   1      21.754660897793361      1.7757036129959423      10.037682826719546
   345   1       21.81095403089277       5.498623655908375      10.324411109186741
   346   1      27.490184517979113      1.7475610685883329      10.158916020614349
   347   1      27.405219696619806      5.3312110988845616      10.275632242511323
   348   1      33.038462248040744      1.7886816757014343      10.265029464014164
   349   1      33.108945049099155      5.2253247156985356      10.080544663737941
   350   1      38.831304625869649      1.7353477850917218      9.7355587070512399
   351   1      38.783358987613376      5.1834150594809252      9.9753071070025801
   352   1      44.348890305428483      1.7414281400161213      9.9688302694037283
   353   1      44.461420584606159      5.3306676793014578      10.055237487553125
   354   1      50.343077730413739      1.7265558650255399      10.147312143775267
   355   1      50.353113233674797      5.3543091685552939      10.081640639053273
   356   1      59.107295123537646     0.13598189986181794      7.2009262195036223
   357   1      58.923937867009592      5.7027749867954274      9.1730954629771713
   358   1      2.2358329593591812      5.3865619663601283      17.049292576552361