dump/Si_1400_20/steps_51 (written by ASE) 

3980 	 atoms 
1  atom types
0.0      38.395898218429522  xlo xhi
0.0      38.395898217999999  ylo yhi
0.0      54.299999999999997  zlo zhi


Atoms 

     1   1     0.04564741186543704      2.0336677398333229      53.147408299991284
     2   1      1.9932638214256571      36.380589364499961      3.0820208526128257
     3   1      4.0957036249925407      2.2146726203205747      4.1401425156421316
     4   1      1.9070315222144356      3.6663315701321735      1.1607234529654185
     5   1      36.441397035232114      7.6311847518356215      1.1764204815888535
     6   1      1.9504964110693939      2.0299861841907685      2.7411801392548565
     7   1      3.9144662864951982      5.7319321623093353      4.0740939938820704
     8   1      38.335477691034804      6.2696504355354969      52.700403817852774
     9   1      1.8071027160768485      7.3668287295934034      1.1681977449316625
    10   1      1.9395031668104599      11.532118650089668      1.3801754410339209
    11   1      34.660783515800858      9.3111849279638967      4.1650400736034152
    12   1      1.6238571375659538      13.308510366604736      51.754528969215194
    13   1     0.25198371205631231       9.691295189563867      52.832539376552518
    14   1      2.1615397928461286      13.800834281611106      2.8050863328724613
    15   1      34.410977845561092      15.537375306112585      5.8613070013791582
    16   1      1.6655601900894457      15.272632773579392      1.1874942861182818
    17   1      3.5873235961140995      15.247417457498756       54.15278203857509
    18   1    0.043763087741697168      13.256350468637857      3.8112561556366722
    19   1      37.672150783351441      15.189740129372289      54.243074981561371
    20   1      36.154167045279365      13.225639680655622      51.394899382568106
    21   1       36.65177603815696      15.441762050877061      50.298566282015976
    22   1      7.7066933560791373      18.891101454543136     0.21347846736221066
    23   1      2.0926035445937234      20.845815747190187      2.6871328535925283
    24   1      38.287855885233945      26.868366390248781      54.248586763832037
    25   1       0.392800237687634      25.133163768262495      3.9498146177847522
    26   1      3.5643421687216308      28.840564133525859      4.1673789385544291
    27   1      1.9270717366649024      26.845323419692999      1.2436819122961635
    28   1      36.470387505302583      24.979114396727862      51.548677802298101
    29   1      1.7223682986500584      30.592782998383104      1.2620969349062867
    30   1      1.7603884714364815      32.315161769934377      2.7463551366988082
    31   1     0.25131519897110871      28.904641338974596      4.1772683547926919
    32   1      2.2658995633904695      32.037985281887863      51.867291163130957
    33   1      37.129541802166358      28.882208579572975      51.056406056936297
    34   1      3.4250159822514097       32.50446517933586      4.4715406784606575
    35   1      38.246842710846359      32.396639508952966       4.271588497552945
    36   1    0.047036376590642429      32.687538390768019      52.841839985155197
    37   1      1.5443645386079317      34.458354767694324      1.4412923182209494
    38   1      5.2502562940672632      34.557872230050521      1.5365732889557284
    39   1      38.339756639691188      36.249708626986404      3.8551316766954504
    40   1      3.7063510929587866     0.22845377958964902     0.14800867461058279
    41   1      9.5511688662185037      2.0902980600311216       2.405333303655393
    42   1      4.1133216869619194      3.9849518405181956       5.673572741008015
    43   1      1.7794304771053919     0.12926891057596512      6.6766769697213064
    44   1      5.7136624610726061      5.5500231045044464      2.3838934510535998
    45   1      1.8129335923415624      38.368213667924174      1.8226135172234175
    46   1      7.4664878308386049      5.6938189657010447      3.9267761994904835
    47   1      2.2669349710308677      3.9202774990819638      6.7219269322036812
    48   1      3.7816965102732247      7.9360142557633431     0.03781249145922632
    49   1      5.6183681003120469      7.8119391468760817      1.3778270546946461
    50   1      7.5339907660096683      7.6364062251939089     0.12651661573453313
    51   1      5.8303756388398575      9.7109460017472848      2.4843635700355415
    52   1      3.8390989397280966      11.636771321129363      54.159437329135812
    53   1      9.7130393696474844       15.57514527494452      50.168784349435875
    54   1      7.8312837525914905      15.262276091904287      5.8852981782322544
    55   1      3.9362539689864127      13.281079927820132      4.0503745565235594
    56   1      7.9913813356358849       13.33140404976437      52.804433126913487
    57   1      5.9145874184292619       11.69954882079556      1.3966964547081266
    58   1      7.6510233919887796      17.141139630306107      52.909327919799416
    59   1      3.9090405079031751      15.094362238761262      5.6573720947606629
    60   1      1.8307690430923169      18.892021708833845      1.5790007720221528
    61   1       3.878273367272318      21.029073346185708      53.131429183980579
    62   1      9.5207459709231586      20.960510493082698      51.768569802667358
    63   1      36.543354555884221      17.228537253756507      8.1904392388712512
    64   1      0.1071593040547696      23.004771238644604      53.972147165273057
    65   1      7.8843700490625501      24.630304999848875       53.29214855093219
    66   1      3.7749768098067396      24.513516534551005      4.1318787361627063
    67   1      3.8209986044658133      30.728253382879181      5.6159562844447741
    68   1      5.5042251251626926      24.846034165234791      2.8599623951888828
    69   1      7.7081548137241587      26.474283906050491      54.287586689004861
    70   1      5.6697636891747125      28.828741896534602      3.2569620469355542
    71   1      1.8878550682562496      28.514425950811734      7.6886585627584694
    72   1       3.707338783785024      30.630655852205372     0.11760776174395471
    73   1      5.8735304541858566      26.981715547016609      1.7615241634621588
    74   1      5.5962445354521826      30.733211735753496      1.7943531795895729
    75   1      4.0717410619354526      36.227156174094681      4.2248041392739646
    76   1      3.5600785686239549      34.544422801215589     0.11116479910559748
    77   1         7.2618435270849      34.565224797338061      0.3065160807985538
    78   1      5.7807751320992953      38.073657194546392      1.1461292828787584
    79   1      3.7836774592633358      38.334490548938732      5.4851188393652777
    80   1      5.6442417321444456      3.9716993890220653      50.231122999272358
    81   1      7.5580184672287141      1.7878415207113256      52.619029362736377
    82   1      9.4073881802405559      34.821689536805721      6.7379567952502279
    83   1      7.6141338615836736    0.060087247299974375      54.146943011755937
    84   1      3.8618344392963651      5.8248777060432895      53.092548687042651
    85   1      6.0756370646093822      3.5482213150306112      1.0140436583809558
    86   1      7.7481655796529783      3.6706581635085511      53.836410032400558
    87   1      7.8812727187005764      3.7514097857099866      5.3679235768394866
    88   1      7.7609749020039063      9.6401346525794072      53.031828803649297
    89   1      9.5418845056124653      7.6034150523592192      1.4011061236979354
    90   1      13.304414664922506      9.6417777146645776      3.0785694803035106
    91   1      3.9892147466606063      9.5878919068003956      3.8778888449593407
    92   1      5.5243647110318514       15.70638346015517      50.071132227234976
    93   1      11.997532212283575      13.541562426055862       4.170056900993222
    94   1      7.7191563451236176      11.687783673623342      54.240393344960196
    95   1      7.7135801911321833      15.427591514693068      48.869614536499263
    96   1      9.2411085535033433      15.404472584527056      1.5342170111493056
    97   1      5.5275184918991043      15.379477361901232      1.3285924446932076
    98   1      2.3463676608162687      24.747664342925926      2.2406379192592429
    99   1      9.7829387813530992      17.414880564963703      51.689355109617949
   100   1      11.539581969927685       19.42259783337947     0.27131256383297547
   101   1      7.8166828498912695       22.99951657744252      48.986505043257225
   102   1      7.5637509563193364      22.751951200686378        5.79311525727078
   103   1      9.8086901073833133      23.282261610847925      1.7450720165656211
   104   1      9.4726517220858923      27.223193458461399      7.2689482277233113
   105   1      9.4932094089534669       24.97331747841687      3.4364062009951217
   106   1       7.415244512910542      29.087395210816243      4.5213640427334987
   107   1      5.8401962468439539      24.686452171449197      51.650926246662927
   108   1      13.385836024413425      31.224868623544435      50.553799893562726
   109   1       9.562066234366819      28.666645031623442      3.1064860050605234
   110   1       9.873803308566778      32.682969177625452       3.304992137676972
   111   1      11.382431012441643      30.998022160570063      0.1480280061259576
   112   1      7.5568123405582277      32.706269600611449      53.375651346415722
   113   1      9.4088414593488814      34.547008267630524      1.4289192060055613
   114   1      7.8850514774379743      30.757252528062899     0.49515385013082786
   115   1      5.6151930525151643      36.432197400068262      51.700623162098722
   116   1      11.086610630022614       34.70039044250931      0.0225461087047506
   117   1      7.5898901666020073      34.887604348065089      5.3383227368985802
   118   1      7.4275304103295907      32.773618413395219      4.1838073659234372
   119   1      11.382037670175711      34.838322415559325      48.701379956349527
   120   1      13.285681395887071     0.20558437565102494      1.1710580404097868
   121   1      13.683114680589295      36.583826114872025      2.1719285653316205
   122   1      9.2146832888202681      38.251065956973903      1.3563972741918651
   123   1       11.38905425517304      3.9201476780649505       54.13471596595577
   124   1      13.404575938243616      4.3311454035484074      1.0991151852912238
   125   1       13.11379414042749      7.6851070505861054      1.3056908347836749
   126   1      13.440995530222008       5.989707280799232      2.9003908546188888
   127   1      13.126717694217243      9.6515748909246248      51.730688696744387
   128   1      11.032309760457697      9.9795785767645402      53.318607879807935
   129   1      13.357107346574688      11.510707751245494      1.4609947405838302
   130   1      9.6120358178325862      13.639900354334618      51.431685290556295
   131   1      7.8618529048415748      13.528559535136123       47.45732863878488
   132   1      11.397548298612882      11.945409525879064     0.22302733194863994
   133   1       13.68909740690922      13.439316020856024      2.7030349408181351
   134   1      10.170559471822516      13.619682823311834      2.8702011699877885
   135   1      9.4779647627390542      17.165509165915054      3.1369015770868258
   136   1      15.066153634414595      15.200030403044886     0.33880132360499127
   137   1      13.362240202931964      17.376919128170726      3.0788218424591034
   138   1      7.2373035400965939      17.183170113824396      4.4037112241952387
   139   1      11.260578492407923       13.71770286574262      53.228291427960592
   140   1      13.624994764494236      19.123698759718785      1.5648932516988114
   141   1       9.622694897619974       21.01624399569684      2.5451126494942864
   142   1      7.8769652592436401      20.892221319136699      4.3524986714019764
   143   1      11.542239252238474      24.936615925894543      53.074618565317287
   144   1      13.495616121272031      21.018527855345752      2.7331687987194089
   145   1      15.244225580629758         27.016421875654      54.288743663083331
   146   1      11.435188981354804      25.209353197157515      4.7783986916511152
   147   1      13.217514624866149      29.055754902675694      2.7791374024219655
   148   1      17.101527121807166      27.102716094444233      1.4347673467573834
   149   1      15.120755600372705      26.991744463586738      5.6241731600296356
   150   1      11.340692607753251        28.9463883396825      4.7553634627628885
   151   1       9.672569198979053        30.6423059866542      2.0265578720839832
   152   1      13.378738729193147      30.916300953640405      1.5217754664034926
   153   1      13.653958741965347      32.501117054154435      3.0734967057757006
   154   1       11.97718837836802      32.656555859183271      4.4892592627536709
   155   1      11.210508394642131      36.401138802115867      52.951514125938623
   156   1      11.902413782064546      36.117384463251916      3.7661634787871079
   157   1      15.557441620984962      36.597356766421953      3.7231493965241058
   158   1      7.5587290240500442     0.32094697664979704      5.6299988814584969
   159   1      13.311611707309975      36.488548303569274      51.824666483896991
   160   1       17.38851016491429     0.30208736538364694      1.4797112794417215
   161   1      15.471896855578086      1.8557950111062786      3.8404193106856517
   162   1      15.304603792623613      4.0252204366856317      5.1023287796888814
   163   1       15.17119483270578       1.983271397059637      52.724657567635141
   164   1      17.109496364467923      6.0424211623367237       2.645012759741983
   165   1      15.278124416269018      6.2490850454001103      3.9764266355005944
   166   1      16.985506185871014      4.0937193506826315      6.8426462610864416
   167   1      15.233182807931968      6.0384268400574586      52.717918029860947
   168   1      15.311874233249938      7.7285666740505707    0.085422552437353125
   169   1      15.400673505937869      9.6270742998635441      3.9540026910896713
   170   1       13.45006033815776      7.8405755342827339      6.9629469373284518
   171   1      15.028415152688213      11.484990086939927       54.15491266538266
   172   1      17.147805478401256      11.848272200261242      1.0314199829730797
   173   1      17.186769604785994      13.387796916864673      2.8710169204281648
   174   1      15.306632488721721      13.132536605071321      4.2462277608106769
   175   1      17.027700779484466      15.303942388897584      50.631493038435607
   176   1      17.121767497292453      15.268637487300911      1.4780633910794574
   177   1      13.112810692342416      15.338374110923418      1.5866740527036984
   178   1      15.621839485771815      15.459197693850632      5.3551427200194563
   179   1       15.40424911403017      17.237717548265518      52.986136781476581
   180   1      17.071281883994953       21.63653206216356      3.1216489888619448
   181   1      17.209981802063862      23.529111596338041      1.3652400833204998
   182   1      14.900801309365503      21.433441751450008      4.4314902725290271
   183   1      14.961098761391661       23.46266990449578     0.56835981859626516
   184   1      18.673913669560957      30.986284718988749     0.26667537608234387
   185   1       19.05147261809492      25.265151273450982      3.7439372688401931
   186   1      15.376486422512128      23.232600971201656      5.8248997528285535
   187   1      16.942128643238089      25.313857355607706      2.7309275041200989
   188   1      19.229826218838546      29.240766750300878      4.2273530127791012
   189   1      16.935331000136397      29.111815882288969      2.8880838013526744
   190   1      15.255270377009152      25.075267506861536      4.4532986868537563
   191   1       13.48738195709236      29.086251278256157      51.818291161718705
   192   1       15.06684309244593      31.113265597946167      54.063561464908517
   193   1      15.060330328308314      35.077756224409221       0.341205908670838
   194   1      15.615657296707781      32.539728849123982      4.4379029095677662
   195   1      15.430563165253499      36.647660853767725      52.773864618344547
   196   1      17.456878348402956      33.599071211444425      51.701992379588511
   197   1      17.567987925914569      2.2388450804632116      2.9419068221886291
   198   1      17.501841406056911      36.814226360543636      2.6205246573851837
   199   1       18.97180440645382       2.304175392876183      53.022031741659653
   200   1      20.847384003443707     0.63823932273595119      1.4806328980515422
   201   1      20.968356236955945      2.2675176161736879      3.0249635790117511
   202   1      19.173898975756792      1.8285657481568696      4.3324153044173057
   203   1      17.202732855832956      3.9944162296031234        1.12129526848711
   204   1      21.184147363969004      4.1452416651019313      1.3176505389754294
   205   1      19.365178354325877      5.8707352027722122      52.588063074948863
   206   1      19.034515443558679      3.6816652872881694       5.613662861655996
   207   1       17.29202061894139      7.8783270518937831      1.2550594697516542
   208   1      21.447455617482053      11.644954764549478      1.3867953359065146
   209   1      19.275260484838356      7.6805436466212926      5.2579513915423268
   210   1      19.190940286331521      5.8324577379693672      3.8099791368587459
   211   1      19.569582250572086      11.759640388998291     0.12976052852552569
   212   1      23.071236646823344      11.801582973763516      53.977737299395827
   213   1      21.388541830708327      13.494959440469321      2.6576177621429804
   214   1      19.355602184771008      13.578011933844897      4.0566742994385425
   215   1      19.271395372094233       15.68566803872184     0.27929930525933744
   216   1      21.142883065071832      15.517136938856673      1.3654438606451187
   217   1       21.15633545949597      19.161853319477398      1.5079288936194415
   218   1       15.58730033597838      17.366696452018878      4.2250281050892822
   219   1      19.165620111917047       19.45026915639377     0.33359357060655825
   220   1      17.368607264547098      17.446557590081383      2.5982329281436454
   221   1      21.294563670317697      21.306417071669394      2.6677895388768573
   222   1      23.083099355155966      21.230908285661673      4.3121076155782836
   223   1      21.120781816819182       25.16581443467334      51.604820662395966
   224   1      18.939820355693833       21.20432157634156      52.920346076121646
   225   1      19.016252387283927      27.581958101965501    0.075419835274112876
   226   1      21.191408208991739      25.213873889419865      2.4893178451227178
   227   1      21.251987403555628      27.371210312907436       1.463152472052295
   228   1      23.107698373602755      23.269194388088959      54.209946340088365
   229   1      17.232722981873295      33.047192307429597      2.8214620156892796
   230   1        20.8732323058581      29.314614101050662      2.6409605892387367
   231   1       19.17807030468159       29.13127166552151      52.873199023547393
   232   1      23.044591386503186      32.952026617271557      4.0070438371598334
   233   1      23.528845227594992      35.147532335180699       54.09763039103008
   234   1      17.092522591424242      34.943043805005317       1.490727684360547
   235   1      19.293816826922118      31.115968340969243      48.936925121419115
   236   1      13.160415991741775       33.92309514926778      0.8834810485238358
   237   1      19.089552415737003      34.894214879505135     0.20373100516943607
   238   1      18.867048406115693       36.90353204744904      4.3386309625602717
   239   1      22.705482943625466     0.34315109209160199    0.094821176438983773
   240   1      26.969577203985335      1.9413873542147502      53.036247164254242
   241   1      24.611841568038408      2.1949539478151072       3.013602033114863
   242   1      18.959526826495345    0.079523160699445233      5.9567532261936416
   243   1      23.088513419412507      4.1278261950134354     0.16680260044089429
   244   1      26.605158709182742      2.2940293325412142       3.999436636891665
   245   1      24.453144586945037      5.8477921426866661        2.63690085736761
   246   1      23.238827506974189       5.920081473931087      4.5308116922581698
   247   1      23.150316869810112      7.8906910455298354      53.940896755249504
   248   1      24.678962653535827      7.7306611506450755      1.5922880088290419
   249   1        24.9813471434124      10.137947460243362        2.78025554411116
   250   1      21.464822203579018      9.5121929885285503      2.5485419914845364
   251   1        22.8417140594979      13.864695556722261      52.666162067465201
   252   1       24.94921883829587      11.751061994756748      1.3317047990810598
   253   1      24.807759482688997      13.668206680135381      2.6780769417870034
   254   1      22.889017554025138      9.8749761040506705       4.329726809248017
   255   1      22.895343903028426       15.63926814438436      54.051699443698411
   256   1      24.659236437271897      15.566408143262084      1.1776492043425724
   257   1      22.878528669494148      11.721186079403816      5.7030746654950111
   258   1      23.038642054029612      19.398453743568286   0.0087700225324624567
   259   1      25.120488158297785       19.35604513277924      1.0813366744209807
   260   1      26.667924649174342      20.988976921538121      3.8077344205375407
   261   1      25.238555051275249      21.334820300472515      7.7371077453017172
   262   1      23.016429850526485      25.142597962117062      53.108455362230224
   263   1      24.411775895004293      20.940980056908945      2.4979752425839705
   264   1      26.936235844343734      26.942369275702767     0.10957303908313636
   265   1      25.131979107537422      25.256867874281301      2.8942243351844903
   266   1      25.245487979959439      27.188750371666746      1.7270306169886567
   267   1      24.934237141640928      29.236866824024418      2.6110594231988999
   268   1      24.963945524602256      30.874487035294866      1.0320179293730241
   269   1      16.712109055268336      31.049716613495928        1.63306130079958
   270   1      19.371326774523986      33.178656816021174      4.3435222906739215
   271   1      22.965020364935743      32.842717133110447      52.560921747082027
   272   1      22.981360139927364      36.630147719319048      4.1154959118540564
   273   1      22.964153033378953      0.1628125847255924      5.3937255671917024
   274   1       24.86951674709405      32.654450420221778      51.161769522799482
   275   1      25.328336048995926       34.75297425821708      1.0147759713520583
   276   1      26.718995392552142    0.095245430357870739     0.11524486168549385
   277   1      21.405725615945705      36.887773638967715      2.5203928556114783
   278   1      28.634417032591706      36.810451729371877      2.8983112829698494
   279   1      30.678554822523221      1.9769903838218994      53.144838604171902
   280   1      28.820255233191482      5.9382862654522306      2.6752012814542132
   281   1      28.765534092335628     0.14147455641819728      1.4935542354679481
   282   1      30.882384713595297      3.5252200515825391      5.7216710901772636
   283   1      26.907970198693217      5.9186052380026277      53.229035267846037
   284   1      32.718573431430933    0.075576847181523743      6.7549525705149316
   285   1      26.559876555214458       6.025277149538935      3.7741359170496267
   286   1      26.708492147714203      7.6735712256766142     0.40813536891840846
   287   1      28.829403361623829      7.9853298273254509      1.3562698157595818
   288   1      30.852460780261602      7.5447496342392109      5.3539717073016373
   289   1      28.908988582713807      9.4880356205164134      3.2150063168911873
   290   1      32.550125833256097      7.3743452712338398      6.9465021261077515
   291   1      26.621075620602802      13.586832867678686      4.2088574235194773
   292   1      30.514254406166582      13.507210608266355      4.0283731002583494
   293   1      26.818850239617369      15.553814918563505      5.3836586244380316
   294   1      26.658974635885535       15.50578111634028    0.081475697886537524
   295   1      28.575751930352094      13.508397807198858      2.9163832261528211
   296   1      21.044971696348757      17.218838039482797      2.9162050784966809
   297   1      22.859272099155405      19.364106780473211      5.8761557143026506
   298   1       27.04759822832192      17.320730143499716      52.726349119439803
   299   1      29.066755777381569       16.99223762642908      2.7461473872501996
   300   1       28.47637356943272      15.175995066234682      1.3599270492481894
   301   1      28.825270205273849      21.110950840665456      2.8263039353565871
   302   1      26.794560238676894      21.272503908719472      53.087893945354416
   303   1      28.709302854904625      23.004196054769064      1.5918548502164958
   304   1      30.952483809897281      25.138380045535619      4.0017545605863791
   305   1      26.833464710964126       24.89130948598352      4.3041665104055502
   306   1      28.978077565732857      26.845803225774315       1.470191051956361
   307   1      28.789451048741711       25.10840907833548      2.7439043139002264
   308   1      28.558177800796447      28.955039712972848      2.9896663899253113
   309   1      26.471415479188281      28.980072193233706      4.2710409075922495
   310   1      20.855484382236941       31.52355974404173     0.99329348065091116
   311   1      30.850522646767505       30.46340001101537    0.054599145399970565
   312   1      30.643823185428683      32.772997233147464      4.3380977951098076
   313   1      26.790445623805198      30.951375122826125        54.2378864169713
   314   1       24.80690128370254      36.853514662731023      2.7937371203468859
   315   1      27.356458721349981      34.671080095283379      54.295310554561652
   316   1      28.735626832554328      34.608324197045043      6.6615971070869806
   317   1       26.86618711105438       34.76919472356429      5.3220927576396422
   318   1      34.116412804574693      34.343114544685712     0.37170651720919068
   319   1      30.508227490192731      2.1760389566475991      3.9724237557578927
   320   1      26.748090293959066      4.2712956329436773      5.5266415186798667
   321   1      30.560566954727818      3.8832387325143096      54.214682454379982
   322   1      28.630116347123661      4.2249123172654528      1.1130953645655943
   323   1      36.356010268386399      4.0413222190173226      1.4013855617905495
   324   1      32.501886945360972      5.8091487476552581      8.5751355386637851
   325   1      30.684123899822985      7.7352642419995252      54.140377717496207
   326   1      32.364294177546874      7.4676523602007094      1.6959662669414559
   327   1      30.874947901089101      9.8441664331752534      4.1523290948909448
   328   1      34.712795081418534       13.48241385822964      9.7064470446118918
   329   1      30.512255714194389      9.5969208934442243       52.90315657127497
   330   1      30.776116225327335      11.373211012208868    0.025235671571374491
   331   1      34.754979130279253       15.41087614060983  0.00036127973535258204
   332   1      28.787482801876113      15.393512137413044      6.6989693179861618
   333   1      36.360318543577321      12.829607826532994      2.9771166773466553
   334   1      34.648781180231204       17.05319300640976      3.8291425704418285
   335   1      32.596874223213703      22.845788203528006       1.454627653701166
   336   1      26.915559919339429      17.417156386719714      4.0129034385104454
   337   1      32.953739381245747      17.195155457838997      2.4935152499531013
   338   1      30.805938714885379      19.133570895468516      5.3600941351701978
   339   1      36.590356525266422      17.273488939805372      2.7021542095154021
   340   1       28.93448802214985      19.054763895686641      1.6624492902509709
   341   1       30.74443331304893      23.106140447291473     0.12234542170489257
   342   1      34.246479990120193      22.800593674084109     0.04553250195125428
   343   1      32.913372826548688      24.732872182370592      2.7092806218025292
   344   1      30.713183269427763      22.892886062030492      5.4593333300307911
   345   1      30.794424257385799      26.707432606514544     0.14199611927805361
   346   1      32.827194598343659      26.849654592857981      1.1421462490884871
   347   1      32.475165977205698      28.775292383186812      2.6193097544526367
   348   1      30.672343019792184      28.771181196596942      4.1622463968845063
   349   1      31.092522206464881      28.616475020162142      52.804642373824947
   350   1      30.535438130250551      36.541103959206389      53.205213601861161
   351   1      28.931854803720515      34.816167774983363      1.5484202263767533
   352   1      32.512775887567017      32.453253290750858      2.8027380831274855
   353   1      30.583719640027329      36.401994849099566      4.1527303061684284
   354   1      36.559366563202005      32.481645641516486      2.9106970365125662
   355   1      35.976630875290297     0.18546588985096465      1.8012941435158487
   356   1      34.460057791430792      36.432121698030002       4.280957527021779
   357   1       34.50043474859114      38.297398104885936    0.089271843383766925
   358   1      38.331344268873764      36.388827073900437      53.543302143494145
   359   1      34.530082819785903      4.3168297750947779      5.7092550764893133