dump/Si_1400_20/steps_91 (written by ASE) 

3980 	 atoms 
1  atom types
0.0      38.395898218429522  xlo xhi
0.0      38.395898217999999  ylo yhi
0.0      54.299999999999997  zlo zhi


Atoms 

     1   1      38.336627289088568      1.6736237727692556      53.005181326581166
     2   1      2.0534057659771325      36.517712501008255      2.6718971785708048
     3   1      4.0311708339414185      2.3059465995017723      4.3093986663536183
     4   1       1.768062333036301      3.6897598026321696      1.2947952057638439
     5   1      36.294402788410579      5.9553756784633061      2.8530629842932487
     6   1      2.1255329734701935       2.160479469789701      3.0544910449028726
     7   1      3.8979208449802987      5.9735099335236557      3.7221608652554079
     8   1      36.840345371060174      8.3339658257006679      49.792183178757803
     9   1     0.19470302554910754      9.3560727061521849      53.138873767895127
    10   1      36.488344135653222       11.48400282252366       1.169967002245619
    11   1      34.237142001372163      9.5200847727667686       4.111622099624026
    12   1      4.1393527936188859      13.541471167256352      53.067869619309512
    13   1       36.63879124725009        6.03422338299751      51.453866793182762
    14   1      1.5450019362499319      9.4356581816091882      2.8600076437411555
    15   1      34.507945642735415      17.343530730223417      4.0758247960784937
    16   1      38.253127065284247      13.373022196789423      52.822020683213559
    17   1      2.2541186774493003      15.193330482459759      1.4176165598057335
    18   1       2.020539451362743      13.357580194113709       2.652390274482479
    19   1      36.640064710687192      15.318669423369199      1.6445760259197642
    20   1      36.015522780764819      13.507648399591474      51.537381567486314
    21   1      36.499668219046434      15.357849737497192      50.278507420996142
    22   1      7.6701433771256919      20.089621845634799     0.17275974537005814
    23   1      2.2136409063678801      21.046057349288184      2.5539940159006633
    24   1     0.33497629763520592      27.013366415475879    0.025867736808072563
    25   1      36.686362422767104      25.299983255160289      2.7619041515386225
    26   1       4.009257810688676      31.010397648156008      5.4101391606193596
    27   1      1.9520615942630564      26.832813079368659      1.3734652067510504
    28   1      37.012817958139237      28.784297547588512      51.619971427879001
    29   1      2.2230957998670613      28.703216494094068      2.6589767029880242
    30   1     0.12087285270858501      33.134780759806674      4.1588142431396156
    31   1     0.16566890400982778      29.133000816380722      3.8993886657210046
    32   1    0.097043192971839193      32.782821825120287      53.023694760211818
    33   1      34.476530385797361      30.641677655433718    0.059411020749302886
    34   1       1.974147629532899       32.64219821000632      2.7634564298411761
    35   1    0.040583835197555082      34.935813076278762      5.5865121768702233
    36   1     0.48909676154201187      30.825224255386857      54.270368612452849
    37   1      2.0237394894916547      34.714216296475982       1.260548489299935
    38   1       7.791426288496119      32.636851266487227      52.487390102612217
    39   1    0.068482351925864687      36.640289463317124      4.1087111475473774
    40   1      3.7057812926847293      38.185577645881814      54.230001637251583
    41   1      9.9528466106385913      1.8470203318757787      3.0190454510596605
    42   1      3.6242943239668328      4.2899953656947112       5.545203195359413
    43   1       1.742725090053314    0.038355638919736167      6.8510643961532169
    44   1      5.8098854349525837      6.1618361776582686      2.4070835104393042
    45   1      1.9771355933386228     0.13897836483491566      1.3770629465454007
    46   1      7.5540522092736033      5.7033944118744326      3.7927784434567475
    47   1       1.828277872911281      3.8999715494085962      6.7815842221648186
    48   1      3.7226954987497258       7.851794060512459      54.229226742076321
    49   1      5.8666470321716968      8.0695592097891371      1.4020124381356043
    50   1      7.8854802828735124      9.5865982693563812      53.050469680677402
    51   1      5.8727172956958666      9.4664217479144757      3.1376769261308382
    52   1      3.7654033896676857      11.669315210772117    0.027858311050113119
    53   1       9.698741427564709       17.42130558610835        51.8359797927885
    54   1      6.0376080462890398      13.034398450834383      2.5316689432744739
    55   1      5.7897922824204784      11.641593740106517      7.2542089239696201
    56   1      7.6380726563731383      13.362662232814811      52.945270715137532
    57   1      5.7285865854985483      11.302683905594089      1.2319341327627875
    58   1      7.7543656002060164       17.55987102352352      53.314548042094273
    59   1      7.4853468566871904      17.437958185491254       4.251867229468119
    60   1      3.8353648357207137       15.08539425471475      5.4001164410255322
    61   1      3.8136863650994011      21.375391071188702       52.88108727474188
    62   1      9.2442726751505333      21.459260537316418      51.583629327533757
    63   1      1.2129638613833706       15.56671686784348      12.543645438272662
    64   1      2.5869438618084595      25.116697976074846      2.5719963477692311
    65   1      5.6166175645648826      25.175691254620723       51.35320226918487
    66   1      4.1030351845550621      23.103925835645676    0.034572763292123915
    67   1      4.2423701055850369        32.8512382111279      3.8955241389397077
    68   1      3.9480291704958925      25.488458974569706      52.994360432380901
    69   1      9.9481839284850313      26.717480993187294      1.1595552974307923
    70   1      6.1383010988135576      28.713432271126873      2.5631743514635663
    71   1      2.0771046911670368      28.996993512456324      7.8633585338577383
    72   1      4.1039219721326532      33.621586818697452      52.779048048839336
    73   1      6.1037567551742615      26.961274054114593      1.3162598459300259
    74   1      2.1901388474945778      33.147990459275469      51.396325853931707
    75   1      5.9528105304149213      36.334519600069221      2.7476226798071566
    76   1      6.1335636215035576      34.707332334305946      1.1415129892952922
    77   1      9.6742667449005602      34.566450140463466      1.4140994148044816
    78   1      5.6847923550230233      38.254001268468507      1.3166153967981702
    79   1      3.7305472412651111      0.3964375677207444      5.4097142046956161
    80   1      5.8849059628516924      3.6685859725726324      50.249367544220867
    81   1      7.4154758816364135      1.6591760004150209      52.753305120369447
    82   1      9.9927834343967845      34.732756099954429      6.9552169310998311
    83   1      7.5621411425216554      38.066432575426127      54.134267438861805
    84   1      4.0478165464496092      5.8710366343533398      52.782581383764416
    85   1      5.9430711307232169      4.2664849633668211      1.1210907731272775
    86   1       7.877725224000681      3.6109852983049926      54.208601308418409
    87   1      5.6404418827230378      3.9062823878944917      6.9552069399067298
    88   1      13.674751402596902      9.4647961623913535      52.157912779115442
    89   1      7.8971191123948898      7.7652688195816078     0.23098437756476636
    90   1      13.571506971438183      11.416397215943423      1.5709277070404235
    91   1      3.7532496301734213      9.9016235189573969      3.9777053293194951
    92   1       3.877185698150766      15.574939821853256      49.021783779712287
    93   1       10.88510157245876        13.5990564999975      4.0014643870170179
    94   1       7.799769419789734      11.500722160976364      54.293921769147808
    95   1      7.5945114515618002      15.520371408675709      49.121075083156335
    96   1      9.5013050333580491      13.627365801021087      2.1891515972124216
    97   1      5.7831234761915642      15.148596528887802      1.5096939024231131
    98   1      6.0655289771803274      25.071950804339615      2.8075512791023138
    99   1       9.417169269714913      19.607628427363633      50.224893632262145
   100   1      13.231362810102548      19.479019601804776      1.6131206593493037
   101   1      7.5865295075927417      22.849885786746906      48.384192232393879
   102   1      5.7779458612757919      21.113354452453969       8.235753655259666
   103   1      9.6468013870131717        23.0926459962194      1.9687695361888233
   104   1       8.395131539703609      26.787238869351992      5.4830613679035167
   105   1      8.1073633550605315      24.939269722404461       4.117616939571362
   106   1      7.7420086244809516      28.740789061338031      4.0473111858970805
   107   1      5.6915301824657973      23.381539525915382      49.842412102067961
   108   1      11.448461573591514      32.428683532436857      52.924651871637231
   109   1       9.754645307517638      28.608821410512697      2.9701575251066981
   110   1      9.6720395472115381      32.528692137169593      2.6856336113527952
   111   1      13.571824148466774      31.026796882067934      1.5103818398367042
   112   1      7.9020766937800184      30.753836965219755      54.097830524749654
   113   1      9.6395422872828984      36.076666855292238      3.1223324135092727
   114   1      7.7970519553910007      26.780392884741239      54.200972853777138
   115   1      5.8557445450958685      36.273018380740474      51.036799661323819
   116   1      13.507762316622966       34.66372112594037      1.3435551493963098
   117   1      7.7818618693848842      32.820995380987519         4.2593490159342
   118   1      7.8167250269552637      30.572283947185525      5.4579310261187208
   119   1      7.6252130819793695      36.558801116083679      52.589127020255283
   120   1      13.617195180041803      38.371218038124539      1.7006167283336371
   121   1      11.217707634887784     0.23742566448898575     0.33424691532275136
   122   1      9.5150310648290066      37.963817992905426      1.7643038714006927
   123   1      13.691211766331742      3.6543091191267814      1.6096839202166859
   124   1      13.589468139912475      1.8602478469795309      3.0491812667836475
   125   1      13.644276330582064      7.7399829341054014      1.7591606093968746
   126   1       13.57491272480492        5.56569539050877      2.7703047315442957
   127   1      13.526707000217352      11.314233988876518      50.303544001935833
   128   1      11.411378678825878      9.2586278425290569      53.276037161600591
   129   1       11.58200428690394      11.037167866974208     0.17999758961025239
   130   1      9.3624819694218768      13.142198764718142      51.537138385378306
   131   1      5.9804121780256239      11.322006542033664      50.101628479954385
   132   1      9.6022570160896272      11.564039528745166      1.4083123211450808
   133   1      12.876508415046786      13.752499062608829       2.667490828889584
   134   1      7.9738871605850861      13.496101503776593      4.0572913581869106
   135   1      9.7420649234963062        15.7225551813163      1.3272234704859576
   136   1       15.02863847239451      15.083019461916523    0.020264750314947854
   137   1      15.342611822290021      17.449619016760074      4.2079854240903627
   138   1       5.719051454753366      17.396474614439242      2.7642667782603452
   139   1      11.318082819600964      12.954601895630965      53.205323399815747
   140   1      13.288816621661292       17.46473339878969      2.9647351299969733
   141   1      9.7477585905451534      20.919600199995184      3.0779021314900863
   142   1      7.7733960757732632      20.915828981288282      4.4798814301355039
   143   1        11.4797408672574      24.722742297363315      52.670741832819964
   144   1      13.792802605170921      21.202797010541286      2.9872189300242451
   145   1      15.677253537149708      29.302225477452765      53.029452028710935
   146   1      11.992949309943244      24.825484631603974      4.1282493412106316
   147   1      13.582128471698715      32.751157414728929      3.1544186779343346
   148   1      17.142307516196656      27.007656612590576      1.1118817491084896
   149   1      15.163627374098533      26.852357768162111      5.7318633791056453
   150   1      11.795037107343616      29.057808828217706      4.3708632686491224
   151   1      9.7044217670126329      30.550090815975498      1.1571586652368733
   152   1      17.527943817202409      30.856779401775817      1.7994089137278841
   153   1       13.67901699840462      36.538361783908087      2.9120325599647772
   154   1      11.765206027531891      32.521451923228675       4.191069677598465
   155   1      11.461343741872856      34.597549943972631      0.1876092726985121
   156   1      11.710174339535387      36.786316677676638      4.3441632750975039
   157   1      15.473855896508926      36.613822881173647      4.4674324137059918
   158   1      7.7718752393686881     0.35941060775831968      5.5406979159209753
   159   1      11.551083884541855      36.788491833259584      53.234732840617639
   160   1      17.687234223238466   0.0056419859262280695      1.3973225591691847
   161   1      17.742017319900327       1.922256354159535      2.6570397806405932
   162   1      15.436930121265533      3.5434661909018952      5.5377275287275323
   163   1      15.918763427821094      1.8585334181332243      53.109761411036182
   164   1      17.478926750682092      5.3821748533161831      2.9774807064133042
   165   1      15.600070490182416      5.7849995906343281      4.1503836124760962
   166   1      17.104275806337476      3.9348968229229841      6.9544866664998395
   167   1      15.628064907247698       5.569541001507524      53.390612387192682
   168   1      15.529696327011823      7.4433231086086957     0.76145889135100286
   169   1      15.696137865710531      9.7660700438051116      4.1751108367933174
   170   1       13.60302279543949      7.6376620252510152       6.953350106563998
   171   1      15.494348450518091      9.2568049219290973      53.539373822388015
   172   1       17.18426587422859      11.958722205672183      1.4396168992040976
   173   1      15.079989720814996      15.666718631281773      5.5981355425727131
   174   1      13.195262731140417      15.511499782416399      7.3440356375052662
   175   1      19.359175624652966      15.180190985385666      49.109299034222097
   176   1      16.769971427711202      13.656522650651555      2.9958255773754088
   177   1      13.072922599504681      15.649283524745039      1.4045018818513992
   178   1      16.972049456562672      13.545133020777683      8.4371916529666802
   179   1      17.235933785398053      17.462865327779859      51.891767489105355
   180   1      17.554937464778313       21.23664397813058      2.6038008755556223
   181   1       17.10759032573344      23.200784579862948      1.1970897951522477
   182   1      15.686890176007855      20.917165737127533      4.2300664649855113
   183   1      15.122612113531872        23.1235332830366      54.171501503860902
   184   1      19.192356250831402      30.873752424863138     0.36441071713497869
   185   1      19.701690689379344      25.097029137461067      3.7289545725157729
   186   1      15.819461894583528      23.056474719404417      5.6478614614146387
   187   1      17.457846853474067      25.216933667584911      2.7721800964859438
   188   1       18.98277628587811      28.843872929841446      4.4481449675682345
   189   1      15.374710687898647      28.802740936040099      3.8524663355025859
   190   1      15.623418482442196      25.014641494046046      4.5232519061670793
   191   1      13.807057198647028      28.709272329861616      51.737359140913028
   192   1      17.572260022529584      28.743481261790951      2.6352486457314876
   193   1      13.465796861378982      34.408396238516531      50.576464379537491
   194   1       15.36579278219844      32.525408229291322      4.6013234432492123
   195   1      15.278610946808302      34.344998164265689      49.134865208816777
   196   1      21.163688010187467      29.001588854001913      51.527429997304793
   197   1      19.625651022519726      1.9519976205549219      4.1890299460480156
   198   1      17.424113089148143      36.685143612109052      3.0758185527644293
   199   1      17.696568816235636      1.9958847726300584      51.572065633967902
   200   1      21.519888539836188       38.15718765779431      1.6410858272246049
   201   1      21.568628441878769      1.8982688957205347      2.7544833043809844
   202   1      19.301299352941548       3.694861780052118      5.5320643188314218
   203   1      17.528658385339984      3.7528842189011313      1.3115820924463919
   204   1      21.304213091487433      3.9598123635925533      1.4774808282636498
   205   1       19.21230073321982       5.763398463659585      53.182196319809755
   206   1      21.232106773534195      4.0974124850934768      7.1297516699848327
   207   1      17.582401413111157      7.3428654941920737      1.9705928551987855
   208   1      20.896336242667584       11.59560127746073      1.7407754841394625
   209   1      19.106514786131438      7.6716618040268862      5.6899126415712447
   210   1      19.352256238018658      5.7024180766547001      4.2535771436211949
   211   1      19.045384886599177      11.559726208720102     0.30393857477903341
   212   1      22.648964881003192      12.061679361600241     0.29336912807053755
   213   1      20.734981440504313      13.522718205135632      2.9534437739107955
   214   1      18.828038304446562      11.654601625831935      5.4251857834243751
   215   1       18.79813839153093      15.419366388138354     0.47717953250644285
   216   1      20.816440579583681      15.479727640197478      1.7210487018788196
   217   1      23.274682699072578      21.402075481762896      53.189501271275574
   218   1      15.414359838861992      19.228279996071915      5.6928196192336262
   219   1      21.149749120629405      19.269138704208931      1.5734969634301714
   220   1      16.627812872089837      15.382425654070987        1.45504435961857
   221   1      21.206572753640749       21.41506781470801      2.5905656945513549
   222   1      26.816806848552559      23.007313504949465      54.205417455879015
   223   1      24.604489994297406      27.049622215466442      1.4502956991285709
   224   1      18.981231315257101       25.20131704534932      53.105137686971986
   225   1      19.153010773918815      27.255759235154191      54.296067280047765
   226   1      23.177826543284826      25.173459056403402      4.1818724274681225
   227   1      21.419757122240416       23.15549984856067      1.0204770597769059
   228   1       21.81980915193893      19.263703346552759      50.638846461620957
   229   1      18.933329659745084      33.195526172074167      4.5371909449037178
   230   1       20.94626247207027      27.390224302442746      1.8317780647406035
   231   1      15.112510132662262      30.551499390368956      49.054855197016884
   232   1      21.058881539315365      32.815896226033445      3.0062038273176759
   233   1      23.383077362264288      36.670709706555691      53.237501543878722
   234   1      15.455271029163002      34.742349026806188     0.18385660499983467
   235   1       18.70855221501688      30.648623713542818      49.159836706227722
   236   1      15.569252613055918      32.690165630557345      53.163327000427458
   237   1      17.098573115522953      34.765152414091709      1.7771430156911363
   238   1      19.416387385467967      36.853622627074792      4.2163530268621114
   239   1      23.372276233268256      38.366772033100055     0.24451372378820233
   240   1      27.331791798873279      1.5979942667595171      52.934278216902079
   241   1      27.238856734017173       3.931136098922829      53.799442705367063
   242   1      19.589581376001078     0.38962924252273706       6.125989216471611
   243   1      23.239711314723721      4.0323519826447729      54.242202556187955
   244   1      25.277358459621098      4.3369930404275339      1.1493490625689995
   245   1      24.894002885225259      3.8343412015331815      7.0043305635363007
   246   1      23.121417208882825      5.7955311607381699      4.6025673264075415
   247   1      22.883051032021594      8.0565587592879204      53.967957662469082
   248   1      24.597350391352347      7.8509379270384967      1.3662341914538161
   249   1      22.885329247048595      9.7964354491272516      3.9932755508815276
   250   1      21.105369261512752      9.7188754996390223      2.7089259238292263
   251   1      23.032416491237708      13.705474154188238      52.872287960385428
   252   1       24.86709849156772      11.549215086319832       1.474980213366984
   253   1      24.938986409985699      13.390917282902455      3.0714252454459943
   254   1      22.656857601657634      7.9012500900178413       5.320750039957991
   255   1      22.747686991378071       15.68781190552094     0.11494273451979797
   256   1      25.151070052359966      15.525244867388251      2.0234496188522502
   257   1      22.648929087355647      11.865843540883553      5.3930673937280762
   258   1      21.032932846783915       21.14594768877685       51.51263504864967
   259   1      22.786148628588528       19.51987587763367     0.23618648131786116
   260   1      28.524647797370857       17.07370019581041      8.4590016553335907
   261   1      25.046724119894083       21.31529840472033      8.1729968734297671
   262   1      21.753621019884097      25.017116859029993      2.3811011214061537
   263   1      26.831425386595683      21.139292217979925      4.1718114778129465
   264   1      24.642945250535892      25.064647700730177      52.046742187456864
   265   1      24.785744113689542      17.775277928961131      2.8862610261579991
   266   1      23.156451544448249      29.246188655073151      4.1911069013178706
   267   1      21.302599091066398      29.175960293201904      3.1610748651269756
   268   1      27.000543770789402      30.783063834429807      54.263697513187822
   269   1      17.277833296663605      32.801753680944621      3.1449459945224367
   270   1      18.865919804915762      30.854034481025199      5.5739866737177044
   271   1      23.028444750889982      34.806339692687459     0.41965349385799283
   272   1      23.719446922872564      36.753415955882573      4.5297311953249819
   273   1      25.246773570404983     0.36791718270788587      7.0575756623733179
   274   1      23.102117330319039      32.961171681869232      53.152393821897853
   275   1      25.202059244515556      32.710361885104049      2.9864147248048107
   276   1      27.048757002538188      38.141944550071244       0.394405999086689
   277   1      21.486779885577707      36.522658956428636       3.382809093950951
   278   1      28.887269577099286      36.835754311531176      3.0063214067978823
   279   1      30.867352536082898      2.1279883821725281      52.702191513760269
   280   1      28.572605055932947      5.9688246645147398      2.7167869553191406
   281   1      29.048628461180051     0.38045136452022427      1.6852089823454994
   282   1      26.943542819324129      4.3699672231914537      5.6330777546327448
   283   1      24.694036748981954      5.9557881780675093      51.857666315748716
   284   1      34.607157845841968    0.061725427264743442      5.0703510747550364
   285   1      26.653659131617655      7.8270512252547046      5.7940336708749074
   286   1      26.700922561911156      7.7624866163890553      54.244760489820187
   287   1       28.67814652252736      7.6749333979435495       1.338544926356267
   288   1      32.346919432115314      8.0107015035348006      6.7611747676520517
   289   1      30.313619031370166      9.8417612510782853      4.0998579767783552
   290   1      32.070350988175029      9.7924439381872457      8.2047300642405396
   291   1      26.737465809666894      13.701182603416392      4.4329881456960241
   292   1      30.703547467801695      13.781506224946753      4.1567763059765293
   293   1      26.756948112529916      15.598278303991087      5.6971812603257916
   294   1      26.483530395098924      15.180031986771622     0.36930942059962057
   295   1      28.587379723788565      13.594978964088217      3.0250965387610895
   296   1      21.253317242095154      17.522298875094265      3.0433687235772586
   297   1      22.896629209632785      19.570299769626931      5.6881168045340527
   298   1      26.953289162292364      17.042848125918283      53.344092191681518
   299   1      28.578301906647262      19.487029609827299     0.98959042197186431
   300   1      28.847404443246806      15.306590524756935      1.5416526965386628
   301   1      27.201133365788404      27.220415747724779      5.7173891178680245
   302   1      26.602571737333655       19.20731616817498    0.049476749678990496
   303   1      30.786804902421274      21.392868237952975      53.051227333213866
   304   1      30.685464433161446      25.008783008419314      4.0221260844007221
   305   1      26.937308021905636      23.033928133567404      5.4575955606427016
   306   1      28.718965551128083       27.20973917114755      1.5562585461317888
   307   1       24.93320352331515      27.332712998537104      6.9183040043435886
   308   1      30.682381596539042      27.247946398556238     0.06070156773899929
   309   1      29.025200281554319      29.289503071797402      2.6812722341276887
   310   1      23.371516178232053      31.006047137705497     0.33668856773479067
   311   1      28.929049248137289       31.11475892738974      1.1934315045101238
   312   1      30.960088117674555      31.007658450869876      5.4176126166361858
   313   1      26.977004934150521      32.727682681433549      53.006422418430475
   314   1      25.420298478017912       36.60715167147255      3.1832688482350679
   315   1      24.961530562934222      34.555810323540989      1.9521040937956387
   316   1      28.862725719167873      34.581975174997368      7.0243213323447193
   317   1      25.280279981585959      34.850659168501664      6.9285555707932751
   318   1      34.586757072376244       36.81825889192492      53.009485916419237
   319   1      31.124928617739563      2.3087171733693479      4.5930832316157426
   320   1      27.086391817684135      2.4623608392503127      4.4455197516076739
   321   1      30.707119541836924      3.9159746643873987     0.41642980745493768
   322   1      28.567288428636182      3.9484303334071091      1.5797105141430379
   323   1      36.553814009556774      3.8958096504577493      1.5295219187589628
   324   1      30.731787573256273      5.7001854900780424      9.7785256914083991
   325   1      30.670618415162647      7.5966744025335657    0.023275065186112429
   326   1      32.546591641249776      7.9768650577202864      1.6029395507998268
   327   1      30.383059044416829      11.768542949823834       5.244037019363109
   328   1      34.511206761236927      13.878635255741454      9.4209532374103713
   329   1      28.923050053032192      9.4804902681575136      51.511395835603089
   330   1      30.204839442906334      11.722952918406857      54.254505811300085
   331   1      34.979888776147739      15.332709792631949      54.256607667116143
   332   1      30.610757880697953       17.74205606842731       3.885971164338625
   333   1      36.261409035499724      13.266321895824381      2.8070304153732972
   334   1      34.965582295450545      19.418429546996268      5.3784193396655233
   335   1      32.894426169344811      23.280345239317306      1.2407545935293356
   336   1      26.975483224632619      19.171518299328966      5.5947256519504371
   337   1      32.734460704787388       21.37157041261537      2.7394861041959642
   338   1      30.891228547751773      19.412873704595629      5.4117101579328493
   339   1      38.387116448800803      17.249122054031012      3.8746190214774954
   340   1      28.768142533729584      21.128123607513825      2.9129724076498982
   341   1      26.639081699445335       25.16850874434223       53.43912110735247
   342   1      36.918626064103698      23.334707414744823      1.4867792583549653
   343   1       30.59303402180506      23.289398594212848     0.16113636595689515
   344   1      30.672412912211815       21.43165737216739      4.3684158146619785
   345   1      30.536256351379976      29.049612494960282      52.985829295360048
   346   1       32.97491725931922      28.729210075329433       2.858982458989622
   347   1      30.809482346180793      31.180206326851767       53.94500188902434
   348   1      32.340860716035436      30.891849402571275      1.3918126052291993
   349   1      26.747470929408653      30.788450764566687      49.024190000076082
   350   1       29.40363121691518      38.138438185293921      50.166928347063859
   351   1      26.905089842292004      34.632215777003161     0.37888317928127435
   352   1      32.942858544910386      32.788403822634059      2.8607630040158596
   353   1      30.896448799294507      36.899882332307257      4.1966986659605343
   354   1      36.574690978910482      32.788055142012496      2.6554797774792505
   355   1      34.361114743319376     0.18867751663073623    0.096082803385377183
   356   1      35.097369825729487      36.136618922248076      3.9892028533372104
   357   1      34.344743408708588      2.2722891882267211      53.014211910957854
   358   1      38.225283388558921       36.30987735228166      52.686416414751569
   359   1      34.627322603753868      4.1568841227876767      5.8226188972331867