dump/Si_1400_20/steps_11 (written by ASE) 

3980 	 atoms 
1  atom types
0.0      38.395898218429522  xlo xhi
0.0      38.395898217999999  ylo yhi
0.0      54.299999999999997  zlo zhi


Atoms 

     1   1       1.900759396062021     0.17915328022253754      1.3940387453810326
     2   1      1.9871691613114608      36.713061856426521       2.716071682323935
     3   1      3.7104585262933112       2.224807348900002      3.8922203204677532
     4   1      38.249284798484346      5.7215199698232437      4.4796628538283336
     5   1      36.207546463151992      4.0769084516966734      1.3495993038339502
     6   1      1.7365661724508177      4.0404497724136261      1.1689250991540139
     7   1       1.483605694727077      5.9200818451879007       2.597976655361435
     8   1      38.256475274341255      7.8026183289384061      54.180517348968358
     9   1      1.9501540901486274      8.0510885051972778       1.217011051522332
    10   1      2.4398169789181701      9.6450717796041268       2.632542236819893
    11   1      36.689022656430161      9.7847925289364603      2.8109239390727012
    12   1    0.033145234935065222      11.823578972053612      54.108870678049527
    13   1      1.8322084075625344      11.449433689910817      1.0934112476898219
    14   1      1.7317156602305295      13.515698543496637      2.6252646240160979
    15   1      38.318178994161258      13.643884652823729      4.1252772916867997
    16   1      2.2281719459427194      15.369436747521949      1.3056690251501653
    17   1      3.6577707502109233      15.310036729481412      53.919076713282415
    18   1      2.3054277074463303      17.243859937520874      2.6269674742558755
    19   1     0.28712997114924255      17.146918382913526      3.9207291664424919
    20   1      38.376121643666472      17.450635180214011      53.255286327554934
    21   1       38.18300588655876      19.270616381474291     0.19297367413870475
    22   1      3.9566601610836365      21.336758194322126      4.1066345864977754
    23   1      1.9813469534533183      21.411523977475589      2.9613445452466061
    24   1      38.185335239093021      23.006996618431923     0.18376578307410202
    25   1      1.5524240988766664      24.845461164864957      2.6664510218879145
    26   1      3.6684333303305876       24.96243366257664      4.0551397880858886
    27   1      37.815757238766146      25.064413924503079      4.2270186787448676
    28   1     0.10699853295797616      24.973862738563088      53.113287798310822
    29   1      1.9628734380414647      26.777393408713326      1.4060780487467803
    30   1      1.5507650484170294      28.617878024777831      2.8290276078742504
    31   1      38.066458502560828      29.244350164411433      4.3320623121904545
    32   1      38.310468636319143      30.769089638156522     0.24926095547363042
    33   1      1.7291416762721343      30.650071134483806      1.8036209166465156
    34   1        3.99941719303271      32.852846445048883      4.3794440016240381
    35   1     0.10284709869498201      32.661634610324924      4.7378688514028786
    36   1      1.9630807616165458      34.539332652278695      1.6122466665892619
    37   1      1.8219916911190335      32.722945982701759      3.3988435023767485
    38   1       5.697261092011483      36.649472412863908      2.8867382257902587
    39   1      36.277544266645606      36.471099201681433      2.8197352470030999
    40   1      3.8962823457733093      38.201144503187891     0.27477367128977881
    41   1      5.6956843753200594    0.089326073074049439       1.630967811126173
    42   1      3.7662429010538632      3.9893451132671602      5.6976595323470161
    43   1      1.6500142725283082     0.43429682224478583       6.793533520275358
    44   1      5.4778530278386173      3.8843093018306329      1.0793463885597601
    45   1      1.8204242375758279      2.2997014218471983      2.6021301434817357
    46   1      5.6126381033446338      2.2565150502523972      2.5696601762635711
    47   1      5.9150310944354132      5.5073805215036318      2.6253543755838438
    48   1      4.0391886296052553      5.6624729224981563       53.27211469006923
    49   1      3.7272256588751786      7.6667078117560363       54.11582716574086
    50   1      5.6212149720420603      7.5116486072307929      1.3473386962758933
    51   1       5.838911087876304      9.8088343999601246      2.5124669927678278
    52   1      3.8928314442141452       11.80644471151003      54.142847576021524
    53   1      7.7366263530930812      13.495530826652677      52.759069927614782
    54   1      7.5848329579198852      13.084442936532122      3.7842081657016835
    55   1      5.5878278484091677      13.391554857453563      2.5718670359338351
    56   1      5.6777648608344569      15.268849164949239       1.219478947348102
    57   1      5.9589702197336676      11.659452290892073      1.1991695721773208
    58   1      6.0935166241809675      17.042658686143692       2.714126787628139
    59   1       3.990200470717495      15.347904690305457      5.5708921227448416
    60   1      1.7941327360957668      19.219236580396863      1.5632658060455913
    61   1       5.365955547772761      19.334204405383659      1.5405355739020263
    62   1      5.6077141928069256      21.180483778375834      2.8101724118954494
    63   1      4.2016369550938908      17.245388475905749       4.029768003058722
    64   1      1.9865977770225522      23.111215271603569      1.4451628973387169
    65   1      5.8770793530232561      22.917049392392006      1.3512502345135298
    66   1      5.6362301330486462       24.80181430607103      2.7289676024112532
    67   1        3.69903717932455      26.768644285039631      5.4340539690278682
    68   1      3.8212562196665396      26.792494075738666     0.12173465751683349
    69   1      5.5169314253104726      26.801691747913861      1.2827166828537861
    70   1      7.5150857206886998       28.77816024999624      4.4002696727358819
    71   1       3.457903211046649      28.808636176506855      4.1584325610432176
    72   1      3.5765666647688961      30.515784080810086     0.11683502458504363
    73   1      5.6795095555778889      28.647127344101897      2.9574483860002481
    74   1      5.7181490139630631      32.744427225247875       2.886574036123752
    75   1      4.0622375168996729      34.857403394224008      5.5459373813705817
    76   1      5.6085584407502402      34.683858494216459       1.682830805104097
    77   1      7.7012009109523181       34.63151746790296     0.33641449471064083
    78   1       7.667905138947325      36.817588743574163      4.2397203551742999
    79   1      3.4590071560723219     0.56153726688177952      5.2229945050810214
    80   1      5.7884182290622093       1.503970794136742      51.407840579215474
    81   1      7.7933918134024189      1.7221037428075527      52.747772476473614
    82   1      9.5058555392574391      36.681942934288848      2.7698417546885352
    83   1      9.4074568665065676      38.306094279761638       1.196913189023221
    84   1      4.1597046877679222      1.6718753464257536      53.021363586620744
    85   1      7.4017730318803734      3.9094493872916396      54.158939310853079
    86   1      9.3166293348643219      3.7269463451336167      1.3070763195412507
    87   1      7.4644556326097646      5.4359825507984016      3.9710408510440747
    88   1      7.4864198624890888      7.4914539795730537      54.292084372977754
    89   1      9.5670186341764083      7.7880239705352157      1.5222383292094721
    90   1      9.5206594569002529      9.8103543095561587      2.7682778002192205
    91   1      7.8571379704303146       9.485948242893107      4.1701884289748596
    92   1      5.7934595255104284      13.375694905480065      51.098759378811891
    93   1      11.604786208538538       11.72016999596233      54.221639178942986
    94   1      9.7748043795530215      11.276323847251938      1.1139778598341863
    95   1      6.1329213030531751       15.33971783179919      49.948372246146882
    96   1      7.6999278874876032      15.376317916852104      54.189423084050794
    97   1      9.8575282293944735      15.372764540435107      1.2202590247942546
    98   1      7.8900900721766689      15.117437558872409      5.2667594865406402
    99   1      7.5666562101849308      18.917823101651397    0.022380445694068413
   100   1      9.3850926392823659      19.222727819192329      1.3973316601072836
   101   1      9.7323597373746225      21.398171136198481      2.2997710193182015
   102   1      7.8178728269489355       21.21740538342571      3.8877987925722555
   103   1      7.4515106387047316      23.232398610658599      54.261353136468529
   104   1      9.5963559167265107       23.08844357739606     0.76402980687958022
   105   1      9.3672394536686223      24.500612760372043      2.6467333113105944
   106   1      7.4412313728790851      24.885511436083739      4.2633647643568349
   107   1      7.4896015575557371      28.908977177733213      53.116419873054362
   108   1      9.4018057163454216      26.582888887550951      1.6556916908123613
   109   1       9.521623167449949      28.300010570878136      3.2018334520463081
   110   1       7.826195323446056       30.74204901776891       5.658924211022998
   111   1      7.8125123705038346      32.849240056548553      53.296648876372139
   112   1      7.7429050279118155      30.828925404695177     0.19749744141425918
   113   1      9.5180193902795711      32.749256327716523      2.9942047335903355
   114   1      7.7964425241419928      32.725519074401447      4.5141100343394882
   115   1      7.3790526864008292      36.178250549037379      52.897135058907693
   116   1      11.676647635651435      34.931772904849289     0.25412603946980428
   117   1      9.4756196678980587      34.413257443885719      1.5875635441779783
   118   1      7.6205461485901358      0.2967873584506584      5.5179439968382065
   119   1      13.097538852049293      36.728106855294037      51.485031439488765
   120   1      13.446351243243644     0.32779996978670151      1.0031798521396214
   121   1      12.985381771562027      1.8788298295910697       2.566060639452076
   122   1      9.4880564257455564      1.9813243124658571      2.6007010669031732
   123   1      11.445324664229917      4.0577592905824016      53.988060092694418
   124   1      13.595813983406298      3.6823955720329127      1.3279811436840887
   125   1      13.489817102274458      5.6929653713320176      2.5105709604066528
   126   1      11.578135675673977      5.5996815423770157      3.8180273078193294
   127   1       11.79646098336651      8.0135028609358621      53.929367531710405
   128   1      13.536309922141289       7.434755156015985      1.3621581027634442
   129   1      13.224227257571973       9.591318773183005      2.4878809999174107
   130   1      11.349728713465362      9.7033746774963028      3.9101545823514932
   131   1      10.248858032661865      13.711077884785947      51.545415165131665
   132   1      13.694188608762689      11.424427934990279      1.1599682111728475
   133   1      13.606813509662754      13.349086325335058      2.4583181326835182
   134   1      11.589730370415198       13.55109194437178      3.5883432578635035
   135   1      9.8455875275687941      17.199557619895202      2.7070503826675485
   136   1       13.38204464125916       15.56042098288273      1.1896516188415491
   137   1      13.298685596675542      17.594603623634757      2.6048211307576157
   138   1      8.0754474237179643      17.148983147150325      4.0711488350006313
   139   1      9.7302052872963714      17.115829632609245      51.374052180107306
   140   1      13.172760664640652       19.40929365450809      1.4379955279318337
   141   1      13.288716977506308      21.570903299743453      2.3979197469919966
   142   1      11.539716632242577      21.257698379234363      4.0120121273757361
   143   1      11.398117594913344      24.950610089827336      53.010290642128538
   144   1      13.288330547886915      23.448026482555186      1.2641198026267935
   145   1      13.075115695955374      25.353723427263965      2.6600158661748088
   146   1       11.24430278657198      25.044295783188776      3.9400107523968226
   147   1      13.090950801374982      27.363926565274873       1.543929291388495
   148   1      15.056709920778287      27.156165567454021     0.28147740099406077
   149   1      13.407060461268374      29.030181623195336      3.0288583732226471
   150   1      11.351878537982468      28.786917995932946      4.4807055910667808
   151   1      9.5489262571306774      30.391489017588366      1.9359776987350066
   152   1      13.308792460983797      30.753714539137007      1.3184317212692098
   153   1      13.202817368839826      32.280880449171271       2.855631570033232
   154   1      11.437153346320871      32.468959628314209      4.5129101987444624
   155   1      11.310421468925211       36.75141776251926      53.071437429616573
   156   1       13.42886389076976      34.350492459229308      1.6873855367753432
   157   1      13.337620360334663      36.593028623117881      2.5595589440213424
   158   1      11.559257296982658    0.089906933288482094      5.4640423411986481
   159   1      15.253746039613173      36.299848689717194      52.834180748989873
   160   1      15.652452992545921      38.061045452663556    0.022766507079893479
   161   1      17.316094276897488      1.9080533321895459      3.1258684550008309
   162   1      14.989969683585533       1.986936078621083       4.079125622384173
   163   1      15.590204384467294      3.4079825910623907    0.095150148485174543
   164   1      16.829957025674506      5.4356837709463202       2.876163738513478
   165   1      15.212104208496775      5.7151866740296287      4.3401077254427145
   166   1      15.391900204881045      3.7066649174118207       5.588553181148372
   167   1      15.561740113662758      7.5458523787291751     0.12583935723887396
   168   1       17.33408644939999      7.0330564693038919       1.475595770510292
   169   1      17.444121976041711      9.1593710659784193      2.6160319221635424
   170   1      15.446677350455516      7.8487785625991418      5.2046927938285767
   171   1      15.843570463103982      11.748472607815517     0.03766696410285704
   172   1      17.367353765133341      11.130512483972698      1.4153003257701249
   173   1      17.100764023718686      13.366789529775163      2.5959950919041468
   174   1      15.368702159310349      13.343752690354389      3.7659619822359116
   175   1      17.465768117968533      13.603566539182586      51.492877317065179
   176   1      17.413775154840213      15.654488267900565      1.3701639918735942
   177   1      17.300880426713874      17.342661417304722      2.9552493707573952
   178   1      15.211535659219082      17.252100132407421      3.9044856884673114
   179   1      15.483901204719766       17.40955154295963       52.97221541785121
   180   1      17.285288325076497      21.250064127072129      2.6650616646725869
   181   1      17.017473777841936      23.330035734130146      1.4545898847589787
   182   1      15.313345841487102      20.952149611107018      3.8493772177008476
   183   1       15.04587209734659      23.389197437034195      54.075414281248612
   184   1      19.085695521413545      26.810380230154895      54.201358313544951
   185   1      17.462064252934255      25.411048222255257      2.4764416249362071
   186   1      15.195838726739616      23.191267585832726      5.3002181598647331
   187   1      17.484377933872413      27.306721639643861      1.2863554806872932
   188   1      17.062435474629766       29.28390467094885      2.6430008687713911
   189   1      15.481195559131015      29.261896562482217      4.0766140412196821
   190   1      15.009960367349089      27.180703524461588      5.2168332764330314
   191   1      15.056370517705393      30.979843951829199      54.224124944357285
   192   1      17.021116158117763       31.21870102802383      1.4475629993128563
   193   1      16.980885997277994      32.906694263956538      3.1010870124785819
   194   1      14.995609379506169      32.843359200990498      4.4139255867106373
   195   1       15.37160438107567       34.78287675602725     0.19446582627845152
   196   1      17.303310193912409      36.588432109348631      2.9430835718111559
   197   1      17.522274805825841     0.20140153955442527      1.4779857600003745
   198   1      15.172165589190575      36.863106425264348      4.4672630141528007
   199   1      19.490752036986493       2.329085679186409      53.126981518739179
   200   1      21.012794007824095      0.0862627112293535      1.7431639485416579
   201   1      21.307273838942251       2.106817986754761      2.8806167683850372
   202   1      19.470998176273746      2.1905053936939951      4.3146357272510398
   203   1      17.556162645574094      3.6505685599886295      1.6632747907964915
   204   1      23.002317145208348      3.5835103945241764      54.154669758160878
   205   1      21.451352496541933      6.0112973851510523      2.5889542574750859
   206   1      19.619158452258965      5.7212544551821569      4.0408419622452154
   207   1      19.130387226377852      7.6986496217821756      53.923521909572862
   208   1      21.171098064938018      7.5018491309209807     0.99188800454980985
   209   1      21.095733798623478      9.0731556986302131      3.4172394873402836
   210   1      18.843895474855426      9.2905895888557719      4.1871748727573292
   211   1       19.22589102956757      11.132484367632594      54.148911970066997
   212   1      21.177459455253743      11.504383537487367      1.4522440859083441
   213   1      20.999005312901975      13.364687467905897      2.6876781311113072
   214   1      19.113883890505086      13.324893989497077      3.9037121349156685
   215   1      18.996668198119327      15.406486677430511      53.919235807707743
   216   1       20.79240966117943      15.483713429873053      1.5631332664624416
   217   1      20.491546844241132       18.92174425936479      1.5538208485711393
   218   1      18.841188510449591      17.504926239127673      4.4882561634416707
   219   1      19.441487601169776      20.821491823911241      53.163986650019368
   220   1       17.01745786781683      19.038498226967704       1.456782006777392
   221   1      21.067288133922577      21.020213650893449       2.692626499092603
   222   1      22.975633840564583      21.552831547000711      3.9634439762166727
   223   1      20.871104093131606       25.01855965822492       51.70779928522925
   224   1      19.180702571185567      22.768650385089444     0.16802590559842642
   225   1      19.108268127329318       24.82224663407905      53.043662174896482
   226   1       19.33630824107825      24.969758218200642       3.880682387034688
   227   1      21.151154169202716       26.96944298456253      1.2723245588958685
   228   1      21.083775998131873      24.932666403891105      2.5693870893271202
   229   1       21.10625871250042      31.157812623505396      1.4925906993002966
   230   1      19.215080071604941      29.053478203026575      3.8296526389746099
   231   1      19.295717848802774       28.96793722756474      53.075145838755226
   232   1      21.207204882867764      32.732196189740407      3.0622104210682188
   233   1      21.179686325878329      34.621924051473762      1.5987607393990744
   234   1      19.007707939031182      32.841112185256058      4.0957404336926517
   235   1      19.211444617263062      32.873815543285836      52.971383909079783
   236   1      17.325923258397101      34.521932410848095      1.6217596246926991
   237   1      19.173850498405468      35.058729691923091     0.23767628048866554
   238   1       19.13487154435035      36.819236956753315      4.2504635844231675
   239   1      23.105986656213272       38.26547017602843     0.34336685174415621
   240   1        26.7547760744527      1.9818594814901187      52.866589918006504
   241   1      24.994456902920408      2.3559731210505017       2.769846621006034
   242   1      23.244954604146681      1.9291640879975835      4.1163979425757038
   243   1      22.868135147937831      5.6738007857410686       52.67490032286743
   244   1       24.90332097955373      3.8925910418314205      1.1002680791005897
   245   1      24.939100594355565      5.7143523024973151      2.7571829200121694
   246   1      23.055202137942203        5.47740797411684       4.170847169897117
   247   1      23.133086348663916      7.8233875496281131      53.839055102644281
   248   1      24.945182415045135      7.6204974828209453      1.0443244128533145
   249   1      24.970388186716487      9.2810605856575741       2.853440578697267
   250   1      23.098208615503822      10.109685112109423       3.949606542718608
   251   1       23.19858691133879      11.655981865212096      0.3306501934821312
   252   1      25.141704081183722      11.428866214327526      1.5237104464661442
   253   1      24.770473880939189      13.392494988273418      2.8124722346518887
   254   1      22.768257607504172      14.112285818947443      4.0099231319057944
   255   1      22.789535355779769      15.606610516826258    0.091227727601813052
   256   1      24.801559909083718      15.302116996777727      1.4122362478621446
   257   1      22.966789155002516      15.672565417143728      5.7403071229508695
   258   1       22.87979882772801      19.168514448214175      54.287548417027509
   259   1      24.772153767710481      18.966161448694631      1.4030391475552484
   260   1      24.635292152511965      20.991899113656199      2.5954514589925011
   261   1      23.338190974432315      22.945666698142659      5.6326788831814998
   262   1      22.973774636119771      23.236975600494688    0.020161739958359706
   263   1      24.636361284494175      23.233197606607234      1.3281877118979533
   264   1      24.890436430970126      27.041687937519235      1.1301461766010343
   265   1      25.035240871189931      25.356841426238848      2.5532761758624449
   266   1      22.888175409649328      26.953842041747773    0.018138585492931725
   267   1      24.756514286467915      28.865392719829174      2.7941509311159494
   268   1      24.923924819710415      31.071206788476548      1.3038334895225399
   269   1      21.197535936778316      29.097292795801845      2.6920577224355404
   270   1      22.991658212573121      30.942891533427787     0.20816799132004449
   271   1      25.159896150514122        32.7302987518188      3.2231589812814851
   272   1      23.197401328295129      32.905426918890903      4.1677708402027758
   273   1      22.829692584006771      35.118531364085335       5.557416048011377
   274   1      23.161473540002849      34.502298261815035     0.10207693266212368
   275   1      25.141109697379534      36.598719736329492      2.5532384560897663
   276   1      24.998330424094018     0.33575560908943292      1.4272696026061795
   277   1      21.013150712291623      36.670111890593496      3.0297221892541959
   278   1      26.378803957962806     0.35425125356148118      54.049256225115855
   279   1      28.819196869966245      37.937017488479704     0.96337548211009649
   280   1      28.641774603960879       1.612290640030956       2.265491322070782
   281   1      26.978458932790179       1.802830150581026      4.1001787019109761
   282   1      29.178221722051351      3.7054005217450587      1.1634735477157609
   283   1      29.155654583726108      5.7502939364018095      2.5387179895533549
   284   1      31.005550258173141      5.4552944627213753      3.7589592740659219
   285   1      27.227515796057073      5.7905446680669073      3.9009877290470949
   286   1      26.882445841647858      7.5244277795737187      54.085098808363604
   287   1      29.166116943292725      7.8129242024471637      1.2217364024096578
   288   1      28.871869141646837      9.5796116174298565      3.0026384215782032
   289   1      27.278554777143725      9.3921903834319167      4.3582730486618164
   290   1       26.73817735965515      11.242203734144457     0.10593443176061307
   291   1       28.73727991420423       11.27451823464232       1.450859367787539
   292   1      30.549686843659572      13.603479303458903      4.1686344955398766
   293   1      28.556388667465701      13.532747381355488      2.7852802212126324
   294   1      27.062576662473102      15.102492396562933     0.18260771883711888
   295   1      28.994057957420566      15.448194559168829      1.2711453180680332
   296   1      20.893296574093526      17.237887348291896      3.2193322099230706
   297   1      23.298558389211934      17.449020874091332       4.250540152268127
   298   1      26.547938490184809      19.219194656840862   0.0096262854373435468
   299   1       28.87348690070548      17.441928927979568      2.6325649616542957
   300   1      28.516686034698463      19.229463764081718      1.1858107242308966
   301   1      26.654768669023596      21.114048098025311      4.2267313077814697
   302   1      26.351869991954018       21.37682431188346      53.238954542968749
   303   1      28.849478322157008      23.161383980145562      1.4725646710461764
   304   1       28.60310637734726      25.104010300883804      2.9396257311537406
   305   1      26.896073230633906      25.116150195371109      4.4396971643100658
   306   1      26.802295450982701      27.072919190431598       54.25326145599108
   307   1      28.534289971024762      26.952421313216782      1.3412808881130653
   308   1      28.786847359353001      28.632025811087079      2.8667767395583836
   309   1      26.635765087320447      28.847713507045412      4.1385453994529469
   310   1      26.817141084131734      31.042416800667382      54.292409789911645
   311   1      28.788361708495202      30.580251586912979      1.5292620754623278
   312   1      28.738197481583128      32.881312555781172      2.7453026590965233
   313   1      27.247196139084121      32.625707804326446      4.2951554802113927
   314   1      25.137490310704258      34.354949722326296      1.5882291458536679
   315   1      26.998329231093649      34.753351768182995     0.17316474298921755
   316   1      28.975261581635387       36.52837345314542        2.88582187493465
   317   1      27.056215856728318      36.125296417502973       3.977094777174524
   318   1      30.908194056087204    0.038257394576382345      53.980667775097693
   319   1      34.399120458011723      2.1671704478089118      4.2839223801185105
   320   1      30.417297853233933      1.7531943199882145      3.9019946768586804
   321   1      31.034086594989915      3.7305823684367789      53.969832356970855
   322   1      32.342977336470497      1.6517429441543734      2.5175419860099288
   323   1       32.38650489670804      3.8295242868309014      1.5576655744211148
   324   1      30.525024860913973       7.389038323525436      5.4352988954068104
   325   1      31.082372113171392      7.6164182832205061      54.190301578076436
   326   1      32.855366568823563      7.8574132170709561      1.5057591400445205
   327   1      32.785396844403841      9.7064546915174699      2.6620001589066766
   328   1      31.243204881440544      11.277182180884468      5.5833218277095069
   329   1      30.675069088037521      11.296639571589967     0.16308218718756978
   330   1      32.861372568058606      11.612586728779506      1.4157865558734559
   331   1      32.377557756140597      13.546950899275979      2.7952270314871059
   332   1      31.087311064078079      15.490221665276293      5.6490622901903889
   333   1      32.590002769972784      15.501023732530344      1.6444148097456162
   334   1      32.751388304261667      17.567955255432018      2.6949940033608644
   335   1       32.61510788340027      21.081383828714937      2.8050018173904396
   336   1      27.123306394805393      16.961222175568132      3.9977544417744091
   337   1      30.478624249209695      19.189313396705334      54.293725800575693
   338   1      30.473858894148922      21.193494637599901      3.8599552164639563
   339   1      32.726371494878812      19.027925919892741      6.7361863452378863
   340   1      28.590152756718069      21.603089241146588      2.9631847320311837
   341   1      30.584744847989914      23.158829386766321     0.11294719577558668
   342   1      32.413278782023006      23.082724804697836      1.5428268293807506
   343   1      32.174129687574258      25.136003193672199      2.5897889736937154
   344   1      30.592795912736591      25.172903024741473      4.3111984912132346
   345   1      30.553812010163433      27.207539532626232      54.183515310744852
   346   1      32.721305102139922      26.618828898525678     0.90611799684669392
   347   1      32.639418661073094      28.955457488425832      2.4053364651524132
   348   1      30.862910894197977      28.793915733174092       4.000846459385242
   349   1      30.768568759810741      30.944059352816197     0.38033120265550885
   350   1      32.575913644803528      31.050708532051718      1.6360809977608497
   351   1      33.077721636800142      33.646369072916819      2.3991822472294642
   352   1      30.703226307895594       32.51492403819465      3.8583303582067732
   353   1       29.17330333235849      34.624458065240241      1.5522763860708877
   354   1       30.89692647125257      34.782714667418553      53.923844648157946
   355   1      32.866042093955464        37.8832531274997      1.4459212920784357
   356   1      30.853549128803525      36.488837910200921        4.20954504960031
   357   1      34.536696390781863      38.265613051327236      54.242239846864919
   358   1     0.15710707012905706     0.15838797675915972       53.97941423003067
   359   1     0.18424727687331002      3.4196812203797484      5.7507660188990313