dump/Si_1400_20/steps_31 (written by ASE) 

3980 	 atoms 
1  atom types
0.0      38.395898218429522  xlo xhi
0.0      38.395898217999999  ylo yhi
0.0      54.299999999999997  zlo zhi


Atoms 

     1   1    0.097171678318083848      2.0753795963781019      52.919616720478388
     2   1      1.8032083171055917      36.299616372990222       2.359356299406953
     3   1      3.7701555375827134      1.9119050407381919       3.810882376261167
     4   1      1.8369746363171626      3.7254047986519367      1.4811015965086636
     5   1      36.601726553796397      3.9332214864016017      1.6571037358846548
     6   1      1.8562705235525729      1.6819893098098337      2.6325780876391844
     7   1      3.8596445770548113      5.9711848579726965      4.0836027033887943
     8   1      37.700597185345302      7.4414196303245204      54.276976164688179
     9   1      1.4395435920460184      6.9112094986554702     0.86074253860071981
    10   1      1.5719434107250481      11.365661512372922      1.6971013274514257
    11   1      34.307270512082688      9.6704565038990538      4.0840585107819729
    12   1       1.672173033871462      13.469375270166141      51.838767833818409
    13   1        38.3513668624582      9.1409848101021236      52.983936105699748
    14   1      1.7751818952412211      13.363596894738935      2.8921505313863909
    15   1      34.532439925379407      15.475607530374756      5.9000352872421722
    16   1      2.0466868382832137      15.625677023777726      1.8655152079965751
    17   1      3.5015008294993519      15.397214287666884     0.15158165472486201
    18   1      37.948043258597302      12.845482346732259      4.0957584797882625
    19   1      36.481690532218956       15.29168634614329      1.3571725524293241
    20   1      36.307318355955417      17.255027376252215      51.713420060296968
    21   1      38.242612129298323      17.475797392199183      53.106380089112868
    22   1      5.5526582019741753      16.965036098194531      3.0419181347527009
    23   1      38.195974121889016      19.012690708894933      5.4009580687597785
    24   1      38.123767841907039      23.226782978868279     0.32585216782606519
    25   1      3.5054146062774123      25.079823528668769      4.3000706644900779
    26   1      3.9756462581405199      26.954217281324869      5.7732222270089668
    27   1       1.535842170552485      25.229679285022048       2.893393256039678
    28   1       38.17640749043386      25.263691918710013      53.188764378626956
    29   1      1.3693780052060394      26.972974610937186      1.2028921615313717
    30   1      1.6524239910989313       28.69616573046077      2.9741888809967469
    31   1   0.0013896412864286872      29.186930869366272      4.3896006527824714
    32   1    0.096928160304290634      30.759789657957935     0.02913205970129408
    33   1      1.9388182575231092      30.406796646282025      1.4859589972225207
    34   1      3.5707969717471424      32.714255238252079      4.3919559508349018
    35   1      38.045907125655866      32.622066514712259       3.625714154643743
    36   1      38.143463968916713      34.216516694240866      54.070727383623762
    37   1      1.7045159964818397      32.487899026207515      2.8074191883166346
    38   1      5.3103439231708123      34.239735891375503      1.1091801121077201
    39   1     0.03579558210154915      36.445671940703036      3.7486435720186249
    40   1      3.5858731287858907      38.133046492706058      54.137306349779209
    41   1      9.4201106583918097      1.7733116413387668      2.9430418124970172
    42   1      4.0859587859568602      3.8698315149047824      5.2923145408154122
    43   1      1.9194479626830283     0.14184835459288667      6.6152696157313837
    44   1      5.8082563145604471      5.7882488901883988      2.7295492701322583
    45   1      1.6377138294903928      38.194905492143569      1.3050280995262722
    46   1      7.8780102953307036      5.7626942098537697      3.8756349190950137
    47   1      2.2465146334118722      3.8312106129575234      6.5767463003481961
    48   1      3.7764525203246091      7.7227192381759693      54.247677256447993
    49   1      5.7260413436870943      7.5700565126384438      1.3104881230021743
    50   1      7.3800877267523184      7.9663116694216995      54.178065937475345
    51   1      5.8220400931571543      9.3984917338093812      2.7759746921874897
    52   1      5.3204315764063139      11.547396990565719      1.7139405916897092
    53   1      9.6797312512087732      11.646025444879252       50.29206793756849
    54   1      7.6156964294489153      13.753277325057168      3.9901979233963401
    55   1      3.6308102724989411      13.186905584864498      4.1502866992425087
    56   1      7.3777211445655437      15.321529547013494      54.002898110220634
    57   1      5.5979025191710363      13.780271557819166      2.8427455737832941
    58   1      7.5336732490788174      19.609855996907498      0.1287480084668689
    59   1      3.4942392098663095      15.167417945967424      5.6535445275785827
    60   1       38.24461970194794      21.422886124601664      4.2644430288527158
    61   1      3.8367581548421921      19.225378766155227      0.1790746486032278
    62   1      7.6052814570958791      21.435986946965119      53.027827068009579
    63   1      38.159308948983792      14.990668824250145      5.3075326013034303
    64   1      1.7416097327009306      23.328752241555666      1.5639475424227864
    65   1      5.5274843608077742      23.225949558082721      1.5650602611883297
    66   1      5.5427701906879205      24.839626358684619      3.3252696142562379
    67   1      3.6445899985204302      30.510335125767515      5.5870951901255896
    68   1      3.8044155053017419      26.840379686255904    0.051002533750886411
    69   1      5.6627809489743814      26.894186431904451       1.666712538462547
    70   1      7.8311391309547354      28.677215994629222      4.3899305748278596
    71   1        1.47131253487664      28.996363765404226       8.036136696387997
    72   1      3.8848914493108202      30.586710943357421     0.32779228046847481
    73   1      5.8368470662229894      28.749306643366474      3.0807495993955851
    74   1      5.5829309271044094      32.635209436423303      3.2195772768248867
    75   1      3.6865143502158495      36.455653472124297      3.9042852857198898
    76   1      3.5230140147686071      34.176738823726197      54.021290656803906
    77   1      7.6758612021982788      34.620345694278669     0.54203467451885656
    78   1      5.3081147167593672      38.157304411672065      1.2331950852011697
    79   1      3.6959816371085439     0.01953012588003155      5.1962733779472048
    80   1      5.7270066171900149      4.0342268573262157      49.829114653712672
    81   1       7.472058385037859      1.6535455776605446      53.177771833894994
    82   1      7.3932825621852123      36.586896349047116      4.1883216999763118
    83   1       7.494734107403854       38.20443556639092     0.59210141502200198
    84   1      3.9650986024729749      5.9338111785662688      52.819087477329653
    85   1      5.5567239812282967      3.8487696821954587      1.5233006435885628
    86   1      7.3053090637656037      3.6433802587130617      54.292930951000386
    87   1      7.6302886747906413      3.9179292317457688      5.6415026049384407
    88   1      7.3420393485788438      9.8056375363387822      52.868807477083529
    89   1      9.2388911562505758      7.9976937863549331      1.0891397486755645
    90   1      13.347049050211236      9.6645387182462024      2.4827672332307866
    91   1      3.7913936899482845      9.7430367048431972      4.0521434579836768
    92   1       5.976372110136472      15.428264175848959      50.229312695182252
    93   1      11.738774250705356      13.461439206405174       3.911792982981761
    94   1       7.239777961470768      11.585854321675031    0.059399789250142158
    95   1      7.6645205444126363      15.891006470074778      48.708430440143317
    96   1      9.6060037736073465      13.423219978999581      3.1016958265110377
    97   1      9.4256111227244794      15.212850891194138      1.3095663651374141
    98   1      3.7481178996954285      21.325634154671249      53.567330311935997
    99   1      9.3455701902479387      17.432525551169412      51.739522799250871
   100   1      11.237459477340341      19.520488067447719      54.237507806468592
   101   1      9.4364309627395233       21.16055254588959      51.529285122508959
   102   1       7.448338548133389        23.5333080718788      5.3718321912666411
   103   1       9.320828577499606      23.406454480957692        1.56128130443749
   104   1      9.4391167456845313      23.484708278104325      6.6837252808961383
   105   1      9.4987015182070191      25.236713189677548      2.9111352077411632
   106   1       7.578302083572372       25.54255547271223      3.9666588660880597
   107   1      7.8188585546550105       28.75257561779037      53.045128977016574
   108   1      9.7706995137402188      26.975855921612133      1.6094211750552725
   109   1      9.7638374197235596      29.034986111840009      3.0490538165925836
   110   1      7.9806654186470167      30.634240515212706      5.5517149417706504
   111   1      9.5483207947995954      32.692758572643569      51.691060013540906
   112   1      7.8126245430695036      30.796280590231394     0.18727683160670941
   113   1      9.6209877057608075      32.802240253458791      2.9366609394679566
   114   1      7.5654539210513514      32.543284683716763      4.3689378378096659
   115   1      7.4943822467921883      36.571308369798501      53.540735191956379
   116   1      9.7898899898273122      34.564126912601694      1.4775570367854363
   117   1      9.1703985715026306      36.265235432662955       2.781498223193922
   118   1      7.5798235871400799     0.10336064714501486      5.4291656849662235
   119   1      13.484885416658328      36.338167137144197      51.478433641889708
   120   1      13.345425093192137      38.116075962084608      1.5415887035357194
   121   1      13.822344690188569      1.4735420725527688      2.7232325404419728
   122   1      9.4094420957646765      38.161711017986818      1.6840169421195015
   123   1      11.428512428285345      3.9692474481911098      54.192867522290712
   124   1      13.557162733933971      3.9360289273361642      1.3037245792888839
   125   1      13.370819322506179      7.5708457455990699      1.4110985109448406
   126   1      13.339441389768904      5.6841742214000472      2.6803083402542369
   127   1      13.483128975552628      9.5347739352492855      51.436241990331716
   128   1      11.512885222967997      8.0172420698150724      54.272771604775677
   129   1      13.468793299501101      11.796216291360221      1.3467007802513777
   130   1      11.281196603430464      11.593736829695926      54.122917817818859
   131   1      7.8775440587427354      11.689723770512558      48.878839626996474
   132   1      11.736281727964975      9.8009021882282177      52.752688626811064
   133   1      13.554924595524538      13.657559408900063      2.7586768819722667
   134   1       9.484224253038029      11.887306685738906       1.257980693389426
   135   1      9.4075348780930437      17.247706117690477       2.676309111678755
   136   1      15.264394467030467      15.488886210392089     0.18275142369956229
   137   1      15.416145749049175      17.634178359554856      4.2398301465513359
   138   1      7.5987179462089589      17.154860553849463      4.0554375685195847
   139   1       11.50141473284665      15.712359197478353     0.17629136420548525
   140   1      13.061500545741971      19.166238062254816      1.2970341977551361
   141   1      11.384808148626414      21.262679395641609      4.0400495762933817
   142   1      9.2626810965010851      21.125454393140384      2.6783247490257631
   143   1      11.220752946669423       25.30526220056398      53.002423354558928
   144   1      13.342258010233698      21.029776735643367      2.6320977062741688
   145   1       13.36496325370889       24.78577157770868       2.811738814666366
   146   1      11.696432636435315      25.382678057305093      4.2440775457321953
   147   1      13.621128995255278      26.608081963492385      1.4354150776129901
   148   1      15.290903341682267      26.665179638090702      54.161654107794405
   149   1      13.659046466582339      28.837342874763689       2.537175215749198
   150   1      11.844113967217135       28.92032844323808      3.9022878231302371
   151   1      9.5473570637033323      30.993190735580107      1.5157542140203426
   152   1      13.637504461567612      30.376587434337132      1.0469614990905924
   153   1      13.460348365135424      32.032526518368506      2.7958563407995354
   154   1      11.334844898247411      32.417655689203855      4.1058845746732908
   155   1      11.799540637825027      36.564828163165672      53.062492408418095
   156   1      13.750856478805249      34.235048296318233      1.7472513109496757
   157   1      13.546808065320064      36.192486985072904      3.1680628331696647
   158   1      11.879287389789422    0.032572885921842189      5.6515131755295887
   159   1      15.428373223047496      36.535080647155446       52.87019744761507
   160   1      15.332013054487437     0.22232829337352555     0.11282474934204173
   161   1      17.628947365394229      2.3748238905585173      2.9487366804645965
   162   1      15.659188966223287      2.2834296416274986      3.8567174586881969
   163   1      15.443233366178662      3.8084850137256381     0.29065381693600317
   164   1      17.216303056213199      6.2478054333632222      2.9913518458169177
   165   1      15.260631894987496      5.8192524246355308      3.9461472956776658
   166   1      15.699240661903923      4.0819746520782747      5.6531607431696953
   167   1      15.340531231052431      7.7200838753610466     0.30681621576301293
   168   1      17.308852415957478      7.9802958130084072      1.3440493503170512
   169   1       15.24877497062846      9.7629257573233215      3.7161957755288562
   170   1       13.30387306037116      7.8053626620712118      6.4194510661637656
   171   1      15.354390833919158      11.827015281605856    0.017467725316646483
   172   1      17.342883875571964      11.810215913716826      1.2619725036052598
   173   1      17.102221540369349      13.965835277948202      2.6041823847161263
   174   1      15.441126004461152       13.81194881661855      4.1930191320014947
   175   1      17.178985385405532      15.621734323024162      50.685080948073157
   176   1      17.382932850986997        15.6801400857355      1.2094173057826747
   177   1      13.404870126333575      17.521269579203455      3.0429842438072803
   178   1      15.623766467339726      15.917965149986065      5.6163542021867841
   179   1      14.896427563810395      17.299882024229174      52.945169757933236
   180   1      16.990837200058191      21.326838426044123       2.581389741432385
   181   1      17.322436019040332      23.164944614681232      1.3677107873698455
   182   1      15.073131683166793      21.221703005818735      4.0254039432962951
   183   1      15.335193255189836      23.072045603752013     0.01096244826591149
   184   1      19.144289972686799      27.099805958702749      54.052689758498907
   185   1      17.195000419635594      25.152949566695472      2.7719847988784276
   186   1       15.16590087530189      23.024667290877005      5.7930746516280447
   187   1      17.067121955095974      26.915313039812624      1.3009185370548377
   188   1       17.19455987453393      29.206989661389827       1.810560464170166
   189   1      15.502088244720891      28.820555647777233      3.9284267123188199
   190   1       15.21267942548605      26.862370446337472      5.1603186501559444
   191   1      15.313384688785435      30.610538570009854      53.790892798304561
   192   1      17.333122160150431      31.048760356809456     0.40578119480729785
   193   1      17.001224802841996      32.466785566446283      2.3423660558622847
   194   1      15.437047133810877       32.55749867204343      3.9252114671368323
   195   1      15.241118668003971      34.561793512667066    0.049444256009974222
   196   1       17.20900256945113       36.69733155983814      2.6581618344256279
   197   1      17.044157151554771      0.5203062211132945      1.5490586105887489
   198   1      15.777386545190117      36.665905209800684      4.5033270788936628
   199   1      19.594690009416677      2.2452410167212649      53.016733761834594
   200   1      21.051237738068426     0.43209731914657767      1.5140953466734695
   201   1      21.625647611690798      2.6033068146009413      2.3469090751548016
   202   1       19.63225593354688      2.4227308645004206      4.0070300602238502
   203   1      17.321821937139529      4.2676061019951756       1.549609756846994
   204   1      23.406464883351081      3.8338059139787726     0.18402236734340269
   205   1      20.963167098499284      8.2750794669674548      1.1810540606808917
   206   1      19.671063030666723      4.3799608258524678      5.4313511104999401
   207   1      19.046290974651331      7.5264464703111864      54.165485351753183
   208   1      21.437319401181945      11.583969118641145      1.4294999275856162
   209   1      19.548090793798991      8.0798383431598335      5.4386403615917676
   210   1      19.395077265737257      6.2190671026859574      3.8867208018082029
   211   1      19.370654559080574      11.514040513288755     0.10848863501736312
   212   1      23.284883648683941      12.077625298549849     0.10994987619659463
   213   1      21.199511160876572      13.441403000612812      2.7644490588830766
   214   1      19.019560954365904       13.75188542861615      4.0409849558320969
   215   1      18.870657756765429      15.362404422917795      53.961046074146317
   216   1      21.058006945082742      15.299524223228348      1.2761890352977179
   217   1      20.804489067008667      19.280441323314921      1.4173579401845602
   218   1      17.477680769241918      17.510276811479134      2.6242905413023427
   219   1      19.196033743819765      21.215141670453814      52.762674901616187
   220   1      16.800134972321707      19.355741584312643      1.3679221548911757
   221   1      20.926961176142743      21.045016010618085      2.6795612344490931
   222   1      22.835805602482921      20.822682111555082      4.2555958906350719
   223   1      22.989121872762631       24.99820185610724      53.131967634612074
   224   1      19.121294393805467      22.931967110593668    0.086885716548397371
   225   1       19.00040230250649      25.038082476250231      53.025468478409415
   226   1      19.061574116545838      25.083136580266494      4.0663922817841485
   227   1      20.890800940593682      27.100833992998712      1.5728949362209648
   228   1      21.029750774842555      25.109038505219967      2.5996452644672927
   229   1      19.642084657963412      30.845755022151447      53.982206222936483
   230   1      19.004158773359105      29.244227650166607      3.9585585895997699
   231   1      19.329501123949978      29.030208904737798      52.573142569193273
   232   1      22.679608980477013       32.45180005466942       3.922617296805039
   233   1      21.112405580413643      34.890798308147374      1.3065095619017848
   234   1        18.8469201054526      32.562463588656833      3.7539102363197259
   235   1      21.068405341303862      33.405873479736094      51.981348348295661
   236   1      16.960924531122032       34.67543155694338      1.6949428338402648
   237   1      18.900456528595097      34.971442491227954     0.19881481548095534
   238   1      19.091090992928031      36.639410701798603      4.1632455476726484
   239   1      23.009226920869491    0.087295191728549756     0.20701147064733061
   240   1      26.528174014205394      2.1921312572570311      52.795489380235999
   241   1      24.967391843548537      2.1565537975984483      2.8298195716659511
   242   1      21.390286777362181    0.075828135760224319      6.8682458464708844
   243   1      22.906723681970561       5.930270860885682      53.022223347801322
   244   1      24.978116715024477      4.2856790902119943      1.6085289311445905
   245   1      25.482756272101799      6.1988925899708196      2.7117784996463912
   246   1      23.322398263991673      5.7635767362563284       4.068595906416113
   247   1      23.141410091744309       7.781526768274845      54.183272456344021
   248   1      25.084060626610906      8.0917121053083072      1.4798528099936656
   249   1      25.005539092881826      10.031193459345564      2.9148674101369005
   250   1      21.393756928249889      9.8141099726454577      2.9123586759821705
   251   1       22.95996825645922      13.936017249421965      53.085108430482435
   252   1      25.277388961936822      12.114145136063796      1.3908618029929809
   253   1      24.726338830249606      13.940890614738668      2.7971347873449299
   254   1      23.336989234756714      9.6961950883787829      4.3319665474613327
   255   1      22.790029824395052       15.87642656797162      54.251306548208944
   256   1      24.834893730043667      15.645651349420124      1.0517928758169413
   257   1      23.066394308578165      11.633251446813416      5.7067619967429737
   258   1      22.812856407556101      19.691078211638395      54.279942129537247
   259   1      24.731301058165883      19.288739270801091      1.1537864640830557
   260   1      24.639851605992778      20.976505815278184      2.6526620797339526
   261   1      24.905248366138235      20.772145376345247      8.5436338707272927
   262   1      22.951916849758721      23.117847102977834      54.222986477308396
   263   1       24.73369299836213      23.182139875338372      1.6892702939002697
   264   1      27.098862802934661      26.932285517628085    0.027920432562484644
   265   1      24.506790107678921      24.958258089330524       2.815183270805472
   266   1      25.169348499273049      26.605757290884569      1.3418273923753867
   267   1      24.755058235799599      28.190162955726713       2.887809321163084
   268   1      23.382306436716071      31.010228420456436      53.941994388321547
   269   1      21.110149870981193      28.999441503894438      2.9502591607041015
   270   1      21.034276799669602      32.836529844718299      2.2591527511031955
   271   1      23.118942317006741      35.088385251796844      54.288218390035382
   272   1      22.743638557614883      34.478472398561614      5.4610086395166801
   273   1      22.942024785399649       36.39745954301786      3.9896112353921684
   274   1      23.061159151447914      33.167810362801205      52.778273514981194
   275   1      25.005756887993655      34.384692860235532      1.5108148485702386
   276   1      24.689811398573109    0.023943529783804936      1.7509617145582088
   277   1      20.952000393634201      36.835680741226284      2.8412874151150493
   278   1      26.629673679076564     0.35945794067867404     0.23671202673027644
   279   1      28.655415610286251     0.19573335501680883      1.4030044525680059
   280   1      28.880587781334008      2.0982224616458716      2.9681565538456889
   281   1      26.736672805938046      2.1673897820360843       4.207416126421788
   282   1      30.776766381443032    0.059772501531917363      5.4909182895516198
   283   1      26.695071853540984      5.5530339630409973      52.813359016463046
   284   1      33.125534258364667      3.7973122768878209      6.6577890376768014
   285   1      27.228867885212058      6.0913106621952755      4.3246724107237267
   286   1      27.173357061178319       7.488549801693603      54.222226252413812
   287   1      28.986511608345875      8.0254682735256964       1.206991468516686
   288   1      31.187286892938314      7.8312311815889561      5.6834719078514606
   289   1      28.951009443853415      9.8643898593596475      2.8587649766158729
   290   1      30.707544477027771      9.9906584688280393      4.3042117687608519
   291   1      28.607239588985706       13.51645961025576      2.6470819711272586
   292   1      30.705346900155764      13.534785029168777      3.9618923242403419
   293   1      26.707987932868573      13.695047387221189      4.2331949350182088
   294   1      26.709146027891471      15.419617332698506       54.01591644846517
   295   1      28.462716233940171       15.45146717363034      1.3666332337112308
   296   1      21.022862722648945      17.206375571483971      2.5466239473485768
   297   1      22.823489707533607      18.816447176303349      5.5563855333971004
   298   1      26.792084506788132      17.334449972199661      52.678446952882823
   299   1      28.450310646671571      17.278460837117336      2.8750043621021035
   300   1      28.692880754709083        19.3722766461674      1.4072780623088508
   301   1      26.666783105341132      21.047978226950594      3.9924142529765865
   302   1      26.777909945074953      21.490940982745208      52.850487624044781
   303   1      28.715316743566454      22.951364530613425      1.4394392829180913
   304   1      30.440023702145893      25.258601859231629      4.1739141165445082
   305   1      26.470647731059113      24.025519459510342       4.150093043278992
   306   1       28.83032914512734      26.555663453796718      1.6958210629432313
   307   1      28.444901798470543      24.738713730857828      2.9035210085819712
   308   1      28.736926015025887      28.551757532494335      3.0131189970474677
   309   1        26.5834810152888      28.410650658738547      4.3415108064489916
   310   1      24.709466082603392      30.345279425125575      1.3245151523717356
   311   1      28.850831635384402      30.587949753797748      1.5540328753712065
   312   1      28.502617360436769      32.543731383808776      3.0727791949539887
   313   1       24.56808833114999      32.450714167782301      2.7876356616004259
   314   1      27.141722506887387      34.529635013848321     0.34530605877881732
   315   1      29.064377006097068      34.153908958086902      1.6349604704650231
   316   1      30.336064838045711      34.528971183721112      5.6190986728845669
   317   1      27.199349480234446      36.452890817545246      4.0528991453327858
   318   1      34.354732542406808      36.741827258909332      52.855861858101036
   319   1      34.590290477672234      1.9870772469988709      3.8745436201750723
   320   1      30.985494368326467       2.029474387130294       4.431956317191224
   321   1      30.559167127421983      4.2076984240913733      54.259995388266283
   322   1      32.617513781366235      2.3030814837931173      2.8313562855961671
   323   1      32.647063355796568      5.8064654026057667      2.7942977909009663
   324   1      30.746842846665526      5.7166288124344504      4.0838503260922234
   325   1      30.790761904854019      7.8371605961040611    0.077566535699417974
   326   1      32.878923432215863      7.4209464255047113      1.0409600654978119
   327   1      32.342962015180646      9.7391891152805421      2.9064115464080027
   328   1      32.515141063922648       13.37903281583672      8.3041454721273116
   329   1      30.916049581370469      9.8862043568852211      53.161471145313932
   330   1      30.930148233698397      11.910728677775381    0.043772671254657787
   331   1      32.543711684378202      13.472402799055457      2.8682703539675902
   332   1       29.06621399608261      15.347828259473122      7.1317189804416419
   333   1      35.945385345461716      13.223008541082949      2.6521510055506243
   334   1      32.386846029280484      16.785774881250621      3.1158308378323567
   335   1        32.4647761805141      20.912908179697272      3.0518388017673588
   336   1      26.653579071817624      17.379396816946269      4.1115375647581693
   337   1      30.703672719235666      18.959029080619718    0.091314934035222034
   338   1      30.560267195917238      19.240569309938795      5.6885717253020447
   339   1      34.394832481643618      17.410600698595736      4.4197916460692452
   340   1      28.815578073327028      21.035297914501129      2.8630710810257942
   341   1      30.772679752917195      22.933746289797032     0.15377181863042325
   342   1      32.523862551192529      23.080902440404714      1.6545925767876937
   343   1      32.515931187404647      24.817447566043271      3.0424321468522662
   344   1      30.542771663859074      23.238509787918936      5.6270714876934917
   345   1      30.592839543176485      27.028318679681139     0.24885062239264924
   346   1      32.531213631104457      26.834946585504749      1.5158867050513105
   347   1      32.451684516261174      28.903476677362249      2.7437723410164034
   348   1       30.59255649023758      28.677207750672672       4.389546126257212
   349   1      32.559232302186601      31.165825160422798      1.3042014177892134
   350   1      32.516796735482934      32.765464062902112      2.9153152184147397
   351   1      32.557227169619395        34.5574696503556      1.4964813532108441
   352   1       30.72361588180306      32.580111361355549      4.1626235858268839
   353   1      28.977034767772118      36.769981089849814      2.7019782783820681
   354   1       34.01057031268595      34.582819122254556      53.937017117041734
   355   1      36.209901651683793      38.285104121516483      1.0395953044160939
   356   1      32.360205356798197      36.691132489848584      2.5830600277151459
   357   1      34.300274698258747     0.36054867292325754      54.088184388760851
   358   1      38.254951688245868      36.349918248891385       52.72248840689376
   359   1        36.5308112933917      3.6614330520534013      6.8748797262790884