dump/Si_1400_20/steps_21 (written by ASE) 

3980 	 atoms 
1  atom types
0.0      38.395898218429522  xlo xhi
0.0      38.395898217999999  ylo yhi
0.0      54.299999999999997  zlo zhi


Atoms 

     1   1      2.0167368894543447      0.2062266725115508      1.2096395494987404
     2   1      2.1415985938135726      36.673967801001879      2.4291206600085515
     3   1      3.6315561389952116      1.8997183959633619      3.8508101377787063
     4   1      38.245429577221735      5.9303093875842841      4.0409574685688998
     5   1      36.280583080138605      3.8899741197916993     0.76735850037775855
     6   1      1.7741965278005967      3.9573029878284047      1.2496944050757062
     7   1      1.7924515348768493      5.6250454805502619      2.8053383832137904
     8   1      38.258248253268476      7.8819941709840622      53.885339571285769
     9   1      1.4903699997117372      7.4883347248525594      1.3248715136384377
    10   1      1.6816695071874492      9.6401066201117374      2.4747526091789385
    11   1      36.281103814433024      9.5880726287728564      2.8425606263031593
    12   1      38.218437861911191      13.722480483125738      53.231367005522074
    13   1   0.0085925635663744691      10.041315616880302      52.755785947428144
    14   1      1.7761978634438613      11.572490797149079      1.1110601834872778
    15   1      36.552248084827262      13.748522743834418      3.1075494589559076
    16   1      1.5035295234530268      15.563240985123397      1.6641194817072797
    17   1      3.8747791488146164      15.196873683695918     0.50573877257074862
    18   1      1.8554215720741674      13.408617200918068      2.3810296571392793
    19   1     0.34339728259437857       13.14141992234771      4.3541678686651855
    20   1      36.416373157549522      17.262085495367923       52.06294490246237
    21   1     0.13789434727639382      17.609425732180746      53.193191066736524
    22   1      6.2295716287832601       17.45800917122148      2.4856753015548176
    23   1     0.12590431154726794      18.953807166795823      4.8834565980674487
    24   1     0.23575355339677098       22.32019941235599      54.236506732223923
    25   1      1.8733927796077776      24.896222240993833      2.3407094489728486
    26   1      3.4583049815901719      24.801612469716378      4.2166780291177828
    27   1     0.15796294226386218      24.704730504140272      3.7556040108821223
    28   1       37.98533544089404      24.546101513154138      53.068883488560118
    29   1      1.8611188387833273      26.997837590133575      1.1577489142117074
    30   1      1.7788410911231589      28.674882569132532      2.6275921289420223
    31   1      38.243724644956501      28.901947208270826      4.1518390508332343
    32   1      38.323162068365683      30.779364451593473      54.177434426903332
    33   1       1.803307224408494      30.773157683748607      1.3690569470214788
    34   1      3.9697469057722627      32.711912996991465      4.2836085380492479
    35   1      38.317749719627209      32.655496146847121      3.9622239909665264
    36   1      38.085399446440356      34.866123200874732     0.58075726048546017
    37   1      1.7982949280414522      32.773967101420006      2.6562748563208523
    38   1      5.9210447260316794      35.103077332886762      1.3011945689326261
    39   1       36.67337207606613      36.356044307447391      2.5158306031302331
    40   1      3.9022283450021988      37.935888064262627     0.18268118127471106
    41   1      5.7461132135315482      38.374694429045782      1.2916152873524176
    42   1      3.3345079090746532       3.950347151689094      5.2027673812802933
    43   1      1.6482813778423244     0.28248295348029562      6.9131090367116306
    44   1      5.6147313156772292      3.9397621108949297       1.615191668097431
    45   1      1.6087970625899752      2.0690669591926065      2.9665116876082154
    46   1      5.4321552284940982      1.9313839223251703        2.72774154178627
    47   1      5.9258098740684542      6.0778370933252406      2.9365800282924277
    48   1      3.2338192776976387      5.5755296979990696      53.065075558540691
    49   1      3.7359976140381441       7.523320745985167       54.27841508028132
    50   1      7.4107135484396771      7.5699814566842418    0.011928097042971327
    51   1      5.5916878722315486      7.9269007260521045        1.20267089521732
    52   1       5.646024643733619      11.296060465699561      1.3960614881190285
    53   1      9.6773125130498912      11.501610882558831      49.869288509391843
    54   1      7.5661806827259515      13.183873671752133      4.0359516472208155
    55   1      3.7222976584405405      13.310242527747366       3.997856726811416
    56   1       7.825231328928596      15.321469322963779      54.241200245069514
    57   1      5.6413243000371782      13.215352387439658      2.8453560440174686
    58   1      7.9485032743950459      19.233616865881476      54.148998376284538
    59   1      3.7631624819724556      15.424931238791043      5.1918113840343247
    60   1       38.34689283193056      21.109743063154699      3.8142349453143893
    61   1      4.0455282321989863      17.208495360721358      53.458763915498714
    62   1      8.0391179680646108      21.180944775275538      52.816621789214459
    63   1     0.20699774591701048      15.403937739930756      5.1785228325035195
    64   1      1.9124528171549728      22.648754846612768      1.7038377270077167
    65   1      5.9035264517595056      23.190123856328732      1.3676088341297352
    66   1      5.4829835236108124      25.175941977101644      2.5949960819265949
    67   1      3.6182360601295938      26.706575798338925      5.4543316374083251
    68   1      3.8809826594899568      27.020025765361222      54.227531661707175
    69   1      5.8415989693951333      26.907967219074841      1.2331677527184992
    70   1      8.2946955987292643      28.837506790200756      3.5623047652141984
    71   1       3.637892442876669      28.755628244087841      3.8361150241150637
    72   1      3.6982033719519101      30.755354591619749      54.289637332400247
    73   1      6.0575954570464337      28.916813759171191      2.4106214200261764
    74   1      5.8459572530646016      32.977343692231919      2.4627558787174291
    75   1      3.5949333139454169      34.546669077675332      5.6054736593821159
    76   1      3.6961729870414195      34.543971840699356      0.1180545460553732
    77   1      7.8325920752418074      34.772563742768469       54.25514161129523
    78   1       5.771371524200168       36.59022783589603      2.9769178538260554
    79   1      3.5853749236816133    0.075044179324989455      5.5205121851355354
    80   1      5.7963351943571961      2.0040534086819917       51.73815699850428
    81   1      7.7197894528027113      2.0101568769079736      52.910532614828817
    82   1      7.8818655565624258      36.854002259293054      4.1118048802508822
    83   1      9.8473620326579141     0.26770605598428349      1.1965536632778488
    84   1      3.8535038346717982       1.766538811537854      53.149605688362598
    85   1      7.4604948749879121      3.8126642293708382       54.24463290272309
    86   1      9.2246413517085593      4.1369476966869376      1.3003010935805941
    87   1      7.7512438201830731      5.8856042348393922      4.1992813560936488
    88   1      7.2268220780480208      9.3464379990291029      53.184351434192202
    89   1      9.1894072244488516      7.8843131726702156      1.2008153516340945
    90   1      11.502454224386316      9.6699129348569013      4.0738295284363311
    91   1       5.800400715087779      9.5561087311374386      2.9607357399430487
    92   1      5.5841716605888019      15.403598164283313      50.118227105110869
    93   1      11.562697474776018      13.499485940390336       4.225354889392098
    94   1      7.6669070220905677      11.494820573039867      54.041830215413775
    95   1      7.5605919175526068      15.331399152488936      48.886118380912329
    96   1      9.7333579523328222      13.462568738211237      2.7660596341936277
    97   1      9.9171720251341533      15.337293999266565      1.2607240082119791
    98   1      3.7308417138859222      19.289143687316116      0.4690688536408516
    99   1      9.6807944645712798      17.314395084075748      51.566173254888703
   100   1      11.772609839335239      19.633076547889146     0.25276223917185242
   101   1      10.209543551012317      21.346058235575491      51.442608603514238
   102   1      7.8395651401491273      23.594960602058361      5.4862324132788629
   103   1      9.5202312696819522      23.111129239689433      1.2786704387723469
   104   1      9.6741467908528307      23.759388970535252      6.8396212508621357
   105   1      9.8868746115322086      24.690065559592654      2.7677459902976103
   106   1      7.3532965615539538       25.24969438645455      3.9748556214824382
   107   1      7.9121011903333294      29.032254966087727      53.003685182742238
   108   1      9.5383483062979977      26.712545433995949      1.5130474201544646
   109   1      10.192789309210585      29.002459831803467      2.2267589751527361
   110   1      7.6946202898843117      30.573369722461173      4.9444526847990913
   111   1      9.6663904419464739      32.557077739076291      51.150639598331971
   112   1      7.6422846138136125      31.136373317008196      54.143921956293539
   113   1      9.8593687209257865      32.717683494982765      2.5131209583840026
   114   1      7.9256175320349653      32.719752618496017      3.8077190338791498
   115   1      7.8454991348719911      36.612801418954099      52.891763275075995
   116   1      9.7788108734259485      34.835104913789102      1.3785971738261333
   117   1      9.9092871274914263      36.861698092178443      2.5927357925967507
   118   1      7.3125087150778603       0.212718569860049      5.8819492568275278
   119   1      13.921670686767412      36.902511930627888      51.306971029250015
   120   1      13.547156350833861     0.15162519421956505      1.5566188282664359
   121   1      12.974549638031503      1.9698716114135491      3.3440158398003845
   122   1      9.4605405794403055      2.1352725803104464      2.9359071115037838
   123   1      11.217415383552709      4.2983933242145085     0.33967531826638148
   124   1      13.088699952678249      3.7299043992306764      1.6188405120160965
   125   1       13.46761449859159      7.9160255767021503      0.8372557274393676
   126   1      12.863266963191148      6.4746754959242798      2.6392892167946118
   127   1       11.44170477131996      9.5997445044858001      52.224218696071155
   128   1      10.939414754811109      8.1951675615043467      53.859987863705875
   129   1      12.892348648709024      9.7658125394344975      2.6371098836799312
   130   1      13.113483533506651      11.840602073840964      1.0761081702451043
   131   1        7.26972665731713      11.345617562961467        48.4978862446956
   132   1      11.300603243833683      11.480074104469008      53.945041145632509
   133   1      13.438077128510725       13.59946412648215      2.7653368029603498
   134   1      9.6955152120125589       11.57206777597963      1.4762698022212117
   135   1      9.6914461675352381      17.122337051357452       2.877052319293294
   136   1      15.608998124962447      15.440474223501235     0.11705928178134856
   137   1      15.331208607321766      17.588868215600669      4.1073893896909919
   138   1      7.8440518098891658      17.267539934047136      4.0337272195380454
   139   1      11.877268562397864      15.350419297669314      54.238846712396608
   140   1      13.450248792448063      19.546868666994062      1.9353829158383742
   141   1      11.594489746595912      21.547918612248363      4.0819456836175405
   142   1      9.5681304059546584      21.271113914553343      2.6471661772334287
   143   1      11.892192533534324      24.966111215563316      52.982834939275939
   144   1      13.429525712135273      21.412489884678688      3.0274141004904997
   145   1       13.82140392430658      25.069250450580366      2.6890355143542366
   146   1      11.776104270736012      25.296535664588166      3.8808853018404648
   147   1        13.6948610202344      26.695636244776242      1.1633851872899168
   148   1      15.503195003294534      27.031468716983536      53.836578600631164
   149   1      13.641673692778504      28.827589865201457      2.4257211383789228
   150   1      11.826050579431483      28.945964625412451      3.8500326064792918
   151   1      9.9806659089895167      31.029732670882741      1.0264101214168355
   152   1      13.445178659173706      30.813772695718693      1.0957084746732002
   153   1      13.144912856458189      32.665815695672556      2.4614005637048058
   154   1       11.47715532894915      32.414124044059243      4.0702452491338024
   155   1      11.795930023624871      37.064965403705713      52.669587762800838
   156   1      13.540433425442885      34.658530935069251      1.3832116252478741
   157   1      13.489138192924441      36.476378434186998      2.7503347935969273
   158   1      11.474373515682954    0.067272134930000047      5.6937373065613519
   159   1      15.655830152454428      36.498275930559593      52.850673311885473
   160   1       15.64951104621775      38.228638379800408      54.284767848187506
   161   1       17.18320179236235      1.8609405398834578      2.6934725507546529
   162   1      15.219136536222058      1.6027034262459761      4.1234022473006693
   163   1      15.048335155597551      3.6799492409335355     0.29185747537480866
   164   1      17.551560382979044      5.7678200309267185      2.8556145984069552
   165   1      15.336406814090065      5.9199811715395949      3.8954883944537073
   166   1      14.931167950838629      3.8433621493675028      5.3354511310834152
   167   1      15.565200126761169      7.8575456871237019      54.277985203978325
   168   1      17.452634145916562      8.0120878090098522      1.5636828393460629
   169   1      16.894111794592792      9.8665953214897435      3.1731992109001799
   170   1      15.324563212870803      7.8202484046283596      5.3594350344432531
   171   1      15.398323500756034      9.6864483717529968      52.945945714092467
   172   1      17.078341686060753      11.548933140481541      1.3646358600526243
   173   1      17.226833203501364      13.622630916153312      2.6143067430442786
   174   1      15.366806560251687      13.603765946515994      4.0069017179875432
   175   1      17.371167157451534      13.954519107546981      51.532818674786064
   176   1      17.257859963192608      15.572491362069531      1.6540656344305706
   177   1      13.450016969445388      17.313342044235355      2.9058311338334084
   178   1      15.299944435997199      15.726201295339813       5.094855965986846
   179   1      15.190669370368601      17.363068805729483      53.187957914595231
   180   1       17.39397250874789      21.392461699689786      2.5758702446337667
   181   1      17.382512344722265      23.120292404492233      1.4068897682758372
   182   1      15.598289771064875      21.373698908082982      4.2707658795315737
   183   1      15.504024864129144      22.915607352093009        54.1737614450997
   184   1       19.32413656382295      26.904767691174758      54.207280663808291
   185   1      17.055962575877761      25.270892895840888      2.6816366135972447
   186   1      15.470534975590043      23.043552518401139      5.8452317332774566
   187   1      17.313440514762775       27.13706467845682       1.148944639359488
   188   1      17.116836409709212      28.818139790506898      2.6750623755720526
   189   1      15.163317743202805      28.868239093098719      4.1537395468775884
   190   1      15.428849860313418      26.986612259573143       5.576847801564818
   191   1      15.293067185608827      30.689364351263606     0.01009909908225382
   192   1      17.280053991541756      30.803623571544808      1.3810719842973296
   193   1      17.534740988584311      32.671109988652773      2.8305184181959229
   194   1      15.340016669040747      32.476570877246481      3.8927610032649325
   195   1      15.391077627473992       34.59373313530692      54.034136512981178
   196   1      17.228221749097614      36.356531839944942      2.6738967217186445
   197   1      17.383347641216652      38.389027689062104      1.3649854280080485
   198   1      15.443508567859253      36.277955639866477      4.0303280840664772
   199   1      19.043688033695375       1.503207152203806      52.857870762717411
   200   1        21.0065072000797    0.024796747103355846     0.95012206627711782
   201   1      20.898703402327623      1.9206305603640261      2.6313221544653884
   202   1      19.144630065311478      2.0145497506249179       4.175401194243646
   203   1      17.234318933213423      3.9132226617069801      1.4096071238738781
   204   1      23.101345169008667      3.8426104282352762    0.027479845608240811
   205   1      21.175394250097359      7.8338409210569342      1.2344610584350886
   206   1       18.90257092115316      3.9619050832571827       5.534190549867172
   207   1      19.066393265506999      7.7625001338154167      0.1786037933674835
   208   1      20.899043575130587      11.924297888083453       1.640717230604595
   209   1      19.376274545110103      7.9522796521039227      5.4417561435042954
   210   1       19.51430041405839      5.8978882078523149      4.2981319577496819
   211   1      19.154633377173795      11.715268445482147     0.10604490308423915
   212   1      22.970241284689241      11.887697678328147     0.42598864330740294
   213   1      20.873581764922513      13.906894730839761      2.9469027073467737
   214   1       18.93581041058297      13.913289586035178      4.2589913882303128
   215   1      19.132972620746663      15.641285407844885     0.23813506040501117
   216   1       21.43032823106709      15.462985036774159      1.4420639695024624
   217   1      21.268061381797981      19.328970864399903      1.3452453790939083
   218   1      17.499990654818838      17.407932389379873      3.0615774305930112
   219   1      19.788273398737864      21.142563770567708      52.916273333238294
   220   1      17.272517084065274      19.231356557781336      1.2491087215985646
   221   1      21.241034444068838      21.035896002470725      2.9390671615664248
   222   1      23.131536181569224      20.912544762854385      4.1911335199445832
   223   1      21.375749596302665      25.178703558737116      51.673203532581304
   224   1      19.286948348314784       23.17978966293613      54.260946172319365
   225   1      19.356932174605191      24.909966853464546       52.60975374080526
   226   1      19.176324251276373      25.250768972600234      4.0922468323260768
   227   1      21.404700960116937      26.690986960183203      1.1699888838400621
   228   1      21.156295008277869      24.938975118031593      2.8786150896635063
   229   1      21.042191843801898      30.877308545030026      1.5385855652139639
   230   1      19.113108453277032      28.713136892676253      3.8972713504275345
   231   1      19.251654576338193      29.017848112026876       52.65872485372541
   232   1      21.088414407049012      32.927953015595087      2.5756712589433284
   233   1      21.292276626767574      34.897734464916368      1.1337086501283005
   234   1      19.424498202156034      32.622309702518699      4.3525648044665344
   235   1      19.494845694951721      32.904073042874458      52.703125908871883
   236   1      17.379311199226528      34.475136918151534      1.2693578296601467
   237   1      19.254844404003109      34.741000690260549      54.093592859114338
   238   1      19.233199005375642      36.704392089305514      4.0476680753423695
   239   1      23.027780021140146    0.047988195122617462      54.246771758202428
   240   1      27.053946394000899      2.1641896986104849      52.781418198710689
   241   1      25.229443828353386      1.8845814666174849      2.3536296287052449
   242   1      23.244303659199151      1.9025271036741509      3.6358726115605675
   243   1      23.139696324993231      5.8365360952086522      53.077690329828762
   244   1      25.079343710715548       3.940323547988275      1.2240015337654779
   245   1      24.989435653904053      5.8338778918687968      2.4549254865797834
   246   1      23.183572383735637      5.9640582433505465      3.9381183161996978
   247   1      23.167457056996682      7.7864716337416677      54.272676326781387
   248   1      24.958338720854805      7.9345795185261334      1.3533390304287669
   249   1      24.842981823121878      9.6345851596521221      2.9054038360956849
   250   1      20.984324548206622        9.90991979324086      2.5091581459566878
   251   1      23.140806465155137      13.653260379785467      53.103072790850845
   252   1      25.268123705715922      11.790229109508877      1.7137730182417594
   253   1      24.939003368767384      13.887882229889314      3.1911054559531644
   254   1      22.834917302395301      9.7832347900595362      4.0401008176169624
   255   1      23.307549613946065      15.471883899532356     0.12514443052740473
   256   1      25.190955559691673      15.293100812219384      1.4922619147525662
   257   1      22.810044650747347      13.820471527072971      4.3433350125162535
   258   1      23.124680406090395      19.289102595858864    0.041729383974586649
   259   1      24.959281973731045      19.446240537995909      1.2888592707113966
   260   1      25.020571649307445      21.200513505670944      2.8052990155498372
   261   1      25.325680053597612      23.418749102272425      6.6768262096003008
   262   1      23.076730569203203      23.137388478732699     0.27105258202835775
   263   1      24.993254142468651      23.183011405893534       1.541807859863966
   264   1      24.795195496524205      26.984001308713388      1.4724793187813574
   265   1      24.919347162418681      24.908867927086771      2.9574165905257899
   266   1      23.159161305002701      27.235298717805236      54.174881494395756
   267   1      24.558066186080513      28.839247204196003       2.678148794094759
   268   1      24.875929672353571      30.698722751390861       1.262380614539655
   269   1      21.129145890335082      28.359420569219218      2.5846471996954028
   270   1      22.845207830545089      30.897057647067424     0.20463564976395215
   271   1      24.706265944945649      32.664297940851107      2.5122619377214153
   272   1      22.867621484885248      32.319978713114608      3.8969935317368964
   273   1      22.959320349609602      34.507789768622487      5.0728902556953814
   274   1      23.153984218867446      34.579379403469801      54.153507424594501
   275   1      25.181704339231938      36.465252515020886      2.7271000719705194
   276   1       24.83295866640799    0.040500384310201518       1.203740159108041
   277   1      21.067424111846201      36.724503557635224      2.5934314391830386
   278   1      27.019032425365697     0.37858401393660596      54.290695928651459
   279   1      28.728554034880307      38.301992982066963      1.4246892840603664
   280   1      28.974092434180221      1.9056448104443289      2.5530383888123001
   281   1      27.275154716637644      1.8942626715720459      3.9562373741844792
   282   1      30.930749672783406      2.1402285188826755      3.8400637609780661
   283   1      27.174532207431508      4.0059100047046066      54.174960774415538
   284   1      33.048314103743088      3.6352572171945781      6.6136769315630746
   285   1      26.637019034332347      5.7729171722039574       4.232196233150999
   286   1      26.799286519462456      8.0416345741085493      54.077779524574837
   287   1      28.666967094528477      7.7986203668136449      1.4845979886780583
   288   1      28.651901811336696      9.5489042246244953      2.9105494464508999
   289   1      26.813273105379732      9.4420145347994406      4.3036678456287722
   290   1      28.454616414972119      11.321280275584948      1.3359383078687759
   291   1      28.562470603926666      13.060276678854818      2.9096991966888717
   292   1      30.254740516076716       13.75330696796599      4.4249347812077335
   293   1      26.793621093323885      13.506638768447825      4.2704326759328657
   294   1      27.212589230374469      15.291696189183025      54.236302431782725
   295   1      28.696639429194914      15.039144722009093      1.7826028231916335
   296   1       21.23661931759743      17.404932234708575      2.7081827975003412
   297   1      23.209772599487827      17.471809263314491      4.2284145554840862
   298   1      26.739480255502471      17.553014604562343      53.089957748048342
   299   1      28.662114388230176      17.300962984668207      2.8398673283076836
   300   1      28.639275457338979      19.309962297481437      1.3896157408448737
   301   1      26.890084327279826       21.23951710964905      4.1957834115446655
   302   1      26.857789439226064      21.136709699571426      52.830747431187156
   303   1      28.504254280548356      22.796122717917534      1.4386041558918345
   304   1      28.685494723200804      24.725321158732104      2.4773666936090644
   305   1      26.790654453220377      24.940430049879016       4.369644689862751
   306   1      26.882394872491929      27.170522358354631      53.924916846254817
   307   1      28.727848357337653      26.837530502607411      1.0498529260913312
   308   1      28.807579381982908       28.61850476523939      2.5247754751781359
   309   1      26.847700161113966      28.756220694838778      3.8436703651660209
   310   1      27.036942164867991      30.513442551289128     0.10109856533106282
   311   1      29.124856101570021      30.604004555311803      1.2638868739368945
   312   1      28.806176615684631      32.442931116037819      2.8164467093007137
   313   1      26.791487252982009       32.73933911385182      4.0986052718770356
   314   1      25.120075675634588      34.716148127888637      1.3373475970106252
   315   1      26.938717811859529       34.64586213146341       54.22943647306505
   316   1      28.974297154081725      36.054089340144628      2.5457201927004118
   317   1      27.003332847909991      36.408570200997289      3.9917704622184282
   318   1      32.875913199579038      36.576197725039258      51.416750486069205
   319   1      35.860796916723181      1.6224608805687848      3.2889692554401559
   320   1      30.845869997535907      3.8876660161220724      5.5319918092203748
   321   1      30.729691164765214      3.7162092304851408     0.27898951065174044
   322   1      33.262168016117315      2.1577398686088252      2.8239083224868504
   323   1      32.997746552863305      5.8136102739090303      3.1046943026813776
   324   1      30.584701246551791      7.7451735859668949      5.4570702757700378
   325   1      30.555967028757763      7.8123292537630258      0.1305267559388878
   326   1      32.619084114252715      7.5133757120371749      1.2505987659378188
   327   1      32.574228369048534      9.5325986796333328      2.8399413847609956
   328   1      32.319838474281497      11.555066004721485      6.9665999944220065
   329   1      30.648550002210225      11.309680242242226     0.40006093120324537
   330   1      32.125250080019519      11.604108126600279      1.9282542805157139
   331   1      32.178586160425233      13.639835420280727      3.0862159414331796
   332   1      30.294945229400451      15.862095849517726      5.8765176796392327
   333   1      32.214988342383208      15.571316107941472      1.6313980533607619
   334   1      32.588854935839628      17.667297870806198      2.9834226398114549
   335   1      32.472805033302691      21.445923531875046      3.3271260546504116
   336   1       26.68531202276364      17.436970217327865      4.3869377303895023
   337   1      30.748097290806555      19.617871270734671    0.065041098211179552
   338   1      30.642071312050845      19.179256130817478      5.9678684297448106
   339   1      34.654210754939641      17.442571050061147      4.0909851744211068
   340   1      28.796156798745642      21.026010548234446      2.8549329404663815
   341   1      30.693178055043809      23.233739507732803      54.253184901446275
   342   1      32.446675141426141      23.045684952794051      1.4626346593201129
   343   1      32.471198156895426      24.900290152625086      2.8489815972049208
   344   1       30.04233917606922      24.679042599820139      4.4184623602543072
   345   1      30.713991007348142      27.052917882182459       54.16414727307037
   346   1      32.500942694476961      26.778419592797054       1.376629992376742
   347   1      32.645705247331911      28.766471722412398      2.7301252470623267
   348   1      30.563485362624444      28.717272718246249      3.8901000598625597
   349   1       30.79311298144296      30.652622574993387      54.162738166531625
   350   1      32.443306805592705       30.65659298922553      1.4226349472977962
   351   1      32.496628810859619      32.644437731316962      2.9436224114712455
   352   1      30.643159720988411      32.586598083252923      4.1871851985005852
   353   1       28.77833475253518      34.209320130033625      1.1136959036211334
   354   1      32.497393918010985      34.428216797371618      1.3697052537250889
   355   1       32.38460598447984     0.24854906349471198      1.4622616517236537
   356   1      30.593645229268979      36.570534253578806      4.1241473714175321
   357   1      34.397605934081838      38.387849756435941       54.23312528720092
   358   1      38.064301582045168      38.383307752783168    0.043457905076581926
   359   1      36.073335347879109      3.9635337201000742       6.638553816400834