dump/Si_1400_20/steps_41 (written by ASE) 

3980 	 atoms 
1  atom types
0.0      38.395898218429522  xlo xhi
0.0      38.395898217999999  ylo yhi
0.0      54.299999999999997  zlo zhi


Atoms 

     1   1     0.21866729392738374      2.0292812894691976      52.918321988337006
     2   1      2.0209974299297966       36.64350588330003      2.7650834879844068
     3   1       4.126332989532707      2.4695702856995374      4.1956651023433924
     4   1      2.6579476560676594       3.705903438534071      1.3926210969796318
     5   1      36.490906728008262      7.8024276454877244      1.5597359626828649
     6   1      2.0531936738443042      2.1404446608232472      2.8817976859761725
     7   1      3.6508254848359449      5.9879453821122173      4.0258033850273467
     8   1      38.380337300654048      6.0211618165545566       53.19006600457616
     9   1      1.8488738734383106      7.8886320684750153      1.5722710153734054
    10   1      1.7504592594256159      11.781679616299822      1.4158760694460066
    11   1      34.261252330873297      9.9753059439396736      3.9976045035835788
    12   1      2.0315079343661648       13.70581275216492      51.722027085867474
    13   1     0.25697487637994609      9.7919551604814572      53.089734279949965
    14   1      2.0439341216282183      13.574515364305027      2.9460638637236007
    15   1      34.535054915773657       15.40057322472382      5.5762563474402649
    16   1      1.9227925233039862      15.205378284180529      1.4278727409226371
    17   1      3.6739321402959644       15.49189032504156      54.135131068685098
    18   1     0.11801273114207129       13.84226176303005      3.9356240488046637
    19   1    0.025520665028084203      15.648470290284743      54.290373533073797
    20   1      36.125028348215345       13.45689233049057      51.685762699167789
    21   1      36.735695061481771      15.611086110750108      50.296623119836696
    22   1      6.0470094267432417      17.028756208271602      2.6793648420130487
    23   1      0.1119931779621787      19.268866561107309      5.4973232855018166
    24   1       38.12097249131179      27.125397167337027      54.296820725804714
    25   1      3.5156283357340827      25.015979728701012      4.3845727701752688
    26   1       3.754873359150523       28.84842422059161      4.1153217770279538
    27   1      1.8575426121333523      24.925082888495165      2.7995529523724509
    28   1      36.471048533995003      24.793457963681369      51.446681599418341
    29   1      2.1586879921013447      30.562206331023308       1.187281363809815
    30   1      1.6975391993240097      32.538315695295488      2.5643840701281895
    31   1      38.319016716802466      29.496500218513685      4.0691081517842216
    32   1      2.3427066047390892      32.699895898935779      51.593472948345642
    33   1      36.343455212004329      28.773532952291944        51.5723637628723
    34   1      3.3393776340395407      32.717367683713633      4.3267972137265138
    35   1      38.311236206212207      32.825082827028233      4.1995582337670951
    36   1     0.37241914267117449      32.557731817817967      53.186665476842258
    37   1      1.9679766272373431      34.741401775455877      1.5480226169488331
    38   1      5.8442732052276378      34.418285426029108      1.8774338929045007
    39   1      38.177580257109383      36.371639862566184      4.0360561662322549
    40   1      3.5351452837715827      38.237010229865696   0.0037438798835637476
    41   1      9.7153209337514088      2.1038237142894642      2.8810658432852616
    42   1      3.6877266082396027       4.079616096823627      5.4958410091781618
    43   1      1.8790416390954257     0.47364140764469237      6.8274202293179966
    44   1      5.8221407373540792      6.0668427226371735      2.8670550534010193
    45   1      1.6047880472035256     0.20190876557837137      1.7074477389970069
    46   1      7.4796753979733879      6.1970621957730296       4.229737160765854
    47   1      1.7889936205486641      4.2306059829523344       7.145702725575851
    48   1      3.8883959563635817      8.1043193783438952     0.50420688184443641
    49   1      6.0237827561457848      7.8562553342577903      1.7588207739715038
    50   1      8.0329886725275905      8.1466683687166217     0.44358709744234354
    51   1      5.5685817998495768      9.7577085643203425      3.0736354567291762
    52   1       3.585471561556008      11.732581362481362     0.15889503318254586
    53   1      9.4218698809182637      15.341758177629162       49.75508638120693
    54   1      7.8471361600910443      13.692295496715346      3.9311384106401985
    55   1      3.9218450793531874      13.808833581141286      4.2150088259653424
    56   1      7.5984516939213114      13.900773726206062      52.802075094268268
    57   1      5.7908263297796285      13.680223023878542      2.7665649439151014
    58   1      7.8573444858099943      19.654772448164838      54.151593633407352
    59   1      3.9633116469689371      15.764457547628458      5.6207390601478835
    60   1    0.062131499352501215      21.309011156741761      4.1806052816295871
    61   1      3.4596085498256857      19.358266963855733     0.51795232935585311
    62   1      9.5277671915563058       21.21234561697359      50.976386462682896
    63   1      38.044847600342777      15.683684270146818      5.4679229437829795
    64   1       38.23693064714579      23.246205423892118     0.28172766308417774
    65   1      7.6165547620251139      25.069814985394579      52.933346119358085
    66   1      5.3792258528106167      24.535705250366703      2.7513085961834229
    67   1       3.815432624991681      30.767036528946484      5.5544184382427799
    68   1      1.7564343584958741      26.676749119612978      1.4029401224221725
    69   1      5.9068485034509504      26.720713932760873      1.6085499839937385
    70   1      7.8341801360157914      28.982070245023507       4.496031225489217
    71   1      1.9792865899702445      29.026501904132829      8.0217849270679835
    72   1       3.601947187891851      29.099289103735227       53.52852376722317
    73   1      5.8419158691433282      28.699624770415017      3.0308762994916947
    74   1       5.961937496370334      30.724528013047497      1.7927930690825382
    75   1      4.0127689674120184      36.795422128816597      4.2467552449397656
    76   1      4.1049379666001418      33.991635437122667     0.49371005477804597
    77   1      7.6891297608086866      34.559635068030246     0.30914206049449161
    78   1      5.6524053824702136      0.2656889294354346      1.3696600264950354
    79   1      3.9182033758568622     0.38733724951171178      5.6968321239693287
    80   1      5.3742492082862254      4.0140190837172041      50.909495070095353
    81   1      7.8204139805396569       2.315536968631446        53.3807899162016
    82   1      7.6184737354919951      34.780872736772203      5.7008256623958991
    83   1      7.7184238088211083     0.25025018784034492     0.16927208767937132
    84   1      3.5592710421756197      6.3507030978769663       53.27135732664204
    85   1      5.6232054400717644      4.2823800449065459      1.3422613388543259
    86   1       7.616799251240546      4.6156206710233665     0.15971988836988635
    87   1      7.9660490477797241      4.4348861692042112       5.740286509127011
    88   1       7.626241514722448      10.143100059103439      53.718890978451249
    89   1      9.9265059839116372      7.9699482440205411      1.6927541968745587
    90   1      13.677071309030358      9.7897220044502369      2.8214374416248456
    91   1      3.7500985375362554      9.6964131507443394      4.4216349625341973
    92   1      5.9700709331017521      15.771230472331229      50.079869918388638
    93   1      11.213081143885981       13.27048083201038      3.5459712055349515
    94   1      5.4990335920774589      11.451143590804117      1.7301618976401296
    95   1      7.5402476472223139       15.34424377543955      48.419044336202013
    96   1       9.686150486293359       15.98062629876566     0.93831824087782112
    97   1      7.6194585405932083      16.079333797441532      53.985091433082012
    98   1      1.6691141677870356      23.113924577222079      1.4942930885752375
    99   1      9.5635463638016436      17.048658238253484      51.322828516840374
   100   1        11.4478566757082      19.501569394032067      53.914467042460274
   101   1      7.5544249721144654      22.902607896421792      48.858647735747944
   102   1      7.6748328088983042      22.930011961449324       5.479683506355558
   103   1      9.7536432067182623      23.126888378405376      1.1817686939355214
   104   1      9.4294712293835179       25.20663780574003      8.2680206317787626
   105   1      9.6092365051224249       25.09087665123014      2.6775052021505279
   106   1      7.4399238040916913      24.891222815536995      3.8092006532451932
   107   1      7.8117562439908381      27.081242316115333     0.14494237277195918
   108   1      11.361085987240722      29.457757786234449      52.863342986550791
   109   1      9.5461973517395862      28.665434887198238      2.9036147768565215
   110   1       7.554238355281564      32.741895669316719      4.7316328868611901
   111   1      11.132608163401294       32.83178041006731      52.820297057347396
   112   1      7.2563406615062034      32.787358289697323      53.271850948387431
   113   1      9.3639267266777733      32.445534201963341      2.9966097008016641
   114   1      7.7200540904804846      30.737985154836604     0.28520468616812855
   115   1      5.8747580080159807      36.452265983422485      52.107240146016728
   116   1      9.3881794044105451      34.507315708241485      1.6713047809993802
   117   1      9.5622539479768243      36.783729886949011      2.9552843652372052
   118   1      7.7180824254033906      36.753212271380406      4.4958831241696862
   119   1      11.118022566534073      34.711387040932578      49.198953310804185
   120   1      13.464814977251098     0.35455567613225275      1.3554232591671969
   121   1      13.268672360027884       2.330057170681231      3.0383852690429438
   122   1      9.3766671973294287     0.23570933677693554      1.5991209144411276
   123   1      11.378773701474557      4.1953866376214082      0.1212735699119321
   124   1       13.23432784717677       4.138422504168652      1.6434313742767837
   125   1      13.488878886082761      7.8646154868151452      1.4105099177197555
   126   1      13.381387395936985      6.0553123944814775      2.7762135452250063
   127   1      13.993363182423169      9.7467343775436284      51.656262755615963
   128   1      11.639045089703536      9.8373489195639685      52.737955075935254
   129   1      13.447751673200663      11.777034781546154      1.4139275297068046
   130   1      9.4185820076751892      13.597711861030314      51.189696548615409
   131   1      7.6046137312012219      13.386116642201136      47.316726881022923
   132   1      11.623080080356118      11.551104258581612      54.290785938345195
   133   1      13.325449414108389      13.772283262761793       2.454220312111036
   134   1      9.5626440618043294      11.571818403687816      1.0476320974678386
   135   1      10.471986714905654      17.098960295714779      2.7895762940690907
   136   1      15.607733734219504      15.447863503806763      54.273245800673081
   137   1      12.597238139151257      17.992778538862289      3.1798983827985672
   138   1      8.3392261784206454      17.442645677833163      4.0036443403279351
   139   1      11.682787323489805      13.347713040685457      52.890746330027731
   140   1      13.313735566015595      19.297458662412964      1.3008682159447871
   141   1       9.760130520947774      21.239325415282938      2.5121879942005423
   142   1      8.1073607085128607        20.9512203380269      3.9579396836832177
   143   1      11.664468171654153      25.002530321447196      52.802540262645394
   144   1       13.57429162316838      21.489063980623481      2.5606601337026769
   145   1      15.235508158951829      26.917871885029925    0.089132447084454974
   146   1      11.327439633207884      24.998144492884027      3.8266187873827446
   147   1         13.437146916941      29.169487847076756      2.7219498934816557
   148   1      16.980798315352967      26.647733972038484       1.892457358251419
   149   1      15.232523642669323      27.137385760712018      5.3992177538113966
   150   1      11.741700485856565      28.811452316910074      4.1409383946779954
   151   1      9.5941001746168464      30.526739377576526      1.5319976484930173
   152   1      13.501716203946302      30.976420131419108      1.4841113349515449
   153   1       13.21584304293588      32.762573767812952      3.2300852155378479
   154   1      11.365263676246082      32.736351450815206      4.7949809459782813
   155   1      11.422679731329593       36.71608211347985      53.082408188855297
   156   1      13.160777454055108      36.696185751922783      2.8249497414394433
   157   1      15.191059967090567      36.650317191604394      4.1051321487220198
   158   1      9.2218239400373871     0.58903750572476488      7.0781473152649781
   159   1       13.30676146327759        36.2947201867239      52.010712531347231
   160   1      15.567238579950059      38.320523766745069     0.20884478722114172
   161   1      17.312729719379512      2.1914205782170209      3.1904286090182579
   162   1      15.096603811950784      1.8590608487153988       4.192428935912428
   163   1      15.372846978478762      3.7246433165352819      54.221152289743031
   164   1      17.250836743143477      6.0604222366915828      2.5518538916938733
   165   1      15.367570874996222      5.7508071330775028       3.825888387577459
   166   1      15.197466111979411      3.9944880226825714      5.4166310345396029
   167   1      15.068312032288034      7.6234762367109443      54.077205250570081
   168   1      16.982165581819089      7.7132237626190436      1.2512201404225745
   169   1       15.44081408728762       9.507984344964802      4.3195028439137433
   170   1      13.752861294644532      8.1724096990240334      6.5452378736518266
   171   1      15.335962826083456      11.857715562248687      54.141360882079063
   172   1      17.375542713540039      11.157965736969402      1.2509578974444269
   173   1      17.049720016100746      13.243568157240814      2.4735986191088601
   174   1      14.959869677324807      13.326050492420903      3.9202449849572285
   175   1      17.372706644457676       15.68001154275238      50.274433619431406
   176   1      17.197542107581075      15.513110039145994      1.6441861134539641
   177   1      13.458849650366149      15.413335695114952      1.0756793427710711
   178   1       15.12010171709621      15.465094736041992      5.1122094540344269
   179   1      15.188229998124777      17.451031487099925         52.982812785922
   180   1      17.485053693622216      21.212254117853035      2.6364480191023403
   181   1      17.283996181520951      23.072380635404709      1.2519008546914734
   182   1      15.433719424768878      21.545082044779782       4.088443335370779
   183   1      15.277601076923824      23.006440737139236      54.160509398311667
   184   1      18.750675309724233      28.697883240292146      52.899865143470841
   185   1      19.048853131004059      24.940393379224457      4.1765645417789523
   186   1      15.515127621463549      22.987253290965675      5.7567100054649156
   187   1      17.217412666765242      24.636381452817101      2.9429843251159222
   188   1      19.416001811379225      29.247582876113274      3.9705273271701773
   189   1      15.533341453656636      28.999877724474654       3.855667112647029
   190   1      15.259587975748303      25.038286509424161      4.4972316079182324
   191   1        15.0466645881621      28.777097658849392      52.940628407456025
   192   1      17.344899454668237      29.201387448138696      3.0365566626912122
   193   1      14.892483872661765      34.102484356218547     0.62800342071915594
   194   1      15.239164554939858      32.775246701496535      4.1283841744074499
   195   1      15.092554091427933      36.228023951136947      53.459737155540445
   196   1      17.064600704041681      32.817401534320588      51.606140034682774
   197   1      17.188543717918961     0.34831281680401083      1.7553909680841471
   198   1       16.99362251936186      36.633405845161285      2.7773150470292625
   199   1      19.410794365767664      1.9378700797616646      53.201436981886971
   200   1       20.97722945276081    0.039074028652831327      1.5692397561778637
   201   1      20.954304940373536      2.0156482279683674      2.9236125195298319
   202   1      19.286010459209372      2.0645378936835761      4.4258466882269767
   203   1      17.001291967955094      3.9294899245896646       1.515139108594429
   204   1       22.83367587890513       3.931646249311687   0.0077424018442456876
   205   1      20.757671139222303      7.8476261941268559      1.3316890507042884
   206   1      19.244912791531895      4.0280913278166404      5.5163583153142088
   207   1      18.844638874323465      7.5353751990963849      54.024387665288799
   208   1      21.308019642869059       11.73440449962121      1.6590711008199246
   209   1      19.081996391596299      7.6323654882734004       5.715352769648339
   210   1      19.111408226432616      5.8692846254432673       4.206624066106011
   211   1      19.449472660538394      11.297302664642448     0.14972464161249929
   212   1      23.105271185899483      11.467768213090814     0.29463310021382089
   213   1      21.483850692781928      13.789721937272494      3.1173168007450274
   214   1      19.101205247539159      13.614564322075807      3.8860784656585685
   215   1      19.070004066961577      15.110641556924902     0.19582233387832249
   216   1      21.002185235948577      15.529571800020847       1.618010502044013
   217   1       21.29309628741801      19.515129281669299      1.4381880832022813
   218   1      15.014546604588469      17.345502031660772      3.7551211972719889
   219   1      19.307778649274749      19.012449964833227    0.029412018009077188
   220   1      17.178121631609336      17.533589953408402      2.7949140626780489
   221   1      20.807757198394903      21.112873327817496      3.0886277819480488
   222   1      22.722518390332041      21.233374604722705       4.141878220800141
   223   1      20.723663568793274      25.056212339706118      51.660366411827241
   224   1      19.186480691917449      21.295744550308289      52.922597431476717
   225   1      18.488904390494348      26.992303088489624     0.17320148143373879
   226   1      21.016013390384185      25.015057554434897      3.0103476071006758
   227   1      20.558255631837291      26.606595435904556      1.3448887686647004
   228   1      21.003972485093424      23.096883020900698      1.6955505364382906
   229   1      17.258258337926378      30.297861636468344      1.1783311588496168
   230   1       20.96271210333968      28.588530505643231      2.3925142208853547
   231   1      20.952327671488362       29.23168011225804      51.765458364921848
   232   1      22.844135824811318      32.422729072279409      3.8298334771808729
   233   1       20.87017034792386      34.357278781064743      1.2317446963325773
   234   1      16.945762717852208      32.582255735065928      2.5143667252126214
   235   1      19.160424551687711      30.732124002940687      48.836506847295517
   236   1      12.876271805602492       34.63854378134274      1.9764141658302246
   237   1      17.013648518619053      34.633969401108061      1.2870711726202213
   238   1      19.093141591253609      36.761202779307581      3.9666488019092614
   239   1      22.973037052254902      38.317700930726311     0.17941646192654165
   240   1      26.518141208672926      2.0694050399650767       53.26743050663169
   241   1      24.887256212628309      38.034903110101759      1.2860672449765274
   242   1      21.237355752867018    0.063926140375324084      6.8009347178128694
   243   1      23.176028817849598      5.8558156051950023      53.214475822671183
   244   1      25.043010547972198      1.6557058022051871      2.7649708340658559
   245   1      24.990637599935763      5.7216400610750675      2.7506456848973611
   246   1      23.041676357156671      5.8173229023432871      4.0881506712442928
   247   1      22.679718754520454      7.6288798123631345     0.21726310134765747
   248   1      24.499286370913186      7.6904904742533668      1.6142476681112703
   249   1      24.633827806893894      9.6742122944887683       2.676386715750104
   250   1      21.276259447889995      9.7975244524397542      2.8655177251514501
   251   1      23.333266611791586      13.400516295911142      53.346308365431788
   252   1      24.955205088436752       11.76046526517176      1.6789834385587146
   253   1      24.839068107324366      13.686195006645573      3.2048231258883555
   254   1      22.918845548949403      9.7590150785935972      4.5542622312055752
   255   1      23.131904326596985      15.363691918004063     0.48912917545784501
   256   1      25.323066636569553      15.461996589884981      1.7052979568879232
   257   1      22.685723731006298      11.883180238927014      5.7272498888071821
   258   1      23.418306663984094      19.478741025642346     0.26091258784844046
   259   1      25.369946035028178      19.485421924246843      1.5623702968047406
   260   1      24.780704276575573      21.195698519482224      3.1345512944469065
   261   1      24.499330198446444       21.28902305292323      8.1279234004770959
   262   1      22.933315195219201      24.894206579920848      52.926654379119483
   263   1      24.919320124994925      23.203516445744626      1.8313347506847457
   264   1      26.738652335447359       27.26831670388043      54.274965934072533
   265   1      24.980816747917757      25.327472474510063      2.7479103379599472
   266   1      24.750383226999375      26.966913340588064      1.3667167299740202
   267   1       24.74817617162655      28.954556182371636      2.8514223016610907
   268   1      22.891504974137337      30.665535464823524      54.146544506791841
   269   1      18.804114408644566      30.552425068909024       53.86459329077725
   270   1      18.896098664582816      32.709248876127539      3.8967203490418361
   271   1      23.148080414206667      32.594086307829421      53.021437003068037
   272   1      23.138985378406993      34.397731564773224      5.4329226256580592
   273   1       22.85844443826117      36.344815163672429      4.1808299421577777
   274   1      24.845833757657211      32.732862557833265      51.512011447021131
   275   1      22.910590013300123      34.548993171701149     0.16534116876920302
   276   1      26.548376927886459      38.134630596395915      54.205738954012986
   277   1      21.009203710500831      36.401610523929406      2.6914399348426974
   278   1      28.790002934594057      36.401393043469859       2.683871585430913
   279   1      30.845780554342035    0.036058859698466235     0.17703017980444427
   280   1      28.260103985156828      5.2534352671464122      2.8347615670515758
   281   1       28.54257982312534      38.222645235006041      1.5260930591298452
   282   1      30.712405586827323      3.7183004786281182      5.4313592030218683
   283   1      26.818809421690915       5.435574244587829       53.13471595472928
   284   1      32.948452234405991     0.53117879593998318      6.8508120799941228
   285   1      26.733231924327754      5.5431390193955057       4.260812077650451
   286   1         26.496188217891       7.329010469616887     0.39126085285214468
   287   1       28.52853619809407       7.657154732157248      1.8484100168826443
   288   1      30.498030099611245      7.8559437709984925      5.4720304701370956
   289   1      28.441285052694518      9.4885423683776118      2.9663907333717798
   290   1      32.414715045795333      7.9923876350780008      6.6386826283432239
   291   1      29.062363725095018      13.597136409621603      2.5121831822195051
   292   1      30.893270889745729      13.648863477086701      4.0907150557730114
   293   1      27.190230098148266      13.482672158774184      3.9639797344707719
   294   1      26.691071069574495      15.562942822061109      54.228159039775598
   295   1      28.736101118602686      15.494491841536076      1.1218919911375111
   296   1      20.995421857436298      17.661313278022799      2.7965855814145564
   297   1      22.824748763769424       19.43710768713261      5.5275983185518802
   298   1      26.905294830276635      17.467013874012995      53.012616551604495
   299   1      28.884861682388717      17.315891135906391      2.5079001752827486
   300   1      29.015615689466344      19.516466480842023      1.5119976139160156
   301   1      27.007295492978479      21.124595515693919      4.3188481630588171
   302   1         26.930281281484      21.257163171980512      53.105189392272941
   303   1      28.638355494589476      23.291114701412731      1.4069196237002055
   304   1       30.70973595065341      24.851925071790713      4.2326290580653003
   305   1      27.113856823062861      25.229634443910644      3.8465054239797971
   306   1      28.744803877419287      27.438499931091165      1.2802382225611257
   307   1      28.920637123243484      25.231572527437326      2.5646067532831602
   308   1      28.839902382075877      28.830039153570002      3.1807190656219877
   309   1      26.754900606097774      29.022756448796805      4.1768947424391598
   310   1      20.960149722799329       30.62825666636596     0.99457396367787354
   311   1      28.663987798980909      31.066014110327469      1.7236204888156432
   312   1       28.89779222348583       33.12705371151052      2.7335375506014556
   313   1      24.947546657058087      30.796856148214175      1.3325017200411695
   314   1      24.799850770443051      34.572626011456656      1.4783470786330348
   315   1      26.592641387373988      34.469064805637444     0.23893344959789126
   316   1      28.916652183039766      34.936184545270962      6.7528686121871928
   317   1      27.135787661191056      35.986007129979662      4.4344357376997214
   318   1      34.678855949086035       36.41125416340622       52.94158444394143
   319   1      30.383662120644413      1.5707682997418337      4.3017261641922477
   320   1      26.840554164206338      3.7777137306685229       5.644845654325743
   321   1      30.665710593549623      3.4729060757401209     0.44402165424658041
   322   1      28.614919633276841      3.3923250925432304      1.5718713088307945
   323   1       36.86776674080668      3.9831234698536218      1.3534905429634156
   324   1       32.07961508604896      6.0691621349185061      8.0380296232059862
   325   1      30.393898111734099      7.7471557057532028     0.31006969644494115
   326   1      32.545204475861482      7.8852593148290335      1.0718907925722649
   327   1      30.301446061418627      9.7896531668241007      4.3007727818937491
   328   1      32.481892607914467      13.320649203146964      8.2786671322491543
   329   1        30.8547860375757      9.8420487848925013      53.384497397141679
   330   1      30.224996201691905      11.661309135576833      0.1530870613754246
   331   1      32.468788508245098      15.823882659000118      1.1996685499597923
   332   1      28.810648684334009      15.558913659356081      6.4887868057785374
   333   1      36.386873806038075      13.859710767346833      2.6278437004532882
   334   1      32.779186537813672      17.431106047029399      2.5876875156042725
   335   1      32.828203643436638      21.454080327352596      2.5209324674271798
   336   1      27.156840409429357      17.182279652763761      3.9833683618041373
   337   1      30.892302109982761      19.226133251649415      54.181156586214087
   338   1      31.002779402214756      19.129894138786707      5.1265721703803973
   339   1       34.51588188707445       17.22206616422848      4.2540227636371117
   340   1      28.821090360603417        21.5333596804264      2.8006034539102314
   341   1      30.295199176626891      23.155345715850665      54.157596970946294
   342   1       32.25742581118714      23.213205872821447      1.2228751160128786
   343   1      32.584433536087836      25.075868642148084      2.7521211530138205
   344   1       30.98409842477972      22.994464406950954      5.5537496018560084
   345   1      30.489479503352328       27.03461585100872      54.287496654294252
   346   1      32.451459471162849      26.804646693084759      1.4756776696810323
   347   1      32.747975710111156      28.920668001525506      2.8820244783926672
   348   1      30.751466614560005      29.040269507445366       4.292855145277291
   349   1      32.406287308633509      31.024170698202624       1.648872733528854
   350   1      32.558585109062705      32.977061861396763      2.6733825319236546
   351   1      30.738425737630063      34.417093998559487      54.228684495232201
   352   1      30.717499576313116      32.889837927349674      4.1156995769006004
   353   1      30.544086327099738      36.893362012494698      4.3657656685423829
   354   1      36.152039775248205         32.981726074289      3.1762144791308993
   355   1       36.50379541894209     0.14739453916090262      1.1751856202220889
   356   1      32.293422604171326       36.34999256260695      2.9562245588867073
   357   1      34.543424444092537      38.334991983171101      54.157652615295234
   358   1     0.21096451186597037      36.559205851845235      52.903925701716766
   359   1      34.609563975416222      3.7703961710776976         5.3325133190575