dump/Si_1400_20/steps_1 (written by ASE) 

3980 	 atoms 
1  atom types
0.0      38.395898218429522  xlo xhi
0.0      38.395898217999999  ylo yhi
0.0      54.299999999999997  zlo zhi


Atoms 

     1   1    0.067817640208278074     0.24165627505403456      54.122373695690733
     2   1      1.9408926050407806     0.68164740600103768      1.5084413570803674
     3   1      2.8057817823871365      2.0759361349294796      3.4380812902275371
     4   1      38.141331004885565      3.9237078580182492      5.5049291529215774
     5   1   0.0034620251688818838      3.7686889336119123    0.053484713109742184
     6   1      1.8720830851043428      3.7285349819534868       1.463863862280514
     7   1      1.4927010928089064      5.6273245036766317      2.8570717454613397
     8   1      38.370348953487188      7.3231101763321762     0.11622262422861238
     9   1      1.9993501829583458      7.4571454689566234        1.24181028652064
    10   1      2.2506629648991727      9.3657440177067208      2.3471647461060359
    11   1     0.22762202294742112       9.623418836092446      3.8690517491105969
    12   1      38.365586622854984      11.436228078907142      54.249646340581123
    13   1       2.137275787137999      11.287453952229482      1.2416379935784649
    14   1      1.8390474436369459      13.301332721012367      2.4603505832896535
    15   1     0.14618447746490748      13.755580342541917      3.9545524767448121
    16   1      0.3159847698947601      15.790128738167406     0.04980452106956363
    17   1      2.1895467528579027      15.358769352055061      1.3911677578916279
    18   1      1.9381105430507251      17.317168923345502      2.4536674845583564
    19   1     0.44128753698330486      17.119487677447033      4.2470913385507201
    20   1     0.22926069402181384      18.922239994695154      54.205649435798193
    21   1      1.9310230377206323      19.350884916412401      1.5490366738182839
    22   1      3.9191244667991172      21.026744689019782      4.3944859612714158
    23   1      2.2167143805315122      21.199988904538859      2.8440770516998799
    24   1     0.21557547702015234      23.268412489457443     0.18147068625053159
    25   1      2.2187129235487566      23.259713696987834      1.5691187325238518
    26   1      1.8428836919412699      24.972055873730493      3.2166460467400384
    27   1      38.136666825340541      24.835996602432836      4.1350211215529518
    28   1      38.229890790431597      26.853778466582611      54.161818879472847
    29   1      1.7692562083451622       26.76714457057323      1.5998213206103755
    30   1      1.8407679840800677      28.748503930432115      2.7893364609380544
    31   1      38.168505063275937      28.847046762213186      4.2078441973460503
    32   1      38.269841914502678      31.108505146604411      0.2125408962897837
    33   1      1.5994881299427632      30.636164455622765      1.6987201070064204
    34   1      2.0921293569654456      32.784767502206719      2.5518048482870892
    35   1      38.364465681571005       32.59355133715566      4.2529357248207278
    36   1      38.388200743883566      35.024933953025922     0.24186644314856953
    37   1      1.7255307548600392      34.938519619294468       1.742415584651658
    38   1      1.7994426551203351      36.937156822097414      2.8311644226495689
    39   1      36.447621507825147      36.384149401871341      2.6582660122816018
    40   1      3.7147233714464498     0.11328889407382933    0.013122402874853365
    41   1      5.5302618778820447      38.169501634282753      1.1899479243075237
    42   1      3.4633322976704872       3.989185316017279      5.2686891053128164
    43   1      3.5887655103706297     0.62732372184489127      5.1655854219755843
    44   1      4.1207442985749436      3.9266714785929979     0.11994770370148446
    45   1      5.6101913254632967      1.9453739356773059       2.794250056606665
    46   1       5.914851119442095      3.8746850473783501       1.379340986978548
    47   1      5.4461022309724871      5.8424220997261909      2.9319741574392877
    48   1      3.9532570867758392      7.7228438363496519    0.061455595906068222
    49   1      5.7971668412195134      7.6044598670567121      1.4768818320624639
    50   1      5.8713800666090332      9.3738723977176814      2.8979320336309451
    51   1      3.9796818291038756      9.3979214341625621      4.1033570064454361
    52   1      3.9830765173839326       11.45361326743655      54.254975416716874
    53   1      5.8981020137140376       11.17904367364558       1.319674602536463
    54   1      5.8029104112421903      13.183179669123664      2.7211755739661152
    55   1      3.7003833598908478      13.170696303775845      4.0827691895357603
    56   1       4.085512280828044      15.748067778833967      0.1214660742782146
    57   1      6.0284494168554454      15.027255088807198      1.3979867669558974
    58   1      6.1484999068984667       17.07355922992123      2.2682748003315485
    59   1      4.1853718232088708      17.051052930632974      3.8014031564478628
    60   1       3.863955565981128      19.521191712434462     0.20685228463956923
    61   1      5.7238857662236002      19.079711179165884      1.6390059019132095
    62   1      5.8000364126953601      21.073474697156769      3.1732470965118407
    63   1      3.7761730788362002         18.969816726224      5.4439215332721824
    64   1      4.2658972932167156      23.429854461870363     0.32142052737860916
    65   1      5.7210935621053096      23.111248530864927      1.8142521219822689
    66   1       5.923056037025467      25.131389379407523      2.7344135027830689
    67   1      3.8001037377448519      24.845588544677675      4.4363881170984873
    68   1      3.9328937959796009       27.03601841535961     0.53303396801845759
    69   1      6.1001847327084535      26.730519936361091      1.0917736601804915
    70   1      5.5416970301647623      28.765414728573994      3.0032818685449474
    71   1      3.8390036918089301      28.748920177983727      4.1741394759586559
    72   1      3.7053753382853443      30.745915508660609     0.35130354489100446
    73   1      5.7473156545359965      30.522846316947494      1.4968571893715561
    74   1      5.7417879151561886      32.687527845334344      2.7006554131408746
    75   1      3.6751808342274854      32.614034731107189      4.1470872486498234
    76   1      3.1829236775006442      34.981168299744724    0.077810624409051121
    77   1       5.200874016989407      34.313180349482685      1.1511160656234074
    78   1      5.5751029464093307      36.309763306431982      2.7806628734449537
    79   1      3.6168628233521152      36.829026317880725      4.1247599331845013
    80   1      7.4857569442111584      38.339731893195172      54.195341406078882
    81   1      9.1566958123138722     0.29899465403958059      1.4099734154906753
    82   1      9.4565177053415379      1.9599049493145095      2.8137380490618376
    83   1      7.6070184789305957      2.1246983562938224      4.0582743571984885
    84   1       7.931763389608963      3.9683738193502118    0.098376214593281233
    85   1      9.7699376432991798      3.6173429065162379      1.5039572203295974
    86   1      9.5882656651590619      5.9669586469565932      2.3373441361049139
    87   1      7.6561334890906823      6.0586192838166335      3.9325905886057275
    88   1      7.7180578060706369      7.4871087356780341     0.21435171418420412
    89   1      9.7326578249554583      7.9370056769237713      1.2891720889623923
    90   1      9.7097819325669157      9.8486170722510042       2.848530993395594
    91   1       7.669129789858248      9.6597160010578911      4.2373715938072438
    92   1      7.7737693729382791      11.362514475955901      54.006062544505085
    93   1      9.5223501846972844      11.463085961070089        1.31327300464012
    94   1       9.645442004757518      13.331181038614417      2.5353214801652388
    95   1      7.5972944799824571      15.337745883025038      54.213745200640659
    96   1      9.5556192166253453      15.255628620045977      1.1355796799435569
    97   1      9.2396849604267732      17.316714233306936      2.2392466842752032
    98   1      7.7528616891420237      15.092988093644065      5.2501413148162692
    99   1       7.600527998321402      19.703401582747748     0.25632545293931319
   100   1      9.6697553088938477      19.723234855059179      1.2547202980312031
   101   1      9.7280402739180207      21.544824086328788      2.9867592918053418
   102   1      7.8472471378785755       21.19598204374368      4.2960846053711315
   103   1      7.6745218113395941      23.022749720290445     0.47099028076190724
   104   1      9.6932292006664742      23.500409218377229      1.5843510623651227
   105   1       9.412559235372008      25.561487075879729      3.1327878151511421
   106   1      7.4657080441555701      25.233080690662387      4.2101298279388599
   107   1      7.4573477090842619      28.672620217856146      53.203306716497949
   108   1      9.0844167045275643       26.52385302037683     0.71865973389459259
   109   1       9.211710796097492      28.611490572609586      2.4882172670321876
   110   1      7.5582838835064603      28.776179298736267      4.3572400141862762
   111   1      7.6855528872060184      33.073236043383368      52.991395974362504
   112   1      9.5978942095787509      30.442903587442693      1.2820135277915485
   113   1      9.5375636256650989      32.441251149070709      2.7769216163730452
   114   1      7.6956481949818212      32.561650808792002      4.0865293063674564
   115   1      7.3101110952253885      34.911117508927475      54.289027220703488
   116   1      9.1863063010440786      34.488405503031046      1.6697627181559456
   117   1      9.3596188715281414      36.750371850499015      2.5744886068324746
   118   1      7.4151475975942418      36.311657021042819      4.2703364821296281
   119   1      10.825350664889685      36.490478540560702      53.154271196628159
   120   1       13.10375303574607      38.083758264164594      1.3959526045906172
   121   1      13.070241314345411      1.7448487272625472      2.7380023623680931
   122   1      11.157560017707883       1.679938226795735      4.2886897502608781
   123   1      11.620073296626238       3.602807445379371      54.189839842224288
   124   1      13.521502754177758      3.7720102457754221      1.3932477805975287
   125   1       13.36056768707369      5.9301218599191658      2.5118903988762784
   126   1      11.258371856770831       5.789011354284149      3.8382044837228717
   127   1      11.183480967160937      7.7379390027580675      53.964994087081806
   128   1      13.115877573944179      7.7227634054848959      1.1764856896247942
   129   1      13.341596759562421      9.7324473564642027       2.642106683927854
   130   1      11.489916569575934      10.000033636807114      4.0819710178924549
   131   1      11.568645168644657      11.242311535198278     0.14853646187442579
   132   1      13.603462574246423      11.567227783596064       1.173845721986877
   133   1      13.371308083192419      13.667074949785791      2.5152136065212489
   134   1      11.368652525181133      13.276311311128721      4.0828900233763612
   135   1      11.462716893866839      15.126448900282046      54.291049693354928
   136   1      12.965964119269685       15.78243183593743      1.6183504030472389
   137   1      13.548377297854399      17.742838291844699      3.1689040264344293
   138   1       11.39985932358757      17.115193955252067      3.7571466676363241
   139   1      11.703686006694717      19.178311831083541      54.266531070557029
   140   1      13.601472607304961      19.035916333516138      1.2061992322277988
   141   1      13.508731840497253      20.899237782561293      2.6756495959587618
   142   1      11.571930922361432      20.990593397481888       4.063041967150979
   143   1      11.619557726065004      22.984147242111916      54.211018429836408
   144   1      13.277467658117954      23.049833096533622      1.6829057147300326
   145   1       13.63398506640956      24.916467548217458      3.0566465483046596
   146   1      11.467457011395135      24.989993512987823      4.1568541862798529
   147   1      11.587491742873548      26.929398433997079     0.29920268645723808
   148   1      13.425982286973394      27.035510818231707      1.8712632415653043
   149   1      13.274640638503019       29.09570505796729        3.08932532845248
   150   1      11.122630569041293       29.02657033782932      4.3200909895698247
   151   1      11.528831871936813      30.982174339075232    0.096241037369134239
   152   1       13.39358656824961      30.833954906699425      1.5393185837998065
   153   1      13.302550349774039      32.692221938208796      2.9686479865451596
   154   1      11.324260090872928      32.812682334727214      4.3103018350050446
   155   1      10.903995413411126      34.735949257690542     0.18884957781729109
   156   1      13.114990635910038      34.568753341121258      1.4356897189538493
   157   1      13.348478756604433      36.479721474541094      2.8316047677812342
   158   1      11.589443599669972      36.687258987458101      4.5423214561788416
   159   1       14.93540883675503      37.929628725699267      54.215122210298674
   160   1       16.94553212102592      38.270830666313969      1.3360425346781875
   161   1      16.892544087864568      1.7625934596620074      2.8133943916816291
   162   1      14.828863114464433      1.6612678597342574      4.1787695241434886
   163   1      15.280800928928873      3.9484337555733919      54.174559000688973
   164   1      16.985150461108397      3.9375046774455518      1.4953853200489227
   165   1      17.306569709517831      5.8659212253992807      2.8087761192680669
   166   1      15.214892887528235      5.8522573298650444      3.8606212995192455
   167   1      15.138379907358409      7.8052619803561996      54.249912528212533
   168   1      17.199689878554839      7.5128198300548181      1.1214720655036763
   169   1      17.194578172478419      9.3787069897028026      2.5504322480683879
   170   1      15.500057947522846      9.6540864901265451      3.9810527203397212
   171   1      16.011117956271001      11.248353318809341    0.075275013476925792
   172   1      17.734201794592039      11.630617143222569      1.5326000629097252
   173   1      17.770026437118027      13.366406280158966      2.6955187755620482
   174   1      15.605464721709355      13.527634138267745      3.6020911749863882
   175   1      15.245752129834813      15.072519620811162     0.66133870124651795
   176   1      17.496536687198912       15.29599068936689      1.5689630901030351
   177   1      17.810685973031191      17.476157747446845      2.6777334339833123
   178   1      15.663276475309294      16.911456798436376      3.9327283670031541
   179   1      15.503216757880944      19.058260092839166    0.074986907125469501
   180   1      17.438957293745638      19.211036544859763      1.3820743128426927
   181   1      17.158701634297913      21.063900752358034      2.8689552913811203
   182   1      15.492186086668781      20.954749644298499      4.3959480883288631
   183   1      15.356515908621727      22.756766797156502     0.25703453682473332
   184   1      17.258413409440205      22.914626895805114      1.3940792058919229
   185   1      17.241388171949247      24.664530081465241       2.801977512503107
   186   1      15.424625626804779      24.462458400168742      4.1595639943194422
   187   1      15.103280513041085      26.543048095786226      54.273466413844559
   188   1      17.073385657650174      26.854870320385015      1.5917449265540675
   189   1      17.122505276565764      28.783557034875695      2.7351849143347193
   190   1      15.429027580771969      28.801763589005741      4.2440737203203653
   191   1      15.375257923086066      30.670259930509665   0.0018443195104168829
   192   1      17.395975214585551      30.925449441635333     0.94436256719574174
   193   1      17.175569955894595      32.682442680661374      2.7421714551778682
   194   1      15.032130132828964      32.339275219736855       4.395391729412168
   195   1      14.848073379337636      35.025446484917445     0.11915543158954714
   196   1      16.908813849466338      34.734352270056306      1.4974235061584504
   197   1      17.396807970211562      36.509504871965959      2.9927628024314137
   198   1      15.330582235576546      36.408013444565903      4.3277403328285668
   199   1      19.131916626168845      38.137842180216488     0.38146468122862398
   200   1      21.303350860756083      38.197186973884442      1.1899829911186643
   201   1      21.152914552699567      1.7306376636020424      2.4970535121158512
   202   1      19.320785678356568      1.6316642033940383      3.8706730051786944
   203   1      18.838030867081411      3.8241345569310465     0.30134946897986759
   204   1      21.135936046673756      3.9566915071785274      1.3672474305168745
   205   1      21.115769548829729      5.7578320934079352      2.7868007673591926
   206   1      19.397239336779485      5.7901773497077507      4.1293797569714226
   207   1      18.978885452615362      7.6919968410312194      54.140529448944712
   208   1      21.038813502821665      7.3270481896578943      1.0293611222954633
   209   1      21.338708225017786      9.0997339574630534      3.0344106804184081
   210   1      19.074859496672708      9.0629972782467902      4.0034453789660569
   211   1      19.293905791721908      11.305207666598676      54.295694767760722
   212   1      21.442286274284939       11.06878710879244      1.5803195227669551
   213   1      21.483679347411179      13.281130261184952      2.2066917622472269
   214   1      19.783278946047243      13.221358901377677      3.9620182647888433
   215   1      19.026774083805488      15.538127211430556      53.630532612414875
   216   1      20.942001068643485      15.557647574165415      1.0159856888746386
   217   1      21.363572622704378      17.211147754774402      2.6530467855293045
   218   1       19.68807359020186      17.072395051508906      4.0792233702090677
   219   1       19.52760548503143      19.127112890068727      54.293195030479446
   220   1       21.26908986957632      19.330818097901982      1.5740711739189246
   221   1      21.271650378349509       21.31067804628103      2.4289997443669322
   222   1      19.387773811954379      21.155824755553674      3.8303577600760845
   223   1      19.346914891995681      22.926639043443938    0.017208382678495594
   224   1       21.47137433268627       23.23890889218886       1.299956353304641
   225   1      20.772315325475994      24.986703700746244      2.6660341855679373
   226   1      19.164970483398843       24.79943386659059      4.3074920481230823
   227   1      19.508957538885554      26.414470423568428     0.19305648224454885
   228   1      21.413361957349217      26.957067191410278      1.0010412462240417
   229   1       21.26503631407887      28.313800880506012      2.8560558877967401
   230   1      19.071340053472326      28.533675092661397        3.97926965589668
   231   1      19.374031924437279      30.625368884426798      54.132353845781758
   232   1      20.860618732386637      30.455496094565525      1.7076495663759157
   233   1      21.017365173641117      32.314926307540169      2.9225394053122637
   234   1      19.098272481260572       32.59652820531889      4.2156160071073936
   235   1      19.239883954783181      34.336050210517953     0.42569378330127844
   236   1      21.334319119820961      34.103796028238236      1.4511279476741163
   237   1      21.179476540993313       36.03225195864821      2.3889635716198074
   238   1      19.407850129224329      36.144354001396181      4.0741522698826893
   239   1      22.915414700915804      38.198457902699595      53.835520092530068
   240   1      24.692638813081906     0.18163841882791751      1.0228525476966535
   241   1      24.871010120524833      2.0067068756829762       2.582025436656068
   242   1      23.093941060408557      2.0111417123291893      4.2003854141995571
   243   1      23.321992776244173      3.5596518685538214     0.25449815511361756
   244   1      25.377337983108976      3.8354083721631209      1.3745537080591346
   245   1      25.120663574149443      5.6064358539787982      2.5427223467454017
   246   1      23.167225181106343      5.9092341686550611      3.5995175394553689
   247   1      22.923502575664379      7.7765368607925369      53.947067395412134
   248   1      24.764812527202157      7.8600675239187643       1.330815937248006
   249   1      25.195385185315356      9.5892625316411131      2.7053056593292921
   250   1      23.178651026196949      9.6868058436196716      4.1495246828681429
   251   1      22.822556275029118      11.585118778672877      54.026461022311146
   252   1      24.548305295179908      11.478257006443288      1.1019104429160629
   253   1      25.162608454516807      13.691758552178905      3.1341326302808388
   254   1      22.926952302703839      13.502852297288817      3.9009633766127214
   255   1      23.049541595028415      15.602098587915942      54.065302719296838
   256   1      24.949225615004199      15.281694713861553      1.1621122063928633
   257   1      23.021526676738979      16.876987963391539       4.216288383920471
   258   1      23.086630120814231      19.560584683064448     0.14672881346514258
   259   1      24.905307916119199      19.293123375783825      1.5847525544674326
   260   1       24.82909199181503      21.103542090222387      3.1597059434721348
   261   1       22.93797473525871      21.269319245387948      4.0329611903645084
   262   1      23.703511400355133      22.857712087674027      0.3709859556931403
   263   1      25.228840210891644      23.164430366861268      2.1451829662565363
   264   1      24.833061216812787      25.153474890335957      3.2258925834516736
   265   1       22.58839853523147      24.965312589304439      4.2483888113840163
   266   1      23.317457637110394      26.576331322530852      54.141501782863237
   267   1      25.085997902989799      26.754361677630303      1.2492689232142398
   268   1       24.89412718417514      28.748389053371952      2.6548580409859848
   269   1      23.282335462799036      28.755327444635508      4.1355398467142646
   270   1       22.86151323214699      30.391978139042042     0.16975151076693487
   271   1      24.780915099121032      30.730060145585711      1.4927216560144403
   272   1      24.798180137482955      32.784705236368886      2.7175686165787991
   273   1      22.913771842345032      32.518284452456598      3.9823836911097934
   274   1      23.060642817547116      34.470735618784822     0.13049364980247444
   275   1      25.133047480453534      34.738254523437398      1.5069567350968356
   276   1      24.545739130850222      36.665644234706306       2.622402688850876
   277   1      22.925659372180402      36.462574003988301      4.2077352777229633
   278   1      26.708507339866717      38.394956314009889      54.281145846605973
   279   1       28.66278954435538     0.12342622272561997      1.5667325548151754
   280   1      28.921039143750569       2.363870863788053      2.7199462734013182
   281   1      26.821272059145453      1.9272626265898336      3.8650457318599112
   282   1      27.021882786222783      3.9510791063409232      54.034892841086346
   283   1      28.893777467645918      4.1219400451421535      1.0560009908757018
   284   1      29.081550808698552      5.9329434071680831      2.6003346738052207
   285   1      27.050809683312881       5.809103743502658      3.6623674138974347
   286   1      26.798552182718641       7.917497905684133     0.10287390029776561
   287   1      28.839208147005394       7.763293802083945      1.2829046297166662
   288   1      28.454683626084691      9.8388800120653386       2.710046759624313
   289   1      26.807771054264766      9.5582757827244684      4.2782819911796288
   290   1      26.776080408887168      11.505077866813634     0.18814934328139529
   291   1      28.636524397631035       11.71937868711341       1.467071986984231
   292   1      30.962219603817552      13.658451242839599      4.0658335530333369
   293   1      29.047030488270995      13.721281371694952      2.7643148688961645
   294   1      27.130021772972256      15.378353942071705      54.166485184389259
   295   1      28.934610273946884      15.680632178273951      1.4881188231697264
   296   1      27.532317371999465      17.384524579091217      4.5338993339439622
   297   1      25.000362061371529      17.355207741451292      3.1150406301048292
   298   1      27.115846111317271      19.107042617701349     0.51228570839896281
   299   1      29.172710972004584      19.042273298022309      1.3094176594929334
   300   1      28.921581217446306      20.963280531936391      2.5124935686266423
   301   1      27.013104457202971      21.464945574258071      3.8191393089138819
   302   1      27.081708082822992      23.102053797642945      0.5316679297334983
   303   1      29.138913495278928      23.115917933674428      1.4662027401273332
   304   1      29.020980313716819      24.857347289122188      2.9839269758965647
   305   1      26.988980236840458      25.032855543599489      4.3926450737859586
   306   1      26.995160510595372      26.413925002677129    0.083171558772881085
   307   1      28.930726286754076      26.652527777015216      1.7119200690302803
   308   1      28.790287551634176      28.792808894622933      3.0662496523936391
   309   1      26.758123199317218      28.686854271568354      4.3162812405258029
   310   1      26.675507953338407      30.696998105323338     0.24703269381063819
   311   1      28.764792952116682      30.399495279400742      1.3634403215138962
   312   1      28.676155657093858      32.578877627335331      2.5076145228134559
   313   1      26.942577430665313      32.903316539141933       3.819550334775534
   314   1      26.864890623295111       34.64759833880381      54.236677729375351
   315   1      28.626863405737918      34.504876258255095      1.5178182665897768
   316   1      28.500076154809555       36.57443865688051      2.9396633111776258
   317   1      26.482055854853495      36.626039882198967      3.8559902434491602
   318   1       30.43845810596498     0.10432554231508868      53.930902092883834
   319   1      32.922374240894719      1.7946827561454493      2.5692460590015354
   320   1      30.840001509551666      2.3057272601237746      3.8755120705210038
   321   1      30.798329811736032      4.1466023685448778      54.157969953436357
   322   1      32.748742220230127      3.6920505230002516      1.4802393272329231
   323   1      33.035725913358647      5.9316386394532037      2.3925842475632058
   324   1      31.092326333027081      6.3683893157078781      3.8738952163732723
   325   1       30.67758882651632      8.0395804162685476    0.016171203303576947
   326   1      32.499412044104268      8.0505999831471584       1.343449349928356
   327   1      32.608872013391732      9.9665321753536809      2.6701428032626975
   328   1      30.445414207079494      9.5187616961422581      4.0031373571705124
   329   1      30.582447205005359      11.912452912837388     0.15401352343105812
   330   1      32.368087949497912       12.05226031598955      1.4212479223897296
   331   1      33.007737870010516      13.722804250201904      2.5355281939430467
   332   1      30.772841033195174      15.170945342460533       5.723102808445109
   333   1      30.430841315951163      16.208696593699873      53.983660378352404
   334   1      32.711446672760118      15.542546047750648      1.0250321095467394
   335   1      32.917347993785775      17.306542062313092      2.4463919960127898
   336   1      29.034592110086599      17.288019407625097      2.9285433477780303
   337   1      31.035115465151737       18.79809955447675      53.672158550013918
   338   1      32.837330999541017      19.089407922740332      1.0922499635203511
   339   1      32.606447097404285      21.038459970155646      2.7043284451449403
   340   1      30.805482303431479      20.835023343980218      3.9851944131258952
   341   1      30.832598163854591      22.878394509159559     0.12794138954659506
   342   1      32.728558565847571      23.054590742498839      1.5310027676484976
   343   1      32.798752047318153      25.118914545174867      2.7396212492070515
   344   1      30.950006750382641      25.209218352464024      4.1435326003266386
   345   1      30.912907181374955      26.442713410496086     0.21386708135194088
   346   1      32.488416316561434       27.21165397535114      1.5283157339523328
   347   1      32.335579067765373      28.982485767836174      2.9749321779218802
   348   1      30.519678842514026      29.181261245421023       4.555462323117843
   349   1      30.545628085245532      30.600577264920023    0.084178508498155238
   350   1      32.480902072063458      30.882713133823838      1.6676522050384623
   351   1       32.68622359102504      32.811869962528554      2.8957678221038248
   352   1      30.339999397994621      32.832743384572467      4.1029800631221525
   353   1      30.381472605891659      34.862939901875293     0.20872530180392906
   354   1      32.451987679703379      34.651779359975649      1.5073955389544837
   355   1      32.629617541710225     0.13668892909634073     0.95520837232553402
   356   1      30.693994091523884      36.728603301940637       3.971111701466929
   357   1      34.723808423268814      38.312920801214666      54.026625716019055
   358   1      36.494835367082899     0.19663822737754838     0.91677781090534149
   359   1     0.38422654008848456      2.3515924677640205      3.9565571098588412