dump/Fe_750_5/steps_51 (written by ASE) 

1995 	 atoms 
1  atom types
0.0      28.699999999999999  xlo xhi
0.0      28.699999999999999  ylo yhi
0.0      28.699999999999999  zlo zhi


Atoms 

     1   1    0.050673079261698069     0.13306861141740178      28.578921168038111
     2   1      1.4527378261154933      1.5134726430109013       1.411637903546352
     3   1      28.691831637742808      2.8075364478689946    0.056124663399498342
     4   1       1.348906265086395       4.227230347546409      1.4191719553195186
     5   1    0.028677624102806835      5.7314199589138202    0.049496164463948895
     6   1      1.4318367262419203      7.2549170540227754      1.5086405900167497
     7   1    0.041698682787092003      8.6619814484205797    0.038091285896280164
     8   1      1.3595759184577332      10.047814523522499       1.432576501841039
     9   1      28.654488018552161      11.347111893662227     0.13706766474272164
    10   1      1.3844842951702969       12.92686898375902      1.4914686150216649
    11   1    0.071819409796615594      14.456864174702854    0.068805802620840892
    12   1      1.5667316776659406      15.729892366503712      1.4400265335332378
    13   1     0.20213047721991964      17.161983394436117    0.097148146588176582
    14   1      1.4503283280032415      18.744044813749365      1.5519685289896403
    15   1    0.015495760343711282      20.136009543274465      28.655094889251803
    16   1      1.2411821621575427      21.544816486823553      1.4946418359248819
    17   1       28.69025927482744      22.951006423914343      28.674217987236759
    18   1      1.3464405863687972      24.297776285963103      1.5460532527109874
    19   1      28.515623876308481      25.921247287592902    0.017350566005291036
    20   1      1.3424776085064898      27.278874960745345      1.4643090987661016
    21   1       2.846582664610152      28.548616356910831   0.0039370327265373858
    22   1      4.3069360495846141      1.3950989498476019      1.5853971460680565
    23   1      2.8505432892017559      2.8695332573424372      28.601310504169593
    24   1      4.2828703200110789      4.2627384393118728      1.3644901411169819
    25   1      2.7464911783073398      5.6305999196731928      28.518497291039811
    26   1      4.1757824820478717      7.0822507619107871      1.4747920263620597
    27   1      2.8387991030365343      8.6643089167673306    0.084502446460737568
    28   1      4.3104576444454619      10.094592503671679      1.1657885147359588
    29   1      2.8138699794908817      11.509475884214233     0.12466682736192072
    30   1      4.4620762674774861      12.791991421567886      1.5605072114195888
    31   1      2.9550299497279662      14.304994760844622     0.15345644620614379
    32   1      4.3225600242758251      15.832620595291742      1.4907906798129478
    33   1       2.797838969814233      17.362069980536955     0.14520887467418786
    34   1      4.4463934761059747      18.736791118142584      1.3654371838293966
    35   1      2.7808104539716432      20.129835937523481      28.684225221916709
    36   1      4.2851428518138377      21.413550612219208      1.2754092938669721
    37   1      2.9675386277420479      22.831810708376786       28.58780034548619
    38   1      4.2878407071084332       24.16644169662105      1.4518268165865724
    39   1      2.7186623592393069      25.879435083299946     0.12009721285943455
    40   1      4.3111644843857793      27.341961036241351      1.2313414652792507
    41   1      5.7801101593744386      28.692599115166018      28.664392177755023
    42   1       6.946852454311478      1.4298226996530738        1.35040621585988
    43   1       5.505652490510629      2.8417123909452955      28.574092692668646
    44   1      7.0058741876940314      4.1172669150420909      1.2872699207468261
    45   1      5.6381360769652193      5.4605501969462713      28.671271878970462
    46   1      6.9890169612522994      7.0951572340779112      1.4710803087761288
    47   1      5.6837740139743493      8.5912393563357803    0.017994170964004741
    48   1      7.1804072463760829      10.156451597573216      1.3479765841959883
    49   1      5.6913009893864164      11.618892931015925      28.656076950367424
    50   1      7.2168492747668953      12.883102627178504      1.3785368793394572
    51   1      5.8328319672104438      14.476389233753878      28.645982342876056
    52   1      7.3085676547063123      15.888846218301454      1.5461697781902226
    53   1      5.9132629521699256      17.290330156329915    0.081249705051254825
    54   1      7.2701593819740076      18.683844634569489       1.374700522502053
    55   1      5.7771921463197131      20.017015730682481      28.629692120898177
    56   1      7.2213212046612636      21.489263010989394      1.3569684226762073
    57   1      5.7592129208956031      22.981680956760751      28.638916510720378
    58   1      7.1706693671980162       24.41543279448555      1.5546715570162521
    59   1      5.6935069688737467      25.842975272960857      28.497006686553092
    60   1      7.1255539452974892      27.149371824507504      1.2896863855962009
    61   1      8.5847878878530199    0.045104579252440088      28.641112345449031
    62   1      9.9985178662450824      1.2775187828832471      1.4243485056457517
    63   1       8.543533020334058      2.8212857624152901    0.034711815387765847
    64   1      9.9667437868844289      4.1189636135471375       1.379549169124958
    65   1      8.4467845084937156      5.7210287447642312     0.18389376723847597
    66   1      10.013147144864099      6.9803920408937286        1.40293203737417
    67   1      8.4944521903797021      8.5396374162132158       28.60645096899151
    68   1      10.164581235343965       9.931543469417683      1.3412512240817129
    69   1      8.6899968465255348      11.477233279877655      28.530531000222812
    70   1      10.266917919282408      12.889969136204536       1.365212111249515
    71   1      8.5511717979391939      14.333489251818719   2.634922201423251e-05
    72   1      10.010891919317647      15.642163560969765      1.4712657553007145
    73   1      8.6728585769127697      17.180864141147485      28.676183264286557
    74   1      10.240440546862027      18.638648734556639      1.3653346182662396
    75   1      8.6764642311518703      20.087248155921593       28.57537392030466
    76   1      10.094136573036801      21.495012361555265      1.4108664843229337
    77   1      8.5700533968384018      23.043144148803336    0.012105340884670551
    78   1      10.143296257860873      24.468813731969327      1.3277496884335491
    79   1      8.5926634244428755      25.784341363741952   0.0038081873837995652
    80   1      9.9776318365181922      27.211359931815984      1.4116538028323462
    81   1      11.506946522605945      28.635416285341623      28.692792431295178
    82   1      12.873183397297117      1.3882165458620639      1.3460855956726605
    83   1      11.532884498052145      2.8247632657686172       28.60806366455353
    84   1      13.073457262448413      4.2475845848834171      1.5129683873370128
    85   1      11.468639912577473      5.7059720892384034    0.016952339425222351
    86   1      12.838856385700769      7.2280857393000248      1.5603112924357907
    87   1      11.448530360186677      8.6106430038103667      28.587130852603483
    88   1       12.81796758397995       10.05818287631155      1.3918148635895375
    89   1      11.442559729198758      11.335221573680288   0.0056931467978302095
    90   1      13.034707490833391      12.792983326238931      1.3400277352135626
    91   1      11.654349548668504      14.280345243455741    0.036222904873670921
    92   1      12.923077820528798      15.844508091795833      1.4415778398555388
    93   1      11.644263501112821      17.041376491963089      28.686333512577097
    94   1      13.005404737018774      18.399149596298667      1.4429122652470034
    95   1      11.568225915256813      20.151129787829671     0.17748791460994645
    96   1      13.012216904269071      21.852240496711541      1.1636956260306759
    97   1      11.531432128866332      22.901853462454213      28.578592123342393
    98   1      13.017865182647933      24.294679103760487      1.3946917379263601
    99   1      11.553165216424674      25.943257215138214   0.0023005144734270276
   100   1      13.059190395919209      27.212481339364714      1.3495940432827975
   101   1      14.309089282679253    0.037613666859012497      28.647615669909545
   102   1      15.866061251566544      1.4497732711649616      1.3637545595530352
   103   1      14.263745205957287      2.8257647330310425      28.688393269270808
   104   1      15.944664996952275      4.4114780727878884      1.3625475863161101
   105   1      14.368435255734662       5.831072839935306    0.021918514509320634
   106   1      15.633277674607118      7.2682274595492959      1.4336279734760531
   107   1      14.217051239350393      8.5957476333907827     0.16166814560375542
   108   1      15.787629731943547      10.044715599953749      1.3435618209418849
   109   1      14.394553983774813      11.448149632652713      28.652993160066053
   110   1      15.824762666050491      12.839608769870061      1.2630378735706584
   111   1      14.466009055440249      14.388758500228302     0.11499455708325271
   112   1      15.916239827768674      15.781383172275374      1.6286716774670944
   113   1      14.452131165770817      17.143122078838584       28.61456030135993
   114   1      15.733441036252319      18.729970982997092      1.3717978299756963
   115   1      14.391247542430451      20.232184692131394      28.658754018836632
   116   1      15.898534266339411      21.799246401581858      1.3408300817761079
   117   1      14.452352604289166      23.078367675684621      28.515648663431406
   118   1      15.870245255504893      24.571981887516792      1.3551398829761989
   119   1       14.51765497293062       25.95572796339393      28.685226622578611
   120   1      15.753357515882215      27.075434161833119      1.5987057480392186
   121   1       17.28173265224715     0.07492877004134478      0.1813311359083627
   122   1      18.743875961486523      1.3373254949244484      1.4741988502025476
   123   1      17.374483664027185      2.8686058399692933      28.647764088606795
   124   1      18.697005228845182      4.4958385135354346      1.3947438627451572
   125   1      17.206521370361358      5.8789207012109141    0.060421184938388731
   126   1      18.789521219858042       7.235121768515933      1.3905490876632469
   127   1      17.214202602928982      8.6636897495969158    0.066973626059791555
   128   1        18.7056861843921      10.060770494747237      1.5152512919527115
   129   1      17.259881636219877      11.341465112865261      28.645571540942861
   130   1      18.670446851068135      12.964246291611678      1.3517939228382245
   131   1       17.15621428052707      14.390511080315051      28.613286822433142
   132   1      18.513487198943416      15.820396411283781      1.5106944119780112
   133   1      17.118384390823611      17.145416361334121      28.651611477330519
   134   1      18.549100293631941      18.653099720605102      1.3298044961784841
   135   1      17.255186669724136      20.323824077308025      28.683547581385618
   136   1      18.698282816974007      21.829053384938508      1.3287459932418182
   137   1      17.298728111667707      23.051052546646837      28.545106659656657
   138   1      18.557251918704797      24.511828316444966      1.5277280615815918
   139   1      17.244429837549845      25.987973761139468    0.014834278306204842
   140   1      18.867111238479875      27.198472551945763      1.3411701150394142
   141   1      20.100251147716236      28.676405024141332      28.668606429767184
   142   1      21.556499917150653      1.3823730872001181      1.3969692302249999
   143   1      20.010820111738962      2.8737335524990462     0.16907108905202209
   144   1      21.694996172529045      4.2090806479285199      1.4669567682953226
   145   1      20.254813605359736      5.7033522566332877    0.060465538250684819
   146   1      21.602242055745911      7.2807318023202034      1.2240544101710833
   147   1      20.171910804019589      8.6451178040761274      28.685827511704879
   148   1      21.457343487769545      9.9881216053537258      1.2833751599748666
   149   1      19.981669517346109      11.556816124476359     0.12938555591099429
   150   1      21.634009755904046      12.936982518625165      1.3752046347720803
   151   1      19.951415753301355      14.483255755906223    0.097038763088448748
   152   1      21.544698163802323      15.813778010445393      1.5121262238707556
   153   1      19.938745445393135      17.234580713388716     0.12360450124458554
   154   1      21.650173017857352       18.72205383157327      1.5188084019994907
   155   1      20.077783345758078      19.987791614881289     0.10948572981834571
   156   1      21.592264940093951       21.54319808741058      1.4908808143257488
   157   1       20.17331348550832      23.118152395237729      28.657805789919038
   158   1      21.579766504347653      24.280214059409111      1.5459838779520179
   159   1      20.123863692569191      25.870741558571495      28.664300770619832
   160   1      21.576088863334626      27.144496580483278      1.5697616056210564
   161   1      22.987305237083778      28.658719280689429    0.088223280627937578
   162   1      24.285088619789324      1.5530364704459994       1.426643992696506
   163   1      23.051592699037066       2.812778735424287      28.447270722576178
   164   1      24.363946532750933      4.4510171174086279      1.2156262418509864
   165   1      22.954488868620626      5.6967582279321691      28.510762383791491
   166   1       24.29016003923806      7.2299481283702658       1.204774230451563
   167   1      22.963298512135054      8.5728486196414426      28.474420733031224
   168   1      24.244392677825104      9.8219630794452382      1.3054796179872816
   169   1      23.043034544029464      11.606900737412131       28.57775938642294
   170   1      24.312892078740571      12.984251558115055       1.480577503682365
   171   1      23.062229777838542       14.39095643765347    0.016274369131485847
   172   1      24.315904273748359      15.925896739004742      1.5290908213879226
   173   1      22.865295444073642      17.224299697149871     0.12531087672871316
   174   1       24.25906202734798      18.595558994946717      1.6022723255729365
   175   1      22.860122148095897      20.165190649242628    0.052017084302531214
   176   1      24.488434832123858       21.53060239084002      1.4589697410522247
   177   1      23.049176725325783      22.918885149495811    0.013331799672198479
   178   1      24.488862091148516      24.337067331984251      1.5523473001381249
   179   1      22.957913846129394      25.828496230146548      28.627283563715721
   180   1      24.353968022005255      27.291815012373046      1.4572533898720494
   181   1      25.753990996231732      28.648576306990499     0.10874304465535246
   182   1      27.240109197846092      1.3424406779354292      1.4650850575271419
   183   1      25.823762353975336      2.9491542063448035      28.621663941073496
   184   1      27.079746364020227      4.2038116101124317       1.520331604339777
   185   1      25.941233652771793      5.6463660200870853      28.608018792775468
   186   1      27.306696504701332      7.1869568401717308      1.5496292063370114
   187   1      25.820883108007955      8.6370641354036568      28.569329644130377
   188   1      27.101898591476729      9.9535661550808943      1.5159826960174183
   189   1      25.824233300417983      11.458767350259134      28.626013508713953
   190   1      27.164547195306582      12.947012745718178      1.2759576533524282
   191   1      25.752702492788721      14.481076154924629    0.079250460196055972
   192   1      27.358147678492465      15.760373684268625      1.4733046674923111
   193   1      25.761004214259344      17.235565242772886     0.17580073917056332
   194   1      27.290037174031244      18.600722908981918      1.3517518905078423
   195   1      25.868830410456034      20.073656744482051     0.15176373751683064
   196   1      27.027433415084982      21.665265283357101      1.3813881276239728
   197   1      25.628630857120047       23.14236808972424   0.0039144063210869752
   198   1      27.246763659291911      24.488299791046536      1.5115871476995375
   199   1      25.778082650287441      25.898223680796765    0.097831520855959364
   200   1      27.353020100240496      27.422677419410533      1.3787466168421014
   201   1    0.076621925331346624    0.081818564929597271      3.0690447525397451
   202   1      1.5009985215130668       1.538162118527804      4.2883430818428527
   203   1      28.699407220640875      2.9543479406501851      2.8161343091089859
   204   1      1.6046868727794623      4.4291567558322393       4.286150855990102
   205   1       28.68290573843851      5.8087567902652122       2.851382320909885
   206   1      1.4904632716916471      7.2024784975899951      4.2329077686692349
   207   1     0.03562770161374907      8.5492702798411404      2.9722864736895804
   208   1      1.4940470980627092      9.9840167044741754      4.4078627272655551
   209   1    0.082307767893281425      11.475233653214682      2.8622984610012971
   210   1      1.6209498332921743      13.103723864641301      4.3897821751909056
   211   1    0.050992864758621685      14.334019318924867       2.954374492160035
   212   1      1.4511493417215113      15.703048974217175      4.4604199459019354
   213   1    0.064500443379769345      17.051953364609112      2.8650933458911938
   214   1      1.5235487521742477      18.583312514325296      4.2551797849294655
   215   1      28.594960235492255      20.087664753452749       2.786587833396549
   216   1      1.4136285964923563       21.40033848778533      4.2489142155200827
   217   1    0.099875725286598716      22.894416232471119      2.8646815155212142
   218   1      1.5152409601043932      24.431188413976482      4.2169003960345375
   219   1       28.67671662433375      25.773818170537108      2.8535612907983121
   220   1      1.3281654788983277      27.406914325012504      4.4304758496833552
   221   1      2.9305630749333353      28.692137933700455       2.935564360673399
   222   1      4.3681334022900247      1.4714333227561964      4.4399946757459245
   223   1      3.0193814278062439      2.8549662081617613      2.9064448779065626
   224   1      4.3151971386736241      4.3762619308090231      4.4334488304418906
   225   1      2.8650981414780055      5.8656078370053049      2.8545895451521575
   226   1       4.317682096888702      7.1429848402164478      4.2845615387208573
   227   1      2.9108116890056137      8.7358805236711063      2.9208585843282995
   228   1      4.3751176958949509        9.95898186080999      4.3969262250657604
   229   1      2.8917536444572649      11.385672096202413      2.9931770588668272
   230   1      4.4496770340364309      12.785320980411047      4.4764079751598151
   231   1      2.9076463358422875      14.313155869199692       2.843780973285094
   232   1      4.2727609691763035      15.635225938771477      4.4292714527368755
   233   1      2.8996175222358991      17.051922867324933      2.9019362157842377
   234   1      4.3246902916994241      18.806546499630418      4.3687899055239985
   235   1      2.8849605794358468      20.119986050480993      2.9224988519116066
   236   1      4.2943941157156607      21.601728656073359      4.2799139607815713
   237   1       2.904778038544837      22.853283286294058      2.8561094291079807
   238   1      4.2743598079874827       24.29756903465816      4.3350572923920954
   239   1      2.9482712386380614      25.866807876762927      2.8759178586451144
   240   1      4.3822198451558725      27.295400842743824      4.3038086191809262
   241   1      5.7024448643102144      28.573169563614528      2.9672086601827381
   242   1      7.0919321188833742      1.4259479561298118      4.3363788159909475
   243   1      5.7553465577979148       2.937481072007734      3.0071060637952773
   244   1      7.1885071576955264      4.1326189107492297      4.4034666439508712
   245   1      5.7332005501294461      5.5960368867519854      2.8811084904141153
   246   1      7.2018188383062496      7.0224210129207867      4.2927363544503594
   247   1      5.6939566949938127      8.5721059234077259      2.7655397141496447
   248   1      7.1367623859440972      10.028974755018265      4.3171396560467876
   249   1      5.9539407857317554      11.416865234039149      2.7601206351425613
   250   1       7.227142198364982      12.780564971034538      4.3504554558124902
   251   1      5.6742019231609744      14.412667560765739      2.9555847983694714
   252   1      7.1662560035663763      15.856793510782664      4.2931077873905394
   253   1      5.6884782283762814      17.374526957812989      2.9896410001812077
   254   1      7.1824369118882849      18.635252529736686      4.2365043427400542
   255   1      5.7331410579523974      20.048493296211916      2.8677814019883034
   256   1      7.1735527269941173      21.432221067532932      4.3067869383799406
   257   1      5.7225569846614937      22.929424782755401      2.7725599480001284
   258   1      7.3265862740007721      24.418263770946961      4.2707545888966045
   259   1      5.6159470701070013       25.93211014314786      2.7894912314342704
   260   1      7.2152574635997606      27.221004770845781      4.4013293225262435
   261   1      8.3708570021833655      28.597825975469249      2.9101532561248988
   262   1      10.026053967248428      1.2916211150378549      4.2913200474772539
   263   1      8.5252039703092564      2.7965650944818674      2.7744121211693242
   264   1      10.066604926075597      4.1832663277283526      4.1797167660835148
   265   1      8.5149654295135182      5.6781752347999221      2.9743984732277911
   266   1      10.044980408336871      7.4010551112971941      4.4496030665168371
   267   1      8.5144066416918545      8.4150214756449238      2.7577633361433391
   268   1      9.9160599124387776      9.9032131939761587      4.3813650195962675
   269   1      8.6777409004042472       11.41623462687148        2.63251937032619
   270   1      9.9499737982373215      12.890085007365938       4.270219016114563
   271   1       8.528965214412592      14.268155554433909      2.8215784354662117
   272   1       10.12368409667318        15.8742518658231      4.0335750313586445
   273   1       8.652267603564507      17.214803906704827      2.7860240532927021
   274   1      10.036703082988401      18.798035181545359      4.2150602135600472
   275   1      8.5740489220978873      20.062184713088143      2.7944445626406944
   276   1      9.9386098145804347      21.353397576933787      4.2506095398199957
   277   1      8.7595584141503924      22.845049476113214         2.8418471812755
   278   1       9.964043482855784      24.355736246075967      4.3756132033525494
   279   1      8.5849524184394692      25.749366602922667      2.7999903267282082
   280   1        10.0182705997991      27.219617096583651      4.2237987704941204
   281   1       11.58233444107087      28.460703155962396      2.7396659119915494
   282   1      12.934375677027719      1.2641294022458385      4.2441978447672328
   283   1      11.638713617959782      2.7221191542672489      2.7669788230837864
   284   1      12.917738081000609      4.1647926010946765      4.4339422416470429
   285   1      11.456708074324496      5.6174318294257066      2.8262297729156449
   286   1      12.932536691052553      7.2399431763502289      4.3379263190455424
   287   1       11.36415180743461      8.5760631714780722      2.9043030400482599
   288   1      12.849880232438062      10.130660459572468      4.5090392679170064
   289   1      11.450420881449201       11.43326758748333      3.0273297489309057
   290   1      13.126031079398938      12.925148958629414      4.3996342617897666
   291   1      11.523411407742346        14.2720721050915      2.9226173980210932
   292   1      12.986762887377115      15.908369865716374      4.2743655084598036
   293   1      11.439298943880383       17.20309103826445      2.8327497592221556
   294   1      12.925162863257135      18.573864703123192      4.2227090334617632
   295   1      11.711867108262075      20.196135793367429      2.7445994938685767
   296   1      12.891706871725647      21.409710043936272      4.4675820200182059
   297   1      11.600953807962188      22.924269533855501      2.8947769543589454
   298   1      13.047823816150288      24.134408013708835      4.3687201449179094
   299   1      11.656356128534433      25.829716504782468      2.8627507872172715
   300   1      13.019436541460554      27.273664830015562      4.4537238308208069
   301   1      14.365456573352013    0.075133445750850666      2.7502495329457348
   302   1      15.817769383981883      1.4773462511902045      4.2854266121570612
   303   1      14.523042411948174      2.8753343931499451      2.7467142746312097
   304   1      15.806802421237212      4.4516463377799234       4.266858673519784
   305   1      14.290532220812572      5.8673881326525477      2.9114458347518912
   306   1      15.775327077242409      7.2859712968951662      4.2423623685208964
   307   1      14.289349341346062      8.7242741014359133      2.8673164846418775
   308   1      15.872952252308627      9.9570006518020033      4.3584399192388767
   309   1       14.35722035624676      11.425067680701595      2.9837612066398362
   310   1      15.925078400893662      13.015558751296169      4.1331692078165805
   311   1      14.358287320963969      14.337691198933893      2.8147200466303723
   312   1      15.923770085860252      15.930144077241419      4.3340346552566453
   313   1       14.37069232555311      17.215099616481208      2.9255430622987348
   314   1      15.638676728175843         18.756904869528      4.1497155212353753
   315   1      14.374695210043209       20.22349586883481      2.7264413594275072
   316   1      15.912860856277922       21.42238678337279      4.2666696450016168
   317   1      14.571080209231191      22.962620125467325      2.8523193483646523
   318   1      15.897809300230691      24.453763467476975      4.2755704831328618
   319   1      14.153791727324037      25.852678018124475      2.8882132788464188
   320   1      15.669520032918784      27.192549228472547      4.3076089998459679
   321   1      17.226057663676269      28.685655287966728      2.8356622878190358
   322   1      18.543197884762364      1.3724175681806756      4.2080965024794956
   323   1      17.183045008243749      3.0090644319723188      2.6789236650201023
   324   1      18.546062245555156      4.3043667192898596      4.4290941365106518
   325   1      17.231493505593331      5.8716902235313464      2.9396853323943355
   326   1      18.632251262073087      7.3301253264862813      4.1386374518671847
   327   1      17.197427115151179      8.6228357469321057      2.7474658595713892
   328   1      18.666549955790511       10.20255202550581      4.1343330947890866
   329   1      17.199281785301643      11.513775013826637      2.9380035791746439
   330   1      18.615593217610137      13.040369669288351      4.2612250638768963
   331   1      17.293393585793762      14.319248466174605      2.8093576190687592
   332   1      18.684975424155368      15.822466410356224      4.3746865467693148
   333   1      17.287423911550505       17.37732810636269      2.8916065205401775
   334   1       18.59880803015059      18.745598849133497      4.1430480711702673
   335   1      17.196224178639454      20.105903594210485      2.7911491104185981
   336   1      18.619702360295673      21.560068747489805      4.2941147465467369
   337   1      17.383912161690887      23.095948213013692      2.8162831448833678
   338   1      18.632576570865094      24.305135607791243        4.30086373646279
   339   1      17.335164028827531      25.982057714997023      3.1027732022220871
   340   1      18.708123379936673      27.298943319077697      4.2321672578704064
   341   1      20.163860843751834    0.059124312052415584      2.8017838803301163
   342   1      21.341825571050979      1.4607351630948304      4.2427690358494106
   343   1      20.044379702518658      2.9461932205715438      2.8766689688200011
   344   1      21.467563605330906      4.4376441747899227      4.2538480795487921
   345   1      20.206301211803325       5.802465351753372      2.7495724972584643
   346   1      21.384690549340245      7.3723093573646938      4.3483986663365366
   347   1      20.071458982837633      8.6679935618375712      2.7618956907100927
   348   1      21.370727273460158      10.057741683613592      4.1443176198047897
   349   1      20.139046166428933      11.545980745118792      2.7645307386961915
   350   1      21.574353511203224      12.892882000101046       4.261771499634337
   351   1      20.013891982147065      14.446736365874925      2.8136267365119116
   352   1      21.302374590933383      15.831887561922146        4.26170920217616
   353   1       19.97967482607493      17.374802063716391      2.7231840645286174
   354   1      21.474236848264631       18.73465404120045       4.240777263362812
   355   1      20.111077907601576      20.151502186503549      2.7790841460393025
   356   1      21.638395311768093      21.481019969575318      4.4421461148501393
   357   1      20.191368377457096       22.87965170960597      2.9587111150904986
   358   1      21.549436565722534      24.286789563389313      4.3860686662264445
   359   1       20.21283811106024      25.776333839189345      3.0283270340445929