dump/Fe_750_5/steps_41 (written by ASE) 

1995 	 atoms 
1  atom types
0.0      28.699999999999999  xlo xhi
0.0      28.699999999999999  ylo yhi
0.0      28.699999999999999  zlo zhi


Atoms 

     1   1     0.28109574905404489    0.051906836402271873       28.60963673580423
     2   1       1.327669159571474      1.5022650988806603      1.3719334320772754
     3   1      28.660923887154357      2.9247326397603652      28.569832481200386
     4   1      1.4457358588126439      4.1989783922258068      1.4805323772695489
     5   1      28.665366529152028      5.7776937444624092    0.072228932640519022
     6   1      1.5211205351613317      7.0502872291420351      1.4173152444366124
     7   1      28.657217667212919      8.6989578039235145    0.091765497098390408
     8   1      1.5718335006288735      9.9372846705226667      1.5281609509477003
     9   1      28.650525588398569      11.584733843206765      28.655310920851406
    10   1      1.3573982190822911       12.85597027720859      1.3402168762041362
    11   1    0.072910146427387704      14.558566351257971     0.17175247075019795
    12   1      1.4757645528257508      15.806266847277291      1.5750700587147655
    13   1     0.13111181033973582      17.267702662333551     0.16873096270720686
    14   1      1.5249330995620765      18.718653054000256      1.6146212942363367
    15   1      28.626273146391274      20.045532012103429    0.013710544603986805
    16   1      1.2910404148380508      21.659501424011403      1.3974586016476791
    17   1      28.506721486636597      23.035852049808348      28.619941653363057
    18   1      1.3945232922719146      24.410998008739412      1.4007629720002799
    19   1  1.1803037308946108e-05      26.068501926419891    0.075997598558467272
    20   1      1.3879466046870019      27.425959244069862      1.6383243535402467
    21   1      2.8890118934173787      28.499033714592233     0.13294654856404126
    22   1      4.2022081833826501      1.3709330351640907       1.233332268831328
    23   1      2.8567909656783415      2.9514983598193569      28.578238172546946
    24   1      4.2668436846138738      4.3705272227166967       1.478794339478259
    25   1      2.9697428746728258      5.7047649149404647      28.652293669729403
    26   1      4.3426023055764507      7.1131190565229305      1.4441418740350407
    27   1      2.8955338437639231      8.5449964212577267      28.571320354341555
    28   1      4.2158942484898274      9.9885145352279476      1.4356112510025694
    29   1      2.8460833165125798      11.346859064661603    0.048708394661923775
    30   1      4.3709043277166311      12.900585879695075       1.570922764220176
    31   1      2.9599626115213109      14.447936630828623      28.681286294894608
    32   1      4.2393758309732474       15.73636376270032      1.7059057908232598
    33   1      2.9437754512987713      17.214847504349823      28.667834850953103
    34   1      4.1289888544235254      18.765610925863395      1.5292411381951991
    35   1      2.7276833482714098       20.03328564239153     0.14022155470369155
    36   1      4.1414750526727282      21.676206149042962      1.4723494944488831
    37   1      2.7555494631758064      23.087510188827562      28.627144719504447
    38   1      4.3334029554939004      24.226160236665745      1.5056502228737361
    39   1      2.9577515656696485      25.946688924960892     0.20397005967630538
    40   1      4.4974884864385745      27.158640285309218      1.5564709651082689
    41   1      5.8603738688968665      28.681903798942745      28.690830293767366
    42   1      7.3561213164503965      1.3177516124496154      1.0563425977852274
    43   1      5.6118955169156797      2.9942789506024043      28.617404209594284
    44   1      7.2379201406995533      4.1823275805268194      1.3311645018025828
    45   1      5.7380283118892637      5.8965264014360885      28.592068114074607
    46   1      7.3433792517736123      7.0681976765690173      1.3109618176241951
    47   1      5.7980350376359464      8.6477421118076965      28.520439143283795
    48   1      7.3256823968260596      10.040611610035064       1.463326177158798
    49   1      5.8596568582813724      11.497439905347242    0.011294470662357987
    50   1      7.2329276656749757      12.810687261303077      1.4476247143116221
    51   1      5.6444253842244168       14.26331025062413     0.15378169550403992
    52   1      7.1286682261599843      15.776865139434587      1.4477167551257375
    53   1      5.6918484550244699      17.345789895372796    0.051083017954283605
    54   1      7.2437681120690343      18.720475195951927      1.5198585650510252
    55   1      5.6372422769208477      20.191115832105812      28.698272423912062
    56   1      7.1696236651351644      21.547339815227716       1.397451125500732
    57   1      5.7718800693020267      23.102616774294724    0.039847162509886291
    58   1      7.1311490469627428      24.459502777524527      1.5023961033828745
    59   1      5.7474102992672682      26.002292150482315    0.029421145048206518
    60   1      7.3278833756164055      27.279769300628519      1.2814851075262705
    61   1       8.829215387987654      0.1245640451643471      28.365831066913163
    62   1      9.9915930276276619      1.4605768672661947      1.5194856289104006
    63   1      8.6856525320111739      2.9002885843828308      28.616955076134719
    64   1      10.055045615136111      4.1787385923541569      1.3518296144999011
    65   1      8.8072213438971509       5.628413930552262    0.080690297729222593
    66   1      10.191545549608943      7.2925448107328243      1.5024405582534659
    67   1      8.6244082232677375      8.7372258570289194      28.602539115915622
    68   1      10.179926681660307      10.153325749728078       1.450305319290816
    69   1      8.6277490213104659      11.563525155060431      28.675596364547719
    70   1      10.161517167579412      12.888500748349694       1.240023830507891
    71   1      8.4423738116466183      14.449515930840088      28.654175922456322
    72   1        9.90837691940777      15.802638158089492      1.4529119646170661
    73   1      8.4433114369203857      17.260148532718016      28.670520497582462
    74   1      9.9584910695158193      18.516697198742595      1.3727117543411951
    75   1      8.4666254984727445      20.124476232292523      28.504412920093973
    76   1      9.9165460913073495      21.436834251160171      1.4333233770781475
    77   1      8.5752116397045945      23.051262292097672    0.086057988653988129
    78   1      10.137623731945052      24.462502087892322      1.6540688010968083
    79   1      8.7272120138017257      25.874432677168883    0.014108874452062979
    80   1      10.102855386599373      27.357948818321606      1.5722360742863211
    81   1      11.336822235271288    0.058353712584473194      28.584221287961558
    82   1      12.850701651606443      1.2364532504628196      1.4576509677071603
    83   1      11.409102285324296      2.7895593480756831       28.60799450709948
    84   1      12.941475321192783      4.1968964743220987      1.2719604864448468
    85   1      11.310358075197968      5.6568633719201564    0.039200340702166124
    86   1      12.760442731230981      7.3359664867254111      1.4301973893203586
    87   1      11.504335009473797      8.8316467368859275   0.0052961316901587443
    88   1      13.025341014228557      10.100969482431548      1.3166354791650734
    89   1      11.451254829421778      11.456274040863073      28.541819850216346
    90   1      12.945858919741418      13.003644037384628      1.2711017829252103
    91   1      11.418073671919851      14.548234233313799   0.0041042749024768378
    92   1      12.918562326031946      15.918191405837621      1.4514035166615353
    93   1      11.604609233106615      17.202521007858738      28.584377283621766
    94   1      13.021217029081896      18.733599067582542        1.32608723953482
    95   1      11.267697357797296      20.136077520897235      28.673117576176807
    96   1      13.051304722339454      21.476284405610045      1.4127301863585882
    97   1      11.368324269018046      23.058894590573434     0.12431040350487582
    98   1       12.91611287178198      24.410192906441537      1.5118362560729344
    99   1      11.348723969343762      25.989878212629737      28.672442438299385
   100   1      12.932776615696003       27.15452573203266      1.5129611994758434
   101   1      14.421226007119619      28.679549616144559      28.677664827992274
   102   1      15.784212427342307      1.2937220640639919      1.3369926450555218
   103   1      14.586922169944886      2.8332195603459467      28.536272189620849
   104   1      15.790021601678349      4.4263284439072903      1.5364605420336022
   105   1      14.436473409559605      5.7687637648400987    0.033069289798106659
   106   1      15.649092562449432      7.1800775991988059      1.4856879357515951
   107   1      14.427207864746233      8.4344925007404914      28.573885894281165
   108   1      15.691339941649781       9.949534403590377      1.3622076467607713
   109   1      14.338534092346725      11.399159504516341      28.597584401325751
   110   1      15.722688192549473      12.886029717027762      1.2351790840484453
   111   1       14.40532363625297       14.33482241100412      28.688114419998389
   112   1      15.922446069544595      15.748902832952327      1.3026220043541463
   113   1      14.470368949977718      17.134852947716812    0.068819877812075117
   114   1      15.964965172896804      18.808550760165417      1.3661535142431709
   115   1      14.499561635164049       19.97421868086823      28.563873624558241
   116   1      15.784297731930451      21.626895216625879      1.4206697233792862
   117   1      14.318367852606466       23.00837354002849     0.15494085552298889
   118   1      15.772845913077617      24.448843987092701      1.4347016553448146
   119   1      14.173199950377263       25.81370670503966      28.549532298684561
   120   1      15.903650877953167      27.268077516719018      1.4688390367995798
   121   1       17.17052978511968      28.647647346646497      28.510041350077913
   122   1      18.667360369868405      1.3329621415580393      1.3991748647417113
   123   1      17.293536942386286       2.938547581203713    0.036392090429524147
   124   1      18.677840384406014      4.2809642505379015      1.3661992246373875
   125   1      17.208331866595483      5.7006977967023502      28.633477874581477
   126   1      18.392177315170951      7.2651620241247814      1.5110210748175286
   127   1      17.253391357698089      8.6175367969585182      28.569228214699653
   128   1      18.749174501102743      10.125734062443877      1.4280198094747796
   129   1      17.252187744358388      11.460624611239123    0.015344526643775671
   130   1      18.541258144199031      12.913180883479251      1.5036802395941311
   131   1      17.355955492751086      14.379159318004289    0.093722570069462469
   132   1      18.658850567486898      15.807884760133179      1.6610358955505022
   133   1      17.384296526620979      16.971289534806278       28.65149882157597
   134   1      18.506736966130823      18.742294377656567      1.4746314123803705
   135   1      17.227640420046757      20.151335301197712      28.671200320969199
   136   1      18.623688353829969      21.768090777791855      1.2783658713981816
   137   1      17.194953602248454       23.04078778325556     0.11029427564910742
   138   1      18.690463493960198       24.46861644393562      1.4591613748019878
   139   1      17.060921995968567      25.853872120213151      28.582497399453445
   140   1      18.672626928459454      27.274993363414154      1.3855721793592461
   141   1      20.141847298635252    0.080692882695486315      28.605058732738716
   142   1      21.655744962626308      1.4973181998713594      1.4958983199785747
   143   1      20.126215053657958      2.7853981250858957    0.036202700910541667
   144   1      21.538532739174563      4.5366717313912694      1.3348839719772276
   145   1      19.945714100495604      5.8914383879377095       28.69650164416861
   146   1      21.517326494019756      7.1115420702303291      1.4458150139230961
   147   1      20.012985038597712      8.5568541612632991      28.598887154469896
   148   1      21.523750538555834      10.020303987175147      1.4024813663110633
   149   1      20.165604619893426      11.396426669593808    0.018276854533496572
   150   1       21.49664619129026      13.073021931030455       1.489948117820278
   151   1      19.936332033198255       14.25353248200679     0.10333536115053907
   152   1      21.543013513042233      15.902887315503326      1.4840585947848819
   153   1      19.967730024884229      17.248360933690655     0.19696645639613733
   154   1      21.337505564993545      18.748369703381865      1.5491945801270046
   155   1      20.002514548695196      20.164932494092561    0.077104714950439676
   156   1       21.48247345334104      21.675246901862902      1.5393951377213975
   157   1      19.906177335539798      22.908316617132993      28.557860683524041
   158   1      21.493135190519737      24.458855485030028      1.2509730726549939
   159   1      20.084741215889185      25.832057081754741      28.673937509555103
   160   1      21.428015366832891      27.222898641561262       1.426600991761154
   161   1      23.052744363785731      28.644794140700743      28.663006341172377
   162   1      24.446726297575371      1.5378664455167959      1.4900978931018689
   163   1      23.161918866835638      2.9155974259819217   0.0050717814675408732
   164   1      24.450900781276889      4.2813824030144492      1.4539798134552364
   165   1      23.073192481105831      5.8076898378422772   0.0063692678601000889
   166   1      24.472833538398881      7.2028440495949813      1.4602345488858079
   167   1      23.042757686393955       8.668948244744616      28.615141078203195
   168   1      24.525577880893309      9.9314348556121068      1.5329206778615352
   169   1      23.018930917844465      11.583729172541382     0.14915553823383315
   170   1      24.433748869415421      12.882802046871777      1.5553428846875801
   171   1      22.837198638525873      14.320829455702865     0.23397589915791725
   172   1      24.300141151029123      15.905615481008722      1.4927268892042442
   173   1      23.040384626148533      17.267203274883208    0.040445445544810298
   174   1       24.37589726806717      18.755155320365464      1.4661882149434644
   175   1      22.982321609106044      20.083173003641306     0.14511033335271564
   176   1      24.410505017804073      21.615000976844879      1.4519907671331118
   177   1      23.002378024227429      23.082149404300747      28.588661707457138
   178   1      24.382086245556376      24.454597868562814      1.3473221196943317
   179   1      23.007514342147122      25.955507982295515    0.040075485907914231
   180   1      24.416155899306712      27.416290964644517       1.475588399358162
   181   1      26.010454108059299     0.13384762775000528      28.619967267649674
   182   1      27.357402587690611      1.3919075906644258      1.3886460407451402
   183   1      26.129686861537284       2.806450953223429    0.063725621379251099
   184   1      27.267512907374691      4.4330097868409188      1.5987750204633477
   185   1      25.855706578259774      5.7817699988977997    0.051704379346358499
   186   1      27.393492861037917      7.1455728321527845      1.5763644384467514
   187   1      25.978137597925759      8.4621505871053895    0.059229947706546757
   188   1      27.333435042173669      10.204508310811176      1.4068195795394789
   189   1      25.901796250955019      11.541550891929042    0.017668534876031566
   190   1      27.190603796576042       12.78295820056919      1.5145792232249382
   191   1      25.926430332775322      14.514589882404939     0.13849567728311729
   192   1      27.306167906506769      15.737577978678932      1.6483452245093519
   193   1      25.875984525056033      17.212715044920007     0.24020620040886331
   194   1      27.382709956474905      18.582185218265117      1.5598691164567415
   195   1      25.843592634637812      20.089494259480286      28.667842743020515
   196   1      27.167059349149806      21.592530239425901      1.3740200249579413
   197   1      25.863334343478812       22.85487348760924    0.022527971416729992
   198   1        27.2139671090622      24.268529648300248      1.5118849657094187
   199   1      25.948758159301914      25.918682270207356     0.12173648380367003
   200   1      27.306698803228564      27.396523322280125      1.4245984491359411
   201   1       28.63731524877679     0.17788237783300942      3.0607315663462917
   202   1      1.3544754834559727      1.5544050097564885      4.4369514759431112
   203   1      28.512780221128057      2.8142355461719957      2.7951999548683824
   204   1      1.3554522492035175      4.3451863340638246      4.2801833189704102
   205   1    0.052715175318531211      5.5810106034858737      2.8460966039467395
   206   1      1.6226939612726021      7.3002976874301533      4.2141050288128969
   207   1    0.035488990675299419      8.5732869494076329       2.867906256376568
   208   1      1.3343305911281402      10.000862980549321      4.2858397144201987
   209   1      28.664107399863028      11.531423253553713      2.9786086747097871
   210   1      1.5017976168887681      12.782658108154029      4.4810137034666138
   211   1      0.1419689064927081      14.249922212565432      2.8619624467754865
   212   1      1.4895915764073724      15.739019166853216      4.3632924124009227
   213   1     0.02228800050007872      17.143730025050893      3.0583853147366278
   214   1      1.2453053738382343      18.800687307058105      4.3958400404398184
   215   1       28.60457745217191      20.181475897931122      2.9642255630552499
   216   1      1.2969609255256624      21.583081896232045      4.3280032549192908
   217   1    0.073636743090641388      23.077582677834112      2.7258460202094636
   218   1      1.5175700336764653      24.450950915555069      4.3048053002664917
   219   1      28.584307049891581      25.935144229126486      2.7468445149273286
   220   1      1.4328678553454355      27.221895711364759      4.2524965135964079
   221   1      2.8125795326614136     0.26627836657826282      2.8543818764388798
   222   1      4.2239172180699365      1.5533521331904121      4.2619387328310205
   223   1      2.9657043469411981      2.9382542470417907      2.7652729284794533
   224   1      4.3661251742112208      4.2927751304027622      4.2955903738184444
   225   1      2.9414786530836636      5.8442764090569197        2.75816375545396
   226   1      4.4577939842704133      7.1953186294186642      4.3380178608549222
   227   1      3.0883103113235295      8.5256825522448114      2.8211154327249561
   228   1      4.2784576075747802       10.11658422826156      4.3354845614368696
   229   1      2.8546810947368368      11.639165615946627      2.9530933351280275
   230   1      4.3830043196056545      12.939419475664735      4.2756885320941782
   231   1      2.8665124875237664      14.200837034417837       2.948601330458323
   232   1      4.3194911631366253      15.777743626236441      4.3413661141202038
   233   1      2.8020400271180965      17.202464300201523      2.9377870811184938
   234   1      4.2747192621585706      18.578556137151576      4.2299068560583031
   235   1      2.8274205169407876      20.157133008168028      3.1444775426929965
   236   1      4.3600888278289771      21.623529621210132      4.5244300696596875
   237   1      2.7515520347146687      22.998877231318385      2.9517282159364893
   238   1      4.3490429801183961      24.389789116859852       4.207429007284599
   239   1      2.8598261683348829      25.768794021459218      2.9582659500752806
   240   1      4.3668339867792829        27.2338569279433      4.1448716776025876
   241   1      5.7433744446239361    0.081976841403229778      2.9358833666714292
   242   1      7.1595685407454832      1.6260006401333849      4.2601150447305276
   243   1      5.8337058243329576      2.9408440905947026      2.6874693090580317
   244   1      7.1381652327921534      4.1706932309941838      4.2032918979944958
   245   1      5.9405573400486533      5.6586724450493344      2.7684890473436652
   246   1      7.2916657858606113      7.2990735353138572      4.3773413361855491
   247   1      5.8920066770098893      8.5145084541653162      2.9714329909599257
   248   1      7.3473803468298158      10.112091997234266      4.5038308644906682
   249   1       5.718832980385077      11.362009820087335      2.9442120825068909
   250   1      7.1994913485717404      12.854689943840897       4.300368319991998
   251   1      5.8134295983797815      14.340179538750437      2.9196452734538418
   252   1      7.2680455416289034      16.007762126526622      4.2990780661806953
   253   1      5.6412775966522259      17.303284667553815      2.7102568860296969
   254   1      7.1871117849616821      18.616668606712764      4.2184007731368567
   255   1      5.5986141540724672      20.073359380812256      2.7857012467938129
   256   1      7.1337246633263138      21.427451363210061       4.097938532247456
   257   1      5.6930893766677491      22.830032163446909      2.7065179709688763
   258   1      7.2271744864925678      24.366920281412355      4.2072739662547383
   259   1      5.8561909341657978      25.873606061254193      2.8947451068676298
   260   1      7.2872932903846879      27.264107108170514      4.2516993421640521
   261   1       8.286344866070797    0.081940387375687179      2.9569855771133526
   262   1       9.981471478818273      1.5535324526101477      4.3154503857807835
   263   1      8.5697979433360292      2.9011116727602833      2.6903651002013942
   264   1      10.122851822200253      4.1355949416597344       4.279153250747445
   265   1      8.6528895406993769      5.7192800799836903      2.8725117899424277
   266   1      10.121910409362695      7.3035068379258341      4.2733850187243361
   267   1       8.552258586142985      8.6000342532701133      2.8034570580831089
   268   1      10.133269053169592      10.184952351211969      4.2351119886621946
   269   1      8.7901885568799791      11.490171314320634       2.887079050272729
   270   1      10.111599070419709      12.983477528309013      4.2837219582403518
   271   1      8.5363690043191891      14.263682188203905      2.8375765369210506
   272   1      10.045944388620855      15.971151088739175      4.1049556941047474
   273   1      8.4959709288600411      17.333585885244826      2.8911198544717376
   274   1      10.020627125022402      18.566315239342217      4.3335927254959348
   275   1      8.6778344977951658      20.099250280106485      3.0253005597860105
   276   1      10.096455942258075      21.524827366163855      4.2325828196446791
   277   1      8.6774038993735125      22.998604230659748       2.796593407639512
   278   1      10.099245234955358      24.359630676475142      4.2751753496433409
   279   1      8.7068945026499485      25.918044262550854      2.8744263024251708
   280   1      10.041828240321792         27.184993544773      4.5110375010622112
   281   1      11.447904325550221    0.055373760334873817      2.9002994100969319
   282   1      12.940549380036604      1.3972670128823104       4.219641275577283
   283   1      11.446549496051441      2.8162209599236796      2.7920314518220044
   284   1      13.006705615003533      4.1315048405669792      4.1468844167314032
   285   1      11.349489917010498      5.5635601911288433      2.7504735688355471
   286   1      12.932123190481631      7.2038680177587677      4.1772206217114354
   287   1      11.584674249973888      8.6671807487182377      2.9489825709194348
   288   1      12.965385916325419      10.146193648239029      4.2869528419433722
   289   1      11.620520422698943      11.559807585979668      2.6746967160253354
   290   1      13.026616051777886      12.902503246489253      4.2585479552946657
   291   1      11.506735329070089      14.449973837695088      2.8379335107675145
   292   1      12.778523108980082      15.865400735275777      4.2936006550731385
   293   1      11.426658666230407      17.355435776006463      2.9353826605391968
   294   1      12.957924074153434      18.792975722776703      4.4619701649475347
   295   1      11.542167297781482       19.99578227439137      2.7971070656778698
   296   1      12.971364938509446      21.587124915988223      4.3657341778533914
   297   1      11.450025298461606      23.011350318260018      2.9830962312201903
   298   1      12.918392809555135      24.416862080772397      4.4212868572742412
   299   1      11.492976625895766      25.820782573395338      3.0708836019629486
   300   1      12.929127653331053      27.289793876155493      4.3808068942233822
   301   1      14.407836634365182      28.676749961028055      2.9888847309226185
   302   1      15.751245881018715      1.5424711205682335      4.3099556674772277
   303   1      14.386991251712356      2.8108302368301326      2.6794986877438873
   304   1      15.583255370092578      4.2542263295184934      4.3393670445236854
   305   1      14.207716471870784      5.6473853293987535       2.852997113404661
   306   1      15.827630686201426      7.1717446437499497      4.2484563736244292
   307   1      14.151172707266833      8.6007905751937148      2.7547439595911785
   308   1      15.831795590335121      10.037400498964459       4.254761051052391
   309   1      14.443025155897757      11.419057097383686      2.7604780155354307
   310   1       15.73146584137405      12.861254400203135      4.2774100361880532
   311   1      14.377855262477652      14.374234642968441      2.7961771551768377
   312   1      15.805571419029313      15.727947178652489      4.2886702652053446
   313   1       14.43662888198218      17.352947005453029      2.8465835159822732
   314   1      15.828891237846529      18.750121372099883       4.273006676544318
   315   1      14.379750065006599      20.077941391143053      2.7737895843197742
   316   1      15.702065762222821      21.744179368796377      4.3663634846305133
   317   1      14.214753799989433       23.03356069071755      2.9105470045767317
   318   1      15.759978645622526      24.455017556195791      4.4364117093314643
   319   1      14.288891751962709      25.855655677403416      2.9890458465747627
   320   1      15.995960375171896      27.300090714792187      4.3835086895464794
   321   1      17.209454092121458    0.077599249385218921      2.7649728755802241
   322   1      18.563937995463462      1.4189448731181074       4.209292028204918
   323   1      17.223527203022318      2.6762326916001471      2.8218111482505037
   324   1       18.49846283215858      4.0856640671021243      4.2441324988766223
   325   1      17.388786883665126      5.6105550283185357      2.8913896812036595
   326   1      18.487827594917736      7.4256078202311562      4.2003371821456419
   327   1      16.954894652360323      8.7365660767176418      2.8122763632218142
   328   1      18.597706762114658      10.123309518861619      4.2114675292377672
   329   1      17.150208556019457      11.697554383791047      2.7839600797698152
   330   1      18.556157637292792      13.028254431599171      4.3903793920530072
   331   1      17.152084969394096      14.399865259008601      2.8885103232304599
   332   1       18.63895951819276      15.633477246968306      4.3043823824950671
   333   1      17.064564013835721      17.240059437934843      2.9318638737296308
   334   1       18.48742162841193      18.714871493725678      4.2352347849435459
   335   1      17.150716468937173      20.463817708605088      2.8094693646650972
   336   1      18.462219443861915      21.759749015983395      4.3424938973476257
   337   1      17.098769057784327      23.178767487701425      2.9808246669065164
   338   1      18.708458124638138      24.410670961573242       4.324869453545154
   339   1      17.315729411362355      25.909772933719459      2.9241654364052785
   340   1       18.64738945599796      27.437119892886258      4.2272606311065903
   341   1      20.101751999773089      28.667500072806181      2.6987368248682166
   342   1      21.515839117527545      1.4765648936658295      4.1653119066923221
   343   1      20.106071098047646      2.9453329469605367      2.7843730274180647
   344   1      21.502184978897883      4.2456064189438125      4.2492187058831234
   345   1      19.949927188453799      5.8522851381517231      2.7625405553753568
   346   1      21.445674183820696        7.23921145692493      4.3017501672727683
   347   1      20.121724241787572       8.678172912086918      2.6157788527957448
   348   1      21.365581781373802      9.9979130759389889      4.1711438466971558
   349   1      20.250007188451018      11.633248026001301      2.8766760235714788
   350   1      21.516612997534594      12.895499596191941      4.2867034474148085
   351   1       20.11616900351784      14.350479488263243      2.8890810399165363
   352   1      21.547072466288451      15.847027345867627      4.2130239238733687
   353   1      20.046434941914075      17.371161904957226      2.9484032821730364
   354   1       21.53398299263732      18.787366995163776       4.353085191985933
   355   1      19.935064104918727      20.188746027755478      2.8788576359626106
   356   1      21.624693817004541      21.537554204698925      4.2637466093499157
   357   1      20.066501468412262      23.038501883622938      2.9303127088893937
   358   1      21.473673627439414      24.393928877576435      4.2088766303478273
   359   1      20.079826755338281      25.791962513664668       2.832360310181274