dump/Fe_750_5/steps_61 (written by ASE) 

1995 	 atoms 
1  atom types
0.0      28.699999999999999  xlo xhi
0.0      28.699999999999999  ylo yhi
0.0      28.699999999999999  zlo zhi


Atoms 

     1   1      0.1477750187838523      0.1207355770956498    0.049786254630282731
     2   1      1.5625117627429517      1.4679271960496636      1.4278129242247131
     3   1      28.600313695553751      2.9928607645235492      0.1451799582551872
     4   1      1.5388255099108272      4.2426507116764203      1.5476407083272186
     5   1      28.519918081758053       5.663779856106804    0.047560678265199274
     6   1      1.6612858891835904      7.2125607008545805      1.1286597280124737
     7   1    0.045682874032013862      8.7868291102175746    0.013469159574719933
     8   1      1.4939075096365859      9.9139803084627793      1.3668481602580174
     9   1      28.620506038741414      11.554597723247493    0.030982748479664212
    10   1      1.2854056375455805      12.803425514093655       1.482037396893632
    11   1     0.23462136626883495      14.536229636099925    0.049808527650327387
    12   1       1.402501546700377      16.069084240646433      1.4331272354367792
    13   1      28.689183103514498      17.212467867221143    0.055844137423332461
    14   1      1.5022568843266764      18.761283238379193      1.4929265853010638
    15   1      28.648925605735148       20.17512480985723      28.638802925005606
    16   1      1.4045104826952415      21.661443288792753        1.41528266225738
    17   1      28.695507539526847      23.113845288114661    0.060051944559086134
    18   1      1.3872485506190886      24.310261671272858      1.5685675552088125
    19   1      0.2413889412711015      25.833345188390876     0.09315437755694797
    20   1       1.600776278023432      27.286276250854876      1.4896012314211808
    21   1      3.0085937447894282      28.638331223810841    0.034960241069904918
    22   1       4.363023779992063      1.3602902574205811      1.5484837334956623
    23   1      2.9208308817439912      3.0191399983635687     0.10751403058989112
    24   1      4.4365636870928871      4.2531333859704583      1.6571343892764046
    25   1      2.9283432104799996      5.5612427370902573      28.688285636061025
    26   1      4.3798662669894268      6.9794134174868576      1.4060059733218497
    27   1      2.9389373982832834      8.5901742694518486      28.464555594667875
    28   1      4.2294262310932744      10.096123272421336      1.5038336514006914
    29   1      2.6533599715952185      11.461140619738901    0.073280070163559641
    30   1      4.0860350047245895      12.792558269410211      1.3695447618953152
    31   1      2.8650583663154534      14.294199859723642    0.041672106812677495
    32   1      4.3153211943907053      15.905228017627291      1.5960116277804215
    33   1      2.8158329063843341      17.312723004495378      28.663397477397158
    34   1      4.4316356756455253      18.788615877328258      1.4170869482112836
    35   1      2.8332621605492281      20.207757574051389      28.692806899687923
    36   1      4.3423401574065785      21.397801650712015      1.3770484908077385
    37   1      2.9086018455231182      22.936317950585568    0.095754221371623635
    38   1      4.2404458158049207      24.667947767074832      1.5188961286025333
    39   1      2.9272981905635147      25.857434033651408      28.650751601745103
    40   1      4.3952227767190406       27.33428874217725      1.4776425770638417
    41   1      5.6131196647087496   0.0092994859371191771      28.653185266412965
    42   1      7.0884995758624445      1.3162622912299642      1.4807794577464042
    43   1      5.6598288978052791      2.8291542009952972     0.10137344527208816
    44   1      7.0967595280441174      4.1422616015043223      1.6392674766330502
    45   1      5.7793666756675117      5.6163682077761665      28.679603866070494
    46   1      7.1642288864508128      7.0804477115936768      1.3353897388030294
    47   1       5.771726949533484      8.6413926650849717      28.635530439942389
    48   1      7.1134411128621222      10.077632113260513      1.4199383532510865
    49   1       5.678798666355017      11.421524595902193      28.654904328786188
    50   1      7.1762075670165464       12.86276528429174      1.5926946379924756
    51   1      5.6146184029983619      14.221053286968322      28.634893669603006
    52   1      7.0654954074007712      15.772565327437668      1.4208122314122202
    53   1      5.8019074366197829      17.283217163810715      28.626526053466097
    54   1      7.1869287687950072      18.817373594727297      1.3475457286973656
    55   1      5.6384130483880481       20.19352589667491      28.549142186535825
    56   1      6.9507183475348606      21.400519653764515      1.3808689563204084
    57   1      5.6108950438843452      23.046474574049437      28.684855370580948
    58   1        7.10890680301915      24.429499497435224      1.4625189308604702
    59   1      5.8084889047368895      25.811100891273732      28.606634569268465
    60   1      7.1399579520244529      27.304940124028914      1.3937851106316217
    61   1      8.5068602046716855    0.052958009591113346      28.659042400158899
    62   1      10.218844767621158      1.3486765936640168      1.3581920522727162
    63   1      8.5657730802261582      2.6862782335605297    0.025820310211179268
    64   1      10.072671391784345      4.1476906412735612      1.4868659601077965
    65   1      8.6637123615285407       5.553055550078609    0.020394674631836546
    66   1      9.8650749037261143      7.2263223773513978      1.4052279555272549
    67   1      8.6433042286053787      8.6524899970753832      28.617065433626312
    68   1      9.7707834958381881      9.9051135686281881      1.4955886226925141
    69   1      8.5635723846152985      11.370028586633435    0.047342176088636855
    70   1      10.020492406261988      12.808367910989794      1.4399631632395413
    71   1      8.3313822002833824      14.179184441491417    0.064042684062621827
    72   1      9.9943630665677841      15.734146458908567      1.3690803561937415
    73   1      8.5327536652050231      17.137313082586857     0.14091149609893125
    74   1      9.9190181301106399      18.668528823407669      1.4063747589695352
    75   1       8.617254699830573      20.288899717785664      28.657727133852465
    76   1       10.14900975277941      21.461746956600059      1.5374661665984592
    77   1      8.4726681518514724      22.938038008212803      28.693829953905382
    78   1      9.9396343036881074      24.465161690044699      1.3199160889064829
    79   1      8.6176260379371463      25.957829769061629      28.582908251508329
    80   1      9.9797590780292946      27.253688752088909      1.3205645575599516
    81   1      11.464084594798123      28.683173852502339      28.557799502252706
    82   1       13.00061943023448      1.3136814949953415      1.2265936483772857
    83   1      11.449811543399514      2.6990041519042167      28.587008454806142
    84   1      12.907863787120867      4.2830541652779344      1.3553715052927491
    85   1      11.327260973999314      5.5827028268253516      28.416447274535248
    86   1      12.848678205206873      7.0712782535533938      1.4667868063271952
    87   1      11.462861208359458      8.6048843717182457       28.63572084691879
    88   1      12.945893149826349      10.140197677830344      1.3794411430530085
    89   1      11.144112565064322      11.272573768185534      28.659190692493954
    90   1      12.871219908811678      12.945554679932995      1.3204519173102867
    91   1      11.400910881561767      14.287776227812602      28.666342873978842
    92   1      12.960333152482052      15.830938625558362      1.4381217316495734
    93   1      11.553883332477698      17.272966846657695   0.0026942207207866884
    94   1      13.123479341828872       18.55406538457164      1.3530546389192737
    95   1      11.535153588654934      19.803911562994791    0.070937026038643672
    96   1      12.893388099929467      21.396684290159797      1.3405457748987943
    97   1       11.43911916817896       23.07077199156776      28.651618374884599
    98   1      12.899033718157078      24.437570899564044      1.4539015664506905
    99   1      11.415641733127952      25.877321536085869      28.548470823490717
   100   1       12.85322983725152      27.294362690459792      1.3362474269191802
   101   1      14.589183350348812      28.571275628825578      28.553085880939591
   102   1       15.84429073617803      1.5975980064597937      1.2719539258201733
   103   1       14.34256755681043       2.818458609871938      28.572364104436776
   104   1      15.838935065006565      4.2611638630890294      1.4779547656408225
   105   1      14.426092140128922      5.7073098844199341      28.472158978207563
   106   1      15.754792386801725       7.231591405623762      1.4409861736472283
   107   1      14.047282688339518      8.4308966174037341    0.079633689426054935
   108   1       15.58463993065298      10.093241657228122      1.4275866138774305
   109   1      14.396143771169596      11.593178180011181      28.622944345327426
   110   1      15.810161652354978      12.986498414936385      1.4172579332766071
   111   1      14.257245070652653      14.341411177115358     0.12314820592845316
   112   1      15.923324610845228      15.786224760104176      1.3837778514332613
   113   1      14.456439397392739      17.177547312490244      28.564878772959695
   114   1      15.964441510903166      18.516310431332062       1.347069797401935
   115   1      14.534039117415794      20.075509700070377    0.051972915903593271
   116   1      15.955666019815483      21.516156563702303      1.4355695257191314
   117   1      14.329575654534771       22.87673959036476    0.026225020227570898
   118   1      15.654733218148447      24.611554620559726       1.531818713877523
   119   1      14.497174521040087      25.804824632003964      28.554512812670168
   120   1      15.802741256339376      27.195663821295806      1.5118097811771807
   121   1       17.30088714398207      28.669097865256308       28.61294200613996
   122   1      18.620414574104068      1.5279419101069376      1.2749497196986117
   123   1      17.169165479174293      2.9704265175353006      28.588721244032914
   124   1      18.713490099766979      4.2975138799168677      1.4003770488489298
   125   1      17.142631289870813      5.9593142018903089    0.087256157926208278
   126   1      18.675840870264402      7.3420117549610264      1.3681231974484585
   127   1      17.275526858500978      8.7860862666417905    0.084218679024172557
   128   1      18.428191617246945      10.228070467415137      1.2677542976443874
   129   1      17.272497240969845      11.699308475900844      28.632940679091977
   130   1      18.706741840237935      12.974290101746357      1.2879102343730546
   131   1      17.188478507504065      14.420766636521394      28.531738779405359
   132   1      18.526467488729985      15.709731687476468      1.3377454112022504
   133   1      17.242901549300971      17.209108481853914      28.637681643021288
   134   1      18.662452538745114       18.65032008404733      1.3646162341340309
   135   1      17.176755531700078      20.079620061576154      28.671598439675805
   136   1      18.820449917347084      21.504628921794634       1.326243181032339
   137   1      17.339978662163077      23.116352279911585     0.11367440427990219
   138   1       18.91208731090309      24.397207340491811      1.3328537242031178
   139   1      17.182975023736972      25.865967544070404     0.15040496880853882
   140   1      18.603224702006298       27.41715867444281      1.5276127723558157
   141   1      20.107480965828142     0.12264004484123911    0.031336125137624897
   142   1      21.565019517711651      1.5038255625367585      1.4107509020085214
   143   1       20.29328701435352      2.9604305943026845    0.019602710762012525
   144   1      21.551957355613084      4.4635290937310614       1.430948941919542
   145   1      20.172882780356812      5.8492588391812026      28.620915263191353
   146   1      21.522695998572186      7.4418682999852912       1.479203181383036
   147   1      20.188350501504921       8.753583790994222     0.17032023640483648
   148   1      21.636260438607671      10.394523139713744      1.4087142199034139
   149   1      20.105394507978943       11.54451255036696    0.036249145910619555
   150   1      21.528255961397324      13.021536277937573      1.3456010075718845
   151   1      20.017994310736341      14.272385113808983      28.685217602542323
   152   1       21.47661614755194      15.577740100734458      1.4076871701145919
   153   1      20.007265960129729      17.217761515920966      28.682001293790595
   154   1      21.546528804397784      18.589333420584055      1.3604170827725741
   155   1      20.128225624742662      19.860224026626799      28.602281517181083
   156   1      21.449808266317373      21.579010124032763      1.3114053151922924
   157   1      20.178861788810931      22.973225469556535      28.568413592329719
   158   1      21.474974127701437      24.365057411348133       1.409116238964349
   159   1      20.003668435556026       25.89361756593156     0.12091969087563244
   160   1      21.448113037304608      27.406842266652486      1.3787138925091311
   161   1      22.984155502731838     0.11161394589231745      28.687618814995762
   162   1      24.478436003431991      1.5091843687128506      1.2848149575157428
   163   1      23.014457176844601      2.9504135732986723    0.057840447793296307
   164   1      24.338048420657831      4.3382906464453184      1.2580841767922264
   165   1      22.910742563045869      5.8189458310310451       28.64407744224664
   166   1      24.295538083503274      7.2579674177997111      1.4095525073705961
   167   1      22.891442728863215      8.7619001396260376      28.687607376271011
   168   1      24.402318529347465      10.217205889568438      1.4562791037312972
   169   1      23.052378846725471      11.500854534785031      28.607105544844785
   170   1      24.358453480426242      12.918526947234799      1.3748550993903454
   171   1      23.061943725549188       14.39970176783992   0.0014285044778603161
   172   1      24.471382054417258      15.878482066207022      1.4058057132675124
   173   1      22.930579646009519      17.178868922008743      28.624119935852455
   174   1      24.504465092874138      18.672337706201173      1.5754161539634637
   175   1      23.002143383447372      20.176578419825301     0.10779719647807719
   176   1      24.396109650713498      21.554473628567525      1.5666774347534198
   177   1      23.258934578622156      22.970170211358941   0.0020567673606024075
   178   1      24.455669654382032      24.522825146271405      1.4972040509495175
   179   1      22.992587335222726      25.844178734987654      0.1221597541806772
   180   1       24.48036358970646      27.335567146531172      1.4387161589181225
   181   1      25.901684926855307      28.649718314808446      28.626556383041702
   182   1      27.281381227571494      1.3790061390126076      1.4093329441699094
   183   1      25.854058910562859      2.7767337938610024    0.056029161022195365
   184   1      27.267118654430092      4.2736689046205596      1.5059922661501095
   185   1      25.860371895244594      5.7705802972279079     0.11421728968000462
   186   1      27.279830451668261      7.3485939769182664      1.3914855179515926
   187   1       25.83017806625147      8.6429007033519962    0.068631289900804346
   188   1      27.323877450978124      10.137989233630954      1.5503193875391625
   189   1       26.00421752983625      11.632791751531267      28.611597912929781
   190   1      27.324798930528939      12.903977888414508      1.6416460022684292
   191   1      25.671339925962418      14.436255550718242      28.558622195583517
   192   1      27.207109841844158      15.706231627098138      1.5051325983878885
   193   1      25.834529466008309      17.317557084289785      28.616274710476731
   194   1      27.357723402859289      18.666337020620929      1.5165241157785778
   195   1      25.843251184211173      20.102620258529726    0.072483377842547825
   196   1      27.250138628910793      21.561318999108796      1.4415594618502365
   197   1      25.885480377980624      23.174984327588422       28.60653443801937
   198   1      27.269368170759915      24.390553556066475      1.4468696262922311
   199   1      25.958295118848145      25.696387305224007     0.18516753903202227
   200   1      27.479984336877003      27.378393015023647      1.4434485127003081
   201   1     0.10523724789092062     0.11217038901141912      2.8361858377513722
   202   1      1.4195134533962799      1.4360905231632382      4.3875378199481627
   203   1    0.072726589456101928      2.8986374722525068      2.8329411418104193
   204   1      1.4057068036658951      4.3239731156691255       4.199006644910475
   205   1    0.037232714067011369      5.9602842433766288      2.8695261500923039
   206   1      1.3159114327289232      7.4311201550812065      4.2523564223872476
   207   1      28.555157318465238      8.6598512535815146      2.9346158097194999
   208   1      1.4391405694718169      10.062780731618796      4.3209483947968916
   209   1    0.028067193086065777      11.457436691366762      2.9515521760473984
   210   1      1.4710055195172804      13.055862644593404      4.3272035800420445
   211   1      28.670052012411205      14.467723375960286      2.8553737833188393
   212   1      1.5042578147408923      15.739877009558157      4.3086945142706874
   213   1      28.639865675668645      17.097636315245435       2.906880563424457
   214   1      1.3645351299402713      18.621478725115551      4.2438780463463059
   215   1      28.673150696607028       20.11386039159602      2.8744438282654867
   216   1      1.3524715251454749      21.696881872265386      4.3906103468503686
   217   1       28.63687952041818      22.975335924143376      2.9043034087558395
   218   1       1.545406201902793       24.36988375357905      4.4329462015572645
   219   1      28.664487895773224      25.958982755862671      2.9856327194401389
   220   1      1.3350593502789376       27.36234965751467      4.4314765847445994
   221   1      2.8784144298745908        28.6406072810545      2.9731898972746564
   222   1      4.4225596782255927      1.2146172101107606      4.3196885475244411
   223   1      2.9214469951701192      2.6887842196543019      2.9679480622192016
   224   1      4.4455546806646034      4.1857597305354872      4.4665035244833966
   225   1       2.977087580116839      5.6716176359782873      2.9359469467672175
   226   1      4.3271039817553847      7.0304518410135524      4.2111481986617081
   227   1      2.8201792708127078      8.4616227656395839      2.7811061087272146
   228   1      4.2223572052496738      10.064484927273535      4.3251654518976812
   229   1      2.8768255458350316      11.524143938547475      2.9443897142959843
   230   1      4.2777275429956356      12.759919072095578      4.4239868902284654
   231   1      3.0531363682840191      14.307634746255236      2.9114724038352371
   232   1      4.4938892918237894      15.742333192294671      4.2261550092751214
   233   1      2.8578053764223119      17.283395913338136      2.8711560115819825
   234   1       4.229648867259467      18.710914775128177      4.2137098240341802
   235   1      2.8246911990753483      20.262293601293706      2.9212448786343459
   236   1      4.4263265100025606       21.60350085551535      4.3282991121812993
   237   1      3.0858948697540676      22.961247530683519      2.7153388639551603
   238   1      4.3957858583298268      24.426672562700933      4.4951132110307714
   239   1       2.872730584816098      25.915024567153395      3.0425757873717973
   240   1      4.2784312764907444       27.28228771121767      4.4361080172839529
   241   1      5.8401590271864263    0.012669204549138311      2.7822042356048762
   242   1      7.2999991130188322      1.4260390353181167      4.1785643720049421
   243   1      5.6993308717726219      2.7510953794842408      3.0572621559256268
   244   1      7.2285923136098731      4.2707918775678282      4.2041967674980834
   245   1       5.776363084219243       5.710830395557239      3.0233262214644938
   246   1      7.1609440362705428      7.2188196920396814      4.3377306375226885
   247   1      5.7775254824488185      8.4917167637890802      2.7719049115046457
   248   1       7.135882756769707      10.016365871700668      4.2074012830645389
   249   1      5.7267056970307157      11.440124265656072      2.8684495541961388
   250   1      7.0224727484860772      12.806808658013251      4.1582621765525714
   251   1       5.634511901887941      14.259862328742297      2.8526404410485728
   252   1      7.0568837076213162      15.636810647432604      4.3728583376444083
   253   1      5.9496206849907551      17.286729270214526      2.7091692116558872
   254   1      7.3433866182900918       18.59730205322068       4.254749969106383
   255   1      5.8314517220324671      20.021809909842862      2.9661176075518525
   256   1      7.2196683149149061      21.618432482451382      4.3678703918012705
   257   1       5.762447432946991      22.922883324383989      2.8085450215005947
   258   1      7.2075262272566567      24.451637089136295      4.2586378014792619
   259   1      5.7737481075433745      25.782131992117566      3.0372105696032414
   260   1      7.3111042837361815      27.537103945141357      4.3192768490993316
   261   1      8.7114167804518896     0.10871175348655719      2.6528954868454879
   262   1      10.202685449177753      1.4618534932863205      4.2379462988041441
   263   1      8.6129412828495564       2.922942973365291      2.9178942004731185
   264   1      10.242263834334857      4.1138037401003205      4.3405511630953351
   265   1      8.6101362085200464      5.5618591534358695      2.8011729131060745
   266   1      10.123980018581278      6.9381659945340814      4.1594946916514681
   267   1      8.4029420414307552      8.5771666155618362      2.8613976983896912
   268   1      10.021208230672293      10.016723746416107      4.2520619852675061
   269   1      8.4661018495825786      11.374244327006751      2.8108050448591038
   270   1      9.9858883358548987      12.897474482365745      4.4037068996066271
   271   1      8.6056917081223983      14.255447053442031      3.0744214345580292
   272   1      10.109420727372978       15.76322803384967      4.1885584293200866
   273   1      8.5688434671738296      17.188855910620621      2.7854990764803684
   274   1      10.083968591789143      18.650232185859515      4.2160170287899303
   275   1      8.5777170849154611      20.068286586499269      2.9240217053952477
   276   1      10.079851841041178      21.573239109812903      4.2031010830931299
   277   1      8.4843943322395408      22.847584716441261      2.9127180401475941
   278   1      10.063143614362774      24.244956847547879      4.2048337058331429
   279   1      8.5208069127808219       25.95233819884983      2.9136502565334879
   280   1      10.213253631153702      27.224286222366644      4.2178551603715757
   281   1      11.380548903150522      28.635002257470862      2.8540242808439644
   282   1      13.045795063895966      1.4133046135865126      4.1408143659228669
   283   1      11.579685313694295      2.6865472616963166      2.6195919789320325
   284   1      12.905931188018261      4.2740954787581229       4.142325838374842
   285   1      11.647986244557019       5.718947225067196      2.8189602877675366
   286   1      12.972509743436801      7.0444206213036011      4.4295029705585822
   287   1      11.550277086599374      8.6435744331318141      2.8357242852779572
   288   1      12.891444346958682      9.9001130917425471      4.2844857334190074
   289   1      11.502816636030362       11.27368524088539      2.8306448608750308
   290   1      13.090386133930162       12.86018214595177      4.1359062902354751
   291   1       11.44502852286449      14.327690448253106      2.8908538453214869
   292   1      12.741292542685311      15.706108966921745      4.3768519375347168
   293   1      11.499502049796341      17.293354642465619      2.8678467536279979
   294   1      13.017576806254141      18.764553396037659      4.4084624376633865
   295   1      11.604132645920675      19.941070670494472      2.7745839368944418
   296   1       12.76797794564202      21.483735423643871      4.2210769356307898
   297   1      11.493930316643581      22.961649974892133      2.8569618005433659
   298   1      12.957220152870441       24.52426345817231      4.0768276470906226
   299   1      11.400773477872322      25.756783915903707      2.8397238248993415
   300   1      12.890232232922896      27.251021527638436      4.3269881707765601
   301   1      14.412466700304982    0.066320893276156395      2.6795787628205612
   302   1       15.78918034658553       1.285966474684143      4.2927420241086667
   303   1      14.518814009246556      2.8646485544875313      2.7403182702826481
   304   1      15.692766288289592      4.1976129524237855      4.2162182267722716
   305   1      14.384409679842008      5.7460024460547219      2.8469360959985224
   306   1      15.810453436012232       7.115983596643142      4.1712688341428912
   307   1      14.381068095063458      8.6065623945679608       2.845197277386899
   308   1      15.850274858982651      9.9605636013234289      4.0890261150089708
   309   1       14.32767905452253      11.565785500608595       2.789693505090769
   310   1      15.821962827937545      12.816821242701959      4.2196733299472138
   311   1      14.468644962391044      14.399917113053119      2.8521823160125916
   312   1      15.735292548320263      15.841143992327289      4.4010055174762819
   313   1      14.356355982739272      17.179075535701493      3.0348399208892927
   314   1      15.924550267486671       18.61888354950424      4.3273510059226217
   315   1      14.369821319766322      20.096384928231235      2.8777561232940503
   316   1      15.899630059751644      21.581479323171429        4.22126607258852
   317   1      14.455202845239112       22.88520798228182      2.9031144567748597
   318   1      15.912766812214556      24.485590631393073      4.3134160469915299
   319   1      14.217543784278877      26.003688706520688      2.8228759776561216
   320   1      15.918744368410504       27.22467280460608      4.0859686131091548
   321   1      17.205453737126557    0.058866866583593982      2.8372252823994351
   322   1       18.62900589737308      1.4324187767402594      4.2859621405387678
   323   1      17.242629466167966      2.9913455024717699      2.6971093433782012
   324   1      18.822184153733723      4.3217534549327254      4.2553633623161726
   325   1      17.435422696125304      5.7707940295841071      2.9035404257162098
   326   1      18.514351961870823      7.3186816685076339      4.1670999955437633
   327   1      17.264714629621761      8.6876654728927214      2.7826586866783813
   328   1      18.361741986914254      10.117185472471506      4.2183287227772368
   329   1      17.220620025734444      11.600201511112269      2.6212555643008955
   330   1      18.592573923161982       12.95062039159745       4.388636999418825
   331   1      17.301558677334558       14.15349988178755      2.8180699484641427
   332   1      18.653651028821233      15.649375960052787      4.3645562226655477
   333   1       17.21357236150952      17.172519253000413      2.9014494007357912
   334   1      18.527964443742629      18.639490129519672      4.1867421695891611
   335   1      17.284258932954753      20.118901454668428       2.964586758615313
   336   1      18.673502775160046       21.69867452967393      4.2976644043564667
   337   1      17.344340082916862      23.068574377869034      2.7741561782875355
   338   1      18.832937606597081      24.116995412467773      4.2154459102102342
   339   1      17.530449571509266      25.637087139576025       2.806031625413389
   340   1      18.870174279907271      27.412399522198285      4.3671957135545609
   341   1      20.128581539091989      28.695070574660267      2.8034857956184265
   342   1      21.551344505106872      1.4655553873863936      4.3067622059890844
   343   1      20.106282144955983      2.7957068045334723      2.7106054808144435
   344   1      21.435599314258479      4.4739438610063571       4.191911131364586
   345   1      20.073025811643326      5.9107726647220487      2.7551979136111293
   346   1      21.636357306243507      7.2247170805799588      4.1660217317730508
   347   1      20.028535395810341      8.7022740599245765      2.9294625323934809
   348   1      21.438285180336429      10.123827204012922      4.2775331216100252
   349   1      19.984129534105612      11.379354904091691      2.9695601950586799
   350   1      21.459225612602413      13.072271055663876      4.2002883911248121
   351   1      20.094144347941508       14.28360770944219       2.855059630904111
   352   1      21.381776094561744      15.898650410552529      4.2462490168192248
   353   1      20.068702252295257      17.268094456080252      2.7295134627579611
   354   1      21.387299304577081      18.755411667075744      4.2909059117379362
   355   1      20.007526937149052       20.04941399905027      2.8835017710346289
   356   1      21.371666893483543      21.523660592039736      4.3487731073351386
   357   1      20.287927490208634      22.983369924541226      3.0135994356229521
   358   1      21.599502666818946      24.486672821361246      4.3271620571802067
   359   1      20.275617515652534      25.821470354642457      2.7957224089852284