dump/Fe_750_5/steps_71 (written by ASE) 

1995 	 atoms 
1  atom types
0.0      28.699999999999999  xlo xhi
0.0      28.699999999999999  ylo yhi
0.0      28.699999999999999  zlo zhi


Atoms 

     1   1       28.63670807467803     0.01884071667749368    0.093295751021969422
     2   1      1.3860506999767952      1.5751644672310008      1.4851502225842965
     3   1      28.639377423948506      2.9701763499584288    0.025588896381805153
     4   1      1.3321232094961926      4.2832481573459571      1.3392858439710955
     5   1    0.063693650892946874      5.8068604018104537    0.006928628050809486
     6   1      1.4748345298653702      7.2263804507076106      1.3239892615733082
     7   1      28.573955555577047       8.607353981077237      28.661126702759077
     8   1      1.4843739350231444      10.167084744924093      1.4420115342226831
     9   1    0.042841460202931302      11.570265655912337    0.004062022280061234
    10   1      1.3992716228351481       12.82687953996771      1.3078105425918929
    11   1    0.030028259243377254      14.313814290846565      28.692214208325215
    12   1      1.3222944092000379      15.902096036373806      1.4893554764715879
    13   1      28.642779757073772      17.059945193651398      28.668206784002464
    14   1      1.5304186840501988       18.57005216674348      1.4647290538942117
    15   1      28.643016357712558      20.040488984260126      28.566374363232597
    16   1      1.3907120473459162      21.398749180040241      1.4309085716983416
    17   1     0.22354891638997607      22.900382988990202      28.655357345998908
    18   1      1.5280141072996483      24.464680946916921      1.5228916991922796
    19   1      28.687149450023501       25.80537514703369      0.1292267516415905
    20   1      1.3480744400560765      27.303846922366333      1.4554803795298528
    21   1      2.7252046927556863    0.098146551313038843     0.12010553844365861
    22   1      4.3174343323045443      1.5094602839405193      1.4330013002778521
    23   1      2.8276306478602828      2.7245509461542956      28.681247219386677
    24   1       4.297938630657903       4.319795056604038      1.4712271148659504
    25   1      2.8537530379536422      5.6281843673280152      28.639124011446128
    26   1       4.142903435026783      7.3842617667711874      1.4460458375390985
    27   1      2.9019005403224245      8.7161917171118155      28.562997083798752
    28   1      4.1588240592462853      9.9851247656525857      1.6033477360730999
    29   1      2.7616707489787715      11.427298546744417      28.663924513040758
    30   1      4.1668324439055562      12.898683702319703      1.5025948610720552
    31   1      2.7663629438101109      14.477028680679302    0.080595835983467465
    32   1      4.3246124992274551      15.852944585116116       1.412721583089467
    33   1      2.9325877918002252      17.135147955016237      28.692785566747705
    34   1      4.4087207941876931      18.745489420065361      1.2906466851995901
    35   1      2.9025946035337453      19.997986241917747      28.590439918903144
    36   1      4.3362024015342842      21.423921360418166      1.3997192119665332
    37   1      2.8893476316940938      22.997124126176651    0.061456288962915627
    38   1      4.2974549853010311      24.407252867655334      1.4478969030161688
    39   1      2.9126417856380535       25.76036450019447     0.10442894971739626
    40   1      4.3364465209144241      27.368385789549727      1.3745205188148688
    41   1      5.6383873413429502      28.668557429078067   0.0017234541788639036
    42   1       7.233879247008149       1.409528537854591      1.3751520611338839
    43   1      5.8463373041882152      3.0532575479038986    0.020862386100577609
    44   1      7.1190322627853977      4.6261548452909524      1.4497618980814766
    45   1      5.6757879101005848       5.878158305764611    0.026774100654233735
    46   1      7.3196432215268583      7.1319691059919421      1.5893754436789087
    47   1      5.7162990323101441      8.5296049981972697    0.053513364653690609
    48   1      7.1176031135790812      10.191039688001718      1.5537339266525114
    49   1      5.6720442271346654      11.472370713732278    0.017287799844120849
    50   1      7.3053567703195856      12.967189334756279      1.5394633808294085
    51   1      5.5322266172950432      14.415878325289789       28.59887419334143
    52   1      7.0921831925040619      15.629988429976667      1.3273460181938506
    53   1      5.7720145037116275      17.213283388755233      28.630572342530773
    54   1      7.1200752042676321      18.458417344647572      1.4108190233516451
    55   1      5.7817883970640285      20.229683650039966      28.632864474650308
    56   1      7.1312701275856192      21.559078173817763      1.3796949647740349
    57   1       5.734071275213247      23.125195983805551      28.641824723698281
    58   1      7.2102561174813804      24.287050896185672      1.3954765808030869
    59   1       5.589753902620628      25.854967361355278       28.65165821751232
    60   1      7.0735962044693483      27.330780716977323        1.38328939416574
    61   1      8.4625703182022818      28.684485968545605      28.550520660016545
    62   1      9.9938705517452497      1.6067225702167776      1.4861159730842346
    63   1       8.641469184417387      2.9905682803628921     0.22465562523385638
    64   1      10.023652195798578      4.6267167286437312      1.6066608555784219
    65   1      8.5706468164624248      5.8315612471219351    0.049303019966862351
    66   1      10.082398096783214      7.3943860099880894       1.684025490312195
    67   1      8.6201889192410768      8.5576994459944853    0.026335186479218446
    68   1      10.068693596434489      9.9816380618441567      1.4460223334306301
    69   1      8.6975557833533106      11.471938474331438    0.029243514277118215
    70   1      10.046113227431141      12.928055467017948      1.6991375183850894
    71   1      8.5564412010923672      14.313191341052233      28.627182234161314
    72   1      10.112923682498746      15.808997237423554      1.5427247807441629
    73   1      8.7034391120179837      17.272423751586025     0.12985612174009026
    74   1      10.146185119283727      18.703284607236206      1.6098702307611465
    75   1      8.6526686220220927      20.007063125566443     0.11848227093438492
    76   1      10.114803384200824      21.431016728693876       1.426539691336814
    77   1      8.5934428121063444       22.91732404838082    0.037920935699173625
    78   1       9.968914857122682      24.258965459518922      1.4540613573194709
    79   1      8.5411530704843912      25.950698911516508   0.0085394001899089869
    80   1      9.9192710357677818      27.533965722891534      1.3838015743687593
    81   1      11.461413131886024      28.672883026804445     0.17521761567031713
    82   1      12.964791354978114      1.6471404486329115        1.44640660512914
    83   1      11.456325672625255      3.0042333875917406     0.11236391652677175
    84   1      12.938679607241847      4.4777180286130447      1.5244558699120838
    85   1      11.522052504831327      5.8776827332056101     0.12089389637737885
    86   1      13.017842773216223      7.2501357155783888      1.4248501036416081
    87   1      11.623421578486425      8.5404815340126472      28.610429641889397
    88   1      12.874301150975789      9.9391729055587561      1.2591459742687228
    89   1      11.538985901115845      11.516188028614215     0.12655607596777815
    90   1      12.827886531791197       13.06454944495947      1.6151585311048287
    91   1       11.35738342163655      14.262740098779828    0.068021691305773443
    92   1      12.794979565665567      15.867448371042913      1.3566068132871345
    93   1      11.489590505759569      17.233699965203478    0.097862156848793708
    94   1       12.95295204345682      18.756956787132118      1.5623960429303667
    95   1       11.48668744757313      20.009660188812514      28.598256396607614
    96   1      12.842948516416079      21.571009800542637      1.4543583537923828
    97   1      11.415057435857104      22.881664124212207       28.64125220657774
    98   1       12.98964711167814      24.388755757392484      1.3324290286036222
    99   1      11.288214664281053      25.799960319043524    0.026924968951823287
   100   1      13.026930582600526       27.29445867497305      1.3398027720945043
   101   1      14.062528299133392    0.098173678914806106      28.647096963313647
   102   1      15.699425247838567      1.4776696318526892      1.4862460021719932
   103   1      14.435457517374889      3.0268348347798257   0.0090387272031876003
   104   1      15.809991143477511      4.3938491225653449      1.5189680776061663
   105   1      14.326110806801394      5.6137234297380791      28.658211133483849
   106   1      15.677270470282199      7.1179623342013363      1.5944196925579024
   107   1      14.535266937115791      8.5254041251248331    0.064434789274116652
   108   1      15.862548369112641      10.136410190967281      1.3944671607294694
   109   1      14.355290274811678        11.4347694598607     0.13054337664340204
   110   1      15.795888411984061      13.071447456173425       1.395086144170933
   111   1      14.327040803551588      14.550672435576287      28.673400575478855
   112   1      15.684003737463046      15.707576691430521      1.5465585167178468
   113   1      14.464279550105289      17.354292553611543     0.17745079179072709
   114   1      15.783644130080473      18.786558792153425      1.6391809420005747
   115   1      14.274935073492227      19.997792670638283    0.053567941456310615
   116   1      15.643544523444403      21.464740454545179      1.4095268972277613
   117   1      14.068904873542724      23.012692988588768      28.572344405579813
   118   1      15.721409469552558      24.426743602061865      1.2755253032084637
   119   1      14.136382335711382      25.704069560523383      28.454082006346646
   120   1      15.632834612601622      27.176680814087703       1.249392449507899
   121   1      17.079087785949262   0.0079372981833444219     0.14395881794297335
   122   1      18.630200865235945      1.2672283051642812      1.5197637869756244
   123   1      17.303283599322128      2.7167259937713877    0.032367128404257602
   124   1      18.618158708876738      4.1642567162637913       1.491020416520938
   125   1       17.23344665174378      5.7452191185422095      28.679622427494781
   126   1      18.663620039517095      7.1743298254358718      1.4043661645291206
   127   1      17.276794342845562      8.6560645304775434   0.0075224310781209216
   128   1      18.675305654786403      9.9601843071950924      1.5470622326605965
   129   1      17.127225729237423      11.492955701017532     0.15857357241432066
   130   1      18.829463910074448      12.979161822765368      1.2536273847707311
   131   1      17.070170775832697      14.418067645947586      28.584650800922248
   132   1      18.512122963882614      15.733440043450321      1.3245135492274913
   133   1      17.234969991167851       17.30637506687226     0.16961586458946853
   134   1      18.683872297960907       18.74419189912614      1.5740716347490997
   135   1      17.295566067811702      20.388266526816935     0.11528185026578518
   136   1      18.772660474319984      21.603081400749296      1.4603718544494539
   137   1      17.151880442658065      23.008929982080648    0.053520129651133036
   138   1      18.673890859732005      24.578605241992573      1.5040083217635007
   139   1      17.203913759115448       25.97587480878245       28.64286545224175
   140   1      18.767681793108203      27.294578600384224        1.44756687935279
   141   1        20.4542115365726    0.012583513063236752    0.028956256228548284
   142   1      21.609043460658974      1.5527508309937512      1.4551465099733709
   143   1       20.19649109708147      2.7361442863232455     0.17471527063402165
   144   1      21.749975663119088      4.2033928410067958      1.4954461408273361
   145   1      20.173484179543834      5.7283231654067448     0.15186434013951394
   146   1      21.328565238487872      7.2746443815228581      1.6047970667291214
   147   1       20.24836905579431      8.5471320436185643    0.036996323603898283
   148   1      21.518733860065058      10.137273536166854      1.4943606461099856
   149   1      20.009693354812811      11.424249241019153      28.524210088811188
   150   1      21.555042172625228      12.854724274436755      1.3382322606081047
   151   1      20.280418673214584      14.412118058020214    0.042538664776236648
   152   1      21.561307255187121      15.730820040043493      1.5343001717443712
   153   1      20.196167723016369      17.297396597569438     0.16267495076828017
   154   1      21.418172250301964         18.768858964425      1.4747281028161303
   155   1      20.053469564430479      20.200471110902186       28.59976844868676
   156   1      21.547615354941605      21.522944074993099      1.2721416104708159
   157   1      19.943669950730111      23.171127665405777    0.099563822430820986
   158   1      21.399065945311744       24.54257946596654      1.1404464709920945
   159   1      20.213469284055009      25.988090340990212      28.675013327293389
   160   1      21.599781948971934      27.213714903027075      1.6956548027414096
   161   1      23.138708981951307      28.608164819436553      28.647469192011329
   162   1      24.431086881132583      1.4027985277989159      1.3834016958138011
   163   1      22.968904678101044      2.7849660883741989       28.63428779176407
   164   1      24.537963477635692      4.3053237332119654      1.5183609067131092
   165   1      23.071004193646885      5.8206700640301232     0.16614982183151591
   166   1      24.443716961358835      7.2147785901384411      1.5312895505703734
   167   1      22.985053365548445      8.6604473302179628     0.14385275326492317
   168   1      24.326892595612424      10.068419784396028      1.6092381746829814
   169   1      22.918618636518417      11.379883834812528      28.479322978730593
   170   1      24.216293649049287      12.800586055645107      1.3830087496874965
   171   1      22.836094243684759      14.403164148854625    0.068783947371275744
   172   1      24.335208956858267      15.589281144597727      1.4458911373882868
   173   1      23.007787681769528      17.282779786671515     0.06734451740251185
   174   1      24.313899123003946      18.669176399146888       1.320259315458032
   175   1      22.920778620630994      20.006213687529772    0.007442347896619593
   176   1      24.427659371136574      21.546765673805822      1.2816876358126366
   177   1      23.059068761725971      22.963596897717647    0.019683478491310781
   178   1      24.504159964921726      24.277995435251842      1.2271141730301112
   179   1      22.941247286134359      25.946823178529126    0.098884022172524025
   180   1      24.416926786456809      27.139980205735156      1.5896116208519844
   181   1      25.767950577962356      28.566457462764919    0.063571011849785503
   182   1      27.257900332366827      1.3862481842066694      1.4899062657472204
   183   1      25.924230175910218      2.7974014318053273      0.0454740037391844
   184   1      27.375230603624889      4.3399468882907453      1.5124809987220713
   185   1      25.819654968770962      5.7269912975673982     0.16276762550439786
   186   1       27.33515275835785       7.079567348289757      1.4867511676190803
   187   1      25.645455878156234      8.6020543791578614      28.686344404578492
   188   1      27.209076395826532      9.9670746132094159       1.284540338737157
   189   1      25.664360082849701      11.464887648607849     0.11113088732613517
   190   1      27.326823863061204      12.888009193913113       1.445011319160004
   191   1       25.72831197798379      14.301180303079612      28.679986946863735
   192   1      27.273165031333409      15.609702466104878      1.3955488104020453
   193   1      25.610510542868834      17.014693584525915    0.017600484087961357
   194   1      27.262498644843028      18.618548757488732      1.3691793079769914
   195   1       25.91030271248761      20.009981252140918      28.651361699707024
   196   1      27.481665877945382      21.406654156534696       1.490185878994077
   197   1      26.156424640177327      22.789888203805599      28.681965964524583
   198   1      27.285625079105021       24.45386016719543      1.4776913803365122
   199   1      25.982414192638245       25.94310633429513    0.079097811055544365
   200   1      27.237577972140965      27.225464026796264      1.4713509924791661
   201   1       28.63139337021062      28.636976616367665      2.8791315976075418
   202   1       1.419479566334064       1.523725366070324      4.2979289652259363
   203   1       28.62265538151161      2.7071632092816098      2.9485068276043895
   204   1      1.5141995913824757      4.2457181773108079      4.2577061657858346
   205   1    0.095852364124266939      5.7113820558862978       3.058058655238221
   206   1      1.4674551205108184      7.2990053021476262      4.3130117887995914
   207   1    0.034190962075127417      8.8077450922704656      2.6796080434575065
   208   1      1.3892109533613295      10.067898618731121      4.3637205679876683
   209   1    0.025546848624845526      11.428777556354973      2.8865739028167883
   210   1      1.2864462925697353      12.922263014209669      4.3025222798862073
   211   1    0.069404537480216966      14.322991093013881      2.8197318661672512
   212   1      1.5298881772833752      15.818602278046541      4.2331598973202311
   213   1      28.507321937585122      17.045880002561674      2.8311475889459063
   214   1      1.4991659112883795      18.558786404006444      4.2622408363588198
   215   1     0.13741672187775444      19.933144993652217      2.8121259400501231
   216   1      1.4109888431362063      21.561532518971056      4.3019140441874422
   217   1    0.052957646769654539      23.046804641313784      2.8999118735110407
   218   1      1.6197731992170028      24.596348957351712      4.2811568518648535
   219   1    0.042893818351957928      25.749080300277733      3.0048355943704443
   220   1      1.3809700051685598      27.587350129697477      4.2168893769792373
   221   1       2.853502072305945    0.063115910807766823      2.8245097806197226
   222   1      4.3551278486754841      1.6447354916896872      4.3003159133021178
   223   1      2.8069472487219618       2.934851216709002      2.8855297228786996
   224   1      4.2733509752461734      4.4648878919743291      4.2948668753063517
   225   1      2.7558085999690323      5.7346098626836941      2.8261313200196474
   226   1       4.145600193859865      7.1283874106516363      4.1787252905016334
   227   1      2.6309550080434172      8.6985546124656388      2.9774153730999049
   228   1      4.3652072474583505      10.107126535782678      4.3593955044635901
   229   1       2.813965159861243      11.616196142305281      2.9385300803337175
   230   1      4.3038172746876766      12.745714113908111      4.3945376833309293
   231   1      2.8952909157442308      14.273217785519501      2.8706355481134018
   232   1      4.2029751011846184      15.773298734249137      4.3749842364984843
   233   1      2.8855806996965834      17.065597572452074      2.9377530332290003
   234   1      4.3795904968688131      18.574934454947662      4.3345955933923142
   235   1      2.9790808228299053      19.888225130152293      2.7774447311202142
   236   1      4.4534432107484108       21.40582880087144      4.2779364015782457
   237   1      2.8672266210893231      22.912121806935282      2.9165820289457414
   238   1      4.3759045246725474      24.417092002087035      4.2494663335140075
   239   1      2.8454442581489525      25.932830280659907      2.7860259677053678
   240   1      4.3007692594536104      27.376813086920826      4.3208008294376166
   241   1      5.6959895142587547    0.027866722616227139      2.7735917315454683
   242   1      6.9631357709387958      1.4483477661186164      4.2034446906497953
   243   1      5.8779303215098047      3.0137375078626216      2.8140044154633648
   244   1      6.9878225326148584      4.4387932636624985      4.2112469920223692
   245   1      5.6640687422823719      5.9314484845889677      2.9037114709412593
   246   1      7.1502581394452509      7.3077875762369642      4.3998998947377777
   247   1      5.7477111148423274      8.6453751571714896      3.0275427661373757
   248   1      6.9550541107697663      10.099132093602979      4.2918844859970333
   249   1       5.666050466925606      11.605089143806161      2.8195712224743952
   250   1      7.0960540559758218      12.805679345522027      4.1556371131569447
   251   1      5.6826041664866533      14.367025872191395      2.9004546797455397
   252   1      7.3242109108559257      15.719288912721495      4.5159699191789509
   253   1      5.8909796774781711      16.939581512009365      2.8876111629206931
   254   1      7.3108797048817991      18.641165604788441      4.2840132578071843
   255   1      5.7455440973692742      20.023475856779754      2.7043442374307793
   256   1      7.2101299363488049       21.40022566230255      4.2828697620212282
   257   1      5.7518904074168287      22.939110588053662      2.9433304145968897
   258   1      7.2142528522849458      24.358616943785965      4.2531884349542226
   259   1      5.7088521640122742      25.808051110447121      2.6484324658054574
   260   1      7.0678415655993687       27.18083521882442      4.1225143159429321
   261   1      8.5695936118499461     0.02413408834498814      2.9482455178043074
   262   1      10.249677368754201      1.3692203813407564      4.5050157537059325
   263   1      8.6530698985452563      3.0196034333458717      2.9199406254693701
   264   1      9.9742912431745125      4.3760772240553285      4.3889489179360979
   265   1      8.4232949861687842      5.8079222581937726      3.0201141963757756
   266   1      10.106928946379306      7.2332760087304919      4.4171034125917306
   267   1      8.5266329941550367      8.7172043740844085      2.8744129432874486
   268   1      10.038841493050356      9.9381989002678246      4.4728590087465161
   269   1      8.7704712665995554      11.451116025206055      2.9309235480904605
   270   1      10.067275806434951      12.932711413649734      4.3915929908869913
   271   1      8.6393050625303296      14.501888036231845      2.9749569140558947
   272   1       10.15296932538161      15.923907355219709      4.3867215240867248
   273   1      8.6206669822720503      17.068243674268533      2.8578691197924839
   274   1      10.092688110086559      18.910364402083719      4.4476260259146789
   275   1      8.6148060987211963      20.030261677871824      2.8286959630203334
   276   1      10.064736065918805      21.565912449779425      4.4067837547859101
   277   1      8.6390356534383699       22.88976921527874      2.8551686664510139
   278   1      9.9927501094636106      24.415872753044361      4.3987256984107761
   279   1       8.529943718469049       25.86921740498115      2.8270938073680107
   280   1      10.114439349073987      27.342968869080796      4.3195309937310853
   281   1      11.528079650197229    0.018896323308490705      2.7710825470636795
   282   1      12.986296273570609       1.595088774181066      4.1414586575534589
   283   1      11.556445247304042      2.9520338867034082      2.8095198875996967
   284   1      12.958713605812079      4.2574520880449978      4.4268971742487153
   285   1      11.398611812889403      5.9446500355698335      2.9013882593735416
   286   1      12.875304317713121      7.0604774228584448      4.4542154828513647
   287   1      11.650114714171091      8.7942431953213305      2.9520698367178335
   288   1      12.997772244196884       10.15530733638372      4.4391603235827031
   289   1      11.535830031117275      11.371231176592069      2.7880261444621621
   290   1       12.91131066797308      12.886054887503372      4.2486225708227501
   291   1      11.595736695828942      14.438877516334683      2.9686368461774792
   292   1      12.955370140364863      15.794145309835052      4.4666864584304564
   293   1      11.707259699864734      17.306189088336357      2.9822330742489607
   294   1      12.984148849409044      18.747326096817776      4.3895922185690681
   295   1      11.467564517171091      20.261508425561214       2.997511884633798
   296   1      12.931300779007229       21.50150480347817      4.4240658209259607
   297   1      11.369013440764812      22.957890232149023      2.8856210596823177
   298   1      12.913841941465337      24.216254797706352      4.1261852255328959
   299   1      11.229081356870653      25.916974285882716      2.7707114523041905
   300   1      13.020466237514091        27.1796098978676       4.330445810265986
   301   1      14.315346239553136      28.669898077588901      2.8465096420825615
   302   1        15.7958726826449       1.523487162602748      4.2457312387593324
   303   1      14.402893907605243        2.96766296378365      2.7146364764941047
   304   1      15.869186058845402      4.2996038865898898      4.2367429193721957
   305   1      14.316707343756329      5.6959929312095205      2.9341849265195963
   306   1       15.90922712473354      7.1579229354787177      4.3044549639002287
   307   1      14.374507730290631      8.6969475626699886       2.831591380764201
   308   1      15.785158906645343      10.074123709783166      4.2337385333932422
   309   1      14.338059853524191      11.562311540042915      2.8055422540885941
   310   1      16.018085001044405      12.794884413697991      4.2094224258860455
   311   1      14.289468116540876      14.420456486060067      2.9692059342764874
   312   1      15.874646952070393      15.819118810854128       4.220703299313489
   313   1      14.486444659199986      17.257128218130141      3.0115642813264132
   314   1      15.873641206602008      18.732067802957179      4.3798575981051497
   315   1      14.322595875833233      20.032395934644597      2.9328823463942277
   316   1      15.865538254710255      21.445813335816332      4.3325659910905427
   317   1      14.473463699225233      22.920599220612999      2.8449716427745551
   318   1      15.882496813832162      24.390863951747718      4.2199709053670089
   319   1      14.309307418745453       25.85854862286552      2.7371074208243136
   320   1      15.887119501590977      27.204386090046015      4.2652345743718634
   321   1      17.223433326804521      28.633155118155344      2.9501684207490415
   322   1      18.657372100462435      1.5138078845799323      4.2501127414209554
   323   1      17.297235671000536      2.7915163834885202      2.6979334395404511
   324   1      18.683090310305911      4.2095343902604654      4.2878830739717175
   325   1      17.386133247192976      5.7703011824996109      2.9119452725800654
   326   1      18.558684480822503      7.1361866742383553      4.4943449970766203
   327   1      17.279844326860534      8.6293225251382637      2.8762893912446375
   328   1      18.574629257295051       10.10358528905916       4.230408467526324
   329   1      17.269378918057196      11.536721538921832       2.737704462887756
   330   1      18.606916942417278      12.873390447899979      4.4717920877346975
   331   1      17.344080939441401      14.255916278969854      2.9729414120266107
   332   1      18.654237834294172      15.938197993084975       4.278606563626191
   333   1      17.276877925947858      17.342650916310404      2.7998381126576062
   334   1      18.646845304320003      18.599290693250893      4.2237768363432178
   335   1      17.233674248754969      20.239615510887511      2.8858013227402468
   336   1      18.673230631195171      21.491852266123473      4.0965778294158515
   337   1       17.13277401633367      22.916230613303188      2.7405020774235349
   338   1      18.813227440817226      24.298407176202574      4.1693840680537386
   339   1      17.355841222416736       25.82682199783634      2.9015903569784776
   340   1      18.915702567866177      27.195512840519264      4.1265779509201597
   341   1       20.09293963553656     0.15272102752178418      2.8508441872509236
   342   1       21.64656780656134      1.4821237608810278      4.3640318095366606
   343   1      20.109805001242879      2.9238806174556649      2.8976342118920102
   344   1      21.473851001789363      4.3227269233148489      4.2563154058723764
   345   1      20.096029504886207      5.6093376396400227      2.9493419647578416
   346   1       21.51025384765201      7.1456184719658467      4.2743925226233817
   347   1      20.061980582313954      8.7405612405685016      3.0483433245659834
   348   1      21.557487771673248      10.056478679270111      4.3278226470636927
   349   1      20.048335071320096      11.585713042907825      2.8683468558234724
   350   1      21.477498669744495      12.976882929842578      4.2746549300073786
   351   1      20.016072933427154      14.414618486206992      2.8587332094614237
   352   1      21.438089085356527      15.743042874350012      4.2385222759755559
   353   1      20.094209760132472      17.298861946388751      2.8992950097000811
   354   1       21.53387842018034      18.831126272009438      4.2594396621144419
   355   1      20.086621449582989      20.155888313770848      2.7287177095591457
   356   1      21.492582684639427      21.613717994243324      4.4192186326789749
   357   1       20.12270636370247      23.031629742757829      2.5837887423395967
   358   1      21.511343193019623      24.288304356291096      4.0838660036998826
   359   1       20.16196339117656      25.714734819806736      2.7215013002841362