dump/Fe_750_5/steps_81 (written by ASE) 

1995 	 atoms 
1  atom types
0.0      28.699999999999999  xlo xhi
0.0      28.699999999999999  ylo yhi
0.0      28.699999999999999  zlo zhi


Atoms 

     1   1      28.645815618554099      28.552068833086356    0.058977558268736505
     2   1      1.5280368184925361      1.3802511226972443      1.4553815916507118
     3   1      28.528297204887522      2.8356870295513419     0.10623739906866374
     4   1      1.4244344014554835      4.2653591991560464      1.4773565322430604
     5   1      0.2141943666102524       5.647366178739941      0.1749787304674898
     6   1      1.4879862177729932      7.4093445601824897      1.4429330986653424
     7   1     0.05198584197477437      8.6685920120100484      28.684724321479354
     8   1      1.5618428243409306      10.072019307288873      1.3525247445562047
     9   1      28.588816534110453      11.427883421249147      28.522591463282055
    10   1      1.7261158236737864      12.955713933490706       1.311840242993821
    11   1     0.12875566895040819      14.448052350703199     0.10433075968334142
    12   1      1.4291756505970048      15.752240765883728      1.3969802060741474
    13   1      28.548088580853573      17.102307134685752      28.605547882267317
    14   1      1.3115084969701694       18.51833486306829      1.3382222831566659
    15   1      28.570162592227192      20.038803507359219      28.643828450008144
    16   1      1.3201237418538556      21.470181806164465      1.4671491059478847
    17   1      28.436288833532419      23.106749997239394      28.687930527220093
    18   1      1.5031444617573937      24.465260550661714      1.4895824679309275
    19   1    0.091010987657183767      25.667094158521852    0.012074507021850436
    20   1      1.3058103872293616      27.174221992000337      1.5016427260298419
    21   1      2.6242268111586129      28.565297641905772    0.050516507509576071
    22   1      4.1482476753499551      1.4752564494935767      1.4447580723497577
    23   1      2.7505313902178155      2.8181241359055886    0.035743538062081234
    24   1       4.234533800667962      4.3015558690061386      1.2537413074426462
    25   1      2.9395627393698871      5.7896343631911185      28.621035588189347
    26   1      4.4098230790856041      7.4048212761749612      1.4644994088451424
    27   1      3.0414033120803627      8.6223694047808337      28.465027581128684
    28   1      4.2831114119680151      10.039948274449388      1.3170373101836175
    29   1       2.919118889586334      11.433816117134223      28.577703797530223
    30   1      4.4533371604299914      12.782855188933905      1.3896865522120818
    31   1      2.9492163383653582      14.459994277835944    0.035192849476834487
    32   1      4.3638083220603354      15.720606594117495      1.4412621925638061
    33   1      2.7514106675272991      17.074309134730925      28.629489160292454
    34   1      4.1793214341856109      18.484094067771402      1.3690480008587314
    35   1      2.6371353419873258      19.955629541583079      28.613511745256478
    36   1      4.3904947138710115       21.45067774169511      1.2967757773656778
    37   1      2.7951292965517052      22.884146421163443     0.14446086871602118
    38   1      4.2180435226006461      24.375270008760218      1.4109793445709797
    39   1      2.7438448821382071      25.864314100686816      28.613447502134399
    40   1      4.0487475023986148      27.220418009055379      1.4742162198292028
    41   1      5.6565062775127792      28.666836816412232    0.052208026584071483
    42   1      7.1038903253055183      1.5232351712149805      1.5432463919363031
    43   1      5.6294970204758314      2.8260605515504249    0.081185276771111523
    44   1       7.077274882913108      4.1718036753600094      1.3660792092443887
    45   1      5.7761644728247754      5.7227586988566133    0.041604242928280973
    46   1      7.0456333545134706      7.2354294783904445      1.4487882368997813
    47   1      5.7178273744639281      8.5768329105750798      28.535683727180928
    48   1      7.1803222887945344      10.019492187684307      1.4309392838256372
    49   1      5.8546310611929133      11.406507718129566      28.608583099381381
    50   1       7.192134458416418      12.668510170807686      1.3811019429884241
    51   1      5.7979250483494322      14.424537230901683      28.627181452796084
    52   1      7.2532339834589648      15.751692707095797      1.2764377683725467
    53   1       5.792450089480198      17.253195153929507      28.605302834568171
    54   1      7.1693684913699984      18.613454944716818      1.4428508476746513
    55   1      5.7358086400266766       20.10373379080475     0.03077751722743181
    56   1       7.097370109978959      21.346120967131714        1.45320478747675
    57   1      5.6943209586447514      22.871196535129254       28.58211576546293
    58   1      7.0294606728669047      24.136929519013393      1.2800787044347421
    59   1        5.58040108589016      25.771903689586164    0.048300021897341658
    60   1      7.1069670318278151      27.337205194863788      1.5209979621183374
    61   1      8.6183808089808274     0.18364454318859774     0.13624078301977521
    62   1      9.9986386891547347      1.4393711512188117      1.4517637399720804
    63   1      8.6402603056230571       2.882624025948282    0.026677794874672135
    64   1       9.829289011656245      4.1602965343346536      1.5702911646747006
    65   1      8.4173477948161537      5.7142084027662445    0.081507636153787782
    66   1      9.8585843931890178      7.3199585158116891      1.4011174979544874
    67   1      8.7220191292860054      8.6295949445921689      28.687404965039665
    68   1      9.9880432104883052      9.9937385756721824      1.4665638841037214
    69   1      8.7471572040487562      11.594677536068607      28.674645096524447
    70   1      10.073492143495539      12.953327691950404      1.4218853192696994
    71   1      8.6569887804137018      14.355022118832114      28.681353493897806
    72   1       9.949516668972489      15.709391575344469      1.4061474216096832
    73   1      8.4730278163988952      17.240984191026023      28.629220953612066
    74   1       9.983675503013151       18.55076236021392      1.4445832422494507
    75   1      8.5327136424080656      20.043320980428682      28.502647439007522
    76   1      9.9068195905213567      21.351448420944966      1.4312816876623402
    77   1      8.5134405977835037       22.92734139587488    0.040521398136524923
    78   1      10.204708788087244      24.233142577614601      1.1926561932107473
    79   1      8.5744112433705961      25.774723166402872      28.671923850409488
    80   1      9.8343683254530951       27.11317241400608      1.4717445578643951
    81   1      11.415358677555439      28.678704738320324    0.094363722734385633
    82   1      12.932149173616109      1.3201801970215907      1.3447566034900433
    83   1      11.440864544517858       2.935867073227941     0.05539770192120836
    84   1      12.894591177544784      4.1636682529559623       1.363281737035742
    85   1      11.460271876585141      5.7523895975942816     0.28779870327024482
    86   1      13.033929983035936      7.0302047303883093      1.4869671466237822
    87   1      11.557855764439626      8.4804270280709027    0.021204656005363625
    88   1      12.896070467189446        10.1564882282951      1.3736958753060786
    89   1      11.364372824808726      11.337827560518811       28.61223371346674
    90   1      12.731782433571487      13.040426907374403       1.406622067787783
    91   1      11.481607666192442      14.441229317133088      28.656546443124462
    92   1      12.767313351410211      15.827107872127852      1.4765720969601033
    93   1      11.568838182636497      17.186833759622761      28.562430444016172
    94   1      12.803367527032313      18.646555889177318      1.4852205944260615
    95   1      11.373653014993033      19.983712957890411      28.654177154195679
    96   1      12.867435316523135       21.40389949092177       1.437105412920676
    97   1      11.457301520964611      22.728742719041083      28.558427187257141
    98   1      12.894498623695851      24.371458994811984      1.4268814040544171
    99   1      11.363807151262311      26.010332444133663    0.019930053764107922
   100   1      12.840601513736402      27.254919917558126      1.4936177722161459
   101   1      14.289890518601974      28.648814917599939      28.594552512438415
   102   1      15.781442877618488      1.3490212595529769      1.3482116990659159
   103   1      14.272950830222237      2.8733464246195251      28.621592005347882
   104   1      15.847602668450387      4.2207930021334059      1.4925200174752722
   105   1      14.400972542818732      5.4741185091923281      28.598410068199289
   106   1      15.680152039603545      7.0207009303069698      1.2961528132051838
   107   1      14.284209023267524      8.5726769263664053    0.041451455676190047
   108   1      15.698057930728591      10.022594425281691      1.4417102807880036
   109   1      14.372469120920629      11.466422305526889    0.028532967508010643
   110   1      15.865058207752401      12.969789573707288      1.4648078565458942
   111   1      14.323700090087467      14.295269181558398    0.044392747251799793
   112   1      15.652094140964453      16.055878333155412      1.2833185457776608
   113   1      14.183600663672852      17.263170890129754      28.593362077266185
   114   1      15.778490464176343      18.514339036771958       1.517450645500388
   115   1       14.27401841546757      20.064961907917134    0.069643875796305113
   116   1      15.743117226421388       21.68826307249881      1.2887484999793952
   117   1      14.216743213120152      23.040167348100827      28.655701321281029
   118   1      15.704572752639596      24.463062916048358      1.4201833970740161
   119   1      14.289153749570145      25.958235664395719      28.597609529574058
   120   1      15.592526913416584      27.202070862374296      1.4223498624172406
   121   1      17.087958686120672      28.526692126450417      28.591406664472714
   122   1      18.729227488017145      1.2011018186106526      1.3868183696905818
   123   1      17.223986083337341      2.7356099285700681      28.636244103398695
   124   1      18.435834599524028      4.1738537911907247      1.2968260636224043
   125   1      17.225584984220248      5.7992748568532688    0.066497139945977321
   126   1      18.557990836654145      7.2649046133624813      1.4199825562554109
   127   1      17.211118923245088      8.6032803534830435      28.593312138048702
   128   1      18.605287935086167      9.9336007982984871      1.5758856022271612
   129   1       17.24047903012729      11.489019662737443      28.696338784717909
   130   1      18.684711090703932       13.01971997878209      1.4814869028927213
   131   1      17.005799349605546      14.500682738928653      28.548225016001684
   132   1       18.62975807625277      15.792260134135736      1.3431284583668561
   133   1      17.120800962823726      17.384361767338113      28.531560179724224
   134   1      18.751800355576993      18.649098929584309      1.2996166761794246
   135   1      17.192455960969909      20.148885380717989      28.566474989683591
   136   1      18.630465656322883      21.654667204552325      1.3576105765057025
   137   1      17.191785767471696      23.073916096185155      28.675574975868884
   138   1      18.596825188774002      24.593574642982322       1.464305909429128
   139   1      17.124444546162103      25.838937544924949      28.692250386111652
   140   1      18.592223551283301      27.224830474033482      1.2457658607424267
   141   1      20.072131559833245      28.605270568653797   0.0071927618866652601
   142   1      21.530117492563267      1.5024170095129874      1.4309402700530531
   143   1      19.982139790220327      2.8599952950100276      28.538104265183168
   144   1      21.532383850632595      4.1693131362938365      1.2021904368899416
   145   1      19.986537131482915      5.6015854986220237      28.603329181484543
   146   1      21.494777035336686       7.305646527832403      1.2773764516914765
   147   1      19.893824853545436      8.6236367232505433    0.042168970141688029
   148   1       21.35005764107942      10.017099774322572      1.3901536864534481
   149   1      20.062138539430052      11.520044305249906      28.692034502361484
   150   1      21.517581660156456      12.866446348138412       1.360696629014319
   151   1      20.075965578516541      14.411685101701218    0.030335684316776086
   152   1       21.67428186610158      15.659649152606249      1.6662236103849535
   153   1      20.161627471144868       17.03779673118007    0.052485287141007607
   154   1       21.46090648104855      18.714971991771943      1.3986515018141963
   155   1      19.984911061416959      20.403295494760869      28.604390476182878
   156   1      21.433096421617392       21.55314258166479      1.3225453827796299
   157   1      20.129353991533865       23.05471273923304       28.61393408266332
   158   1       21.62386546487242      24.311280138211238      1.4523875470670642
   159   1      20.171840637735013       25.85996455256285      28.643119687581333
   160   1      21.472051732167817      27.318180057874905      1.7815264263728521
   161   1      22.911526797678906      28.647159931818123     0.11554099966325571
   162   1      24.446422890293078      1.5104291877396687      1.4369642574376125
   163   1      23.015839399554348      2.7297649162352395      28.672826612878659
   164   1      24.240830752138262      4.3289019168018683      1.4575198192855612
   165   1      22.921413763642771       5.915725010637467      28.659713162270666
   166   1      24.225623422399963      7.2851797771821856      1.4996602662782703
   167   1      22.952104568835363      8.6091799494495529      28.644022019794861
   168   1      24.379513574158185      9.8798685483716575      1.5376105360168355
   169   1      22.936967172191697      11.306219910809018    0.014636117271186319
   170   1      24.456430362210462      12.934189429231486      1.4187614687420242
   171   1      22.951237255582971      14.168648131021079    0.056806545710492033
   172   1      24.447495830443049      15.765085471824166      1.5763015247901542
   173   1      22.842985121457975      17.151337225198311     0.04714732017148443
   174   1       24.38339809871486      18.719589410454429      1.4375720721716203
   175   1      22.971410194268298      20.185104380811332   0.0028319038309632554
   176   1      24.347087337201998      21.504144298856815      1.4832897245225922
   177   1      22.935006031224628      22.841938753464927    0.010702602714366108
   178   1      24.438741322719498      24.412309531994957      1.4242759576681017
   179   1      22.809876027357134      25.824970103751777     0.01360261483393968
   180   1      24.336958501093957      27.284661126561446      1.4686568074992232
   181   1      25.903419215799303      28.525783842173997    0.012769222446502221
   182   1      27.298860825790559      1.3492471201183309      1.3632658685833225
   183   1      25.898147619103149      2.8959527886666407      28.587348722318158
   184   1      27.145829654003538      4.3212220832400368      1.2847916812429276
   185   1      25.796311368166936      5.6982024400253648      28.659511510907507
   186   1      27.278442803831634      7.2217829754298659      1.4609605222605626
   187   1      25.947028972701293      8.6714893055609803    0.092884732469042372
   188   1      27.263230861364299       10.02986093717583      1.4029538701625357
   189   1      25.793327887949374       11.32237902549304    0.095765963280143793
   190   1      27.296979663869081      12.834781627124471      1.2798333953158121
   191   1      25.782677721978654      14.289383244170942    0.020279448965641229
   192   1      27.226916061690648      15.736868663389789      1.3781149430480706
   193   1      25.903824719984204      17.135747537143118      28.576108560327029
   194   1      27.276175108351893      18.486949483717765      1.4610062778969339
   195   1       25.83522690954532      19.964716496616319      28.536201546667115
   196   1      27.328278793280553      21.482505182708788      1.5441184773680885
   197   1      25.774492175655858      22.806142851070796      28.601762484356172
   198   1      27.080141081690432      24.351672103427987      1.4486308325530226
   199   1      25.739528192476353       25.88803622960781       28.66364973104325
   200   1      27.259646151381272      27.136024139041027      1.5133026119657769
   201   1      28.654520777364898       28.59635661210206      3.0180286781284149
   202   1      1.3729734557994664      1.4780076370693669      4.2886988045150201
   203   1      28.654457947516889      2.9378443003977228      2.9986722688337837
   204   1      1.4249527403079687      4.2097242553506566      4.3982911597126533
   205   1     0.11885948709181136      5.5865022330253984       2.834317468954521
   206   1      1.4957379993302324      7.2072304323698209       4.295954701511878
   207   1   0.0088299944672606077      8.8100337658677486      2.8714468649657849
   208   1      1.5753901928855965      10.221434962272221       4.370746720504509
   209   1     0.10370691820484212      11.543676140586228      2.7383629082291696
   210   1      1.4861544842365924       13.01299773290137      4.1895543730623004
   211   1    0.056413293659648894      14.320012099564501      2.8465893263004296
   212   1      1.4840408009404316      15.635390045378307      4.3018274546516295
   213   1      28.659855154311046      17.072351153892136      2.8768829474108335
   214   1      1.5031309911554795      18.587389340699087      4.1950547055009135
   215   1      28.656230874112484      19.939033626145424      2.8978144914173387
   216   1      1.5041183027624594      21.565000722076171      4.1549796617138295
   217   1   0.0091068935894343239      23.080820410000566      2.9415478672470061
   218   1      1.4803705483634084      24.408931772319196      4.2808176752496427
   219   1      28.624607153482984      25.664585336182853       3.044782087270546
   220   1      1.3764004841162796      27.277094526108815       4.468967680991395
   221   1      2.7971031006464386      28.545778756411995      2.9592116693779769
   222   1      4.1047372150647936       1.444207320064629       4.367356103087408
   223   1      2.8738191818414327      3.0350283008386887      2.9226332524956136
   224   1      4.4953106565897967      4.1475823196528108      4.4415356811317972
   225   1      2.9792626526608696      5.6303684282835231      3.0043174935368642
   226   1      4.2818256755202979      7.2660115545708059      4.2833570662729148
   227   1      2.8144668765875736      8.7800550163546394         2.9149236745925
   228   1      4.3041408280018727      10.015387254447479      4.4205633193343488
   229   1      3.1089713515156632       11.54668071907763      2.8651370225321204
   230   1      4.3947867869177779      12.962125439456956       4.419738108699832
   231   1      3.0201035144896844      14.225784331230583      2.8893501987181516
   232   1      4.2146546343304738      15.769075442879961       4.186956281811729
   233   1      2.8931667472019047      17.204945383823823      2.8494276080744734
   234   1      4.1886937844006882      18.845023917194581      4.2318673950365318
   235   1       2.853519098074607      20.052788741476313      2.7080915691278609
   236   1      4.4185835422702473      21.623696293209623      4.2004288016230209
   237   1      2.8388294211172598      22.983543178556385      2.7255846704627751
   238   1      4.1386655655267024      24.446449174174024      4.3248879688463262
   239   1      2.8967508710272387      25.994841381074767       2.914824478639976
   240   1      4.2813873005087002       27.48415609645658      4.4252903746128833
   241   1      5.5441230617158554    0.054992547715346819      2.8934845281118204
   242   1      7.0186015411791622      1.4870704901751548      4.2077591647656982
   243   1      5.5529915827783798      2.9013216976448852      2.8896485774684271
   244   1      7.1098684503662888      4.0598355470615068      4.4569955426807262
   245   1      5.7425530564261846      5.7439656636899237      2.8498543460182399
   246   1      7.1512156410500953       7.224916271208417      4.2790454550496326
   247   1      5.7762179497431658      8.7067040041304615      2.6285563277133743
   248   1      7.3149605269052014      10.076717203457184      4.4478423239799874
   249   1      5.8095281565266568      11.461484240637219      2.9695988182625381
   250   1      7.2092908694610554      12.871565512811376      4.3844071169339855
   251   1      5.7937585263992064      14.337780326702699      2.8833441378472573
   252   1      6.9885409217783403      15.859533965379974      4.4144195693953581
   253   1      5.7481468138943663      17.186969183933698      2.7892154512772418
   254   1      7.0305390768309168      18.597193439382476      4.4375283281420215
   255   1      5.7784343616125904       19.97648547580852      2.7147614988486795
   256   1       7.169276677043988      21.600534570429275      4.2260764404300382
   257   1      5.7054811101269935      23.097173387920481      2.8543587097704526
   258   1      6.8702433121825486      24.393290503594187      4.2516962693551585
   259   1      5.7021854571538446      26.028326223625449      2.9924908494958031
   260   1      7.1517308048762951      27.462665955023255      4.2759277730936329
   261   1      8.5143561214817041     0.10047618480979294      2.9440869287034137
   262   1      10.103051685097176      1.4468404467731046      4.2235249973124755
   263   1      8.6734939445039139      2.8233433137839943      3.0252087971070529
   264   1      10.033067201687995      4.4052034646675224      4.2545702327316262
   265   1      8.5571011208399241      5.7073905763834727      2.9427888494839585
   266   1      10.070021594676428      7.3253187866609224      4.3769269731652498
   267   1      8.5277707871716313      8.5379535518267762      2.9529787800611165
   268   1      9.9205629968977718      10.114706820786338      4.3708460517071632
   269   1      8.6337027938402038      11.487277220097408      2.9848605791221594
   270   1      10.052841916093529       12.84100599375715      4.1558362748018762
   271   1      8.5235901283956572      14.313369387100993      2.8027646029324855
   272   1      9.9653551011276615      15.804054550965887      4.3366839686265797
   273   1      8.5955093837446324      17.199998223055402      2.9149441880855966
   274   1      9.9943707573490563      18.605400653111477      4.2359883742684596
   275   1      8.4501156574870357      20.033244351561322      3.0087380233972358
   276   1      9.9088585576293386      21.443787803768455      4.4106558425888229
   277   1      8.5457644043222185      22.847435564696145      2.8331442272252385
   278   1      10.117872002596572      24.208998504992369      4.1878531330945377
   279   1      8.6331863194369447      25.650979025427727      2.8036814754250381
   280   1       9.982788971033175      27.129403367469386      4.3714332035863412
   281   1      11.550538829208257    0.017073275443533657      2.9287635402213739
   282   1      12.954648636086873       1.480219724345444      4.4155651758194923
   283   1      11.705238822972207      2.8963632652664528       2.901805373861436
   284   1      12.995742580831617      4.2507926051637757      4.1835073805837508
   285   1      11.379833023442053      5.7644612161528732      2.7641044027667818
   286   1      12.987671839621322      7.1362367579462171      4.1955472872306609
   287   1        11.5609014990071      8.6993504733079021      2.7950141061336682
   288   1      12.835743154543671      10.069527095091743      4.2855503333380147
   289   1       11.43126639108465      11.547485588965385      2.7959085756809943
   290   1      12.869338009540328      12.938161083789263      4.3993465255336561
   291   1      11.418099280666212      14.483508328776081      2.7759936339613316
   292   1       12.84422902658579      15.776884265230791      4.2008568038575742
   293   1      11.404895363307928      17.316237987104063      2.7624569760677002
   294   1      12.863287767320372      18.539248696366812       4.278663309758481
   295   1        11.3094971912323      20.086564222052136      2.8281091150264386
   296   1      12.894860384074816      21.292248975100318       4.116344027724824
   297   1      11.478964102896091      22.768513745011678       2.820173175001742
   298   1      12.861978532888486       24.24834325162378      4.2478902716185578
   299   1      11.365566870555165      25.828071121086733      2.8578712332105947
   300   1      12.844072480423893      27.203275878282803      4.2890855202687117
   301   1      14.367898428084814    0.066871165546138228       2.916986250114562
   302   1      15.645681834023474      1.4644325207700026      4.3103298558166729
   303   1      14.444099740162502      2.8737632706628005       2.858741519945351
   304   1      15.942392218768026      4.4168811948713973      4.3114208749319269
   305   1      14.470384656620748       5.679252993604786       2.772077860691581
   306   1      15.660801025721359      7.1605534541919873      4.3101640812014592
   307   1      14.218705430684745       8.715816201891041      2.7708466625028678
   308   1      15.706621205362682      9.8742534000238606      4.2291794557252471
   309   1      14.247967411115303      11.606210001417699       2.904947528178484
   310   1       15.79019412722173      12.952440595184132      4.3581289560403933
   311   1      14.370329046576469      14.292444056278599       2.678267547094868
   312   1      15.721441793003356      15.828024415777874      4.1796883871182136
   313   1      14.160880577486264      17.201195952976903      2.6767104780555755
   314   1      15.607841081569706      18.597678305125712       4.320778274921719
   315   1      14.399464590631208      20.124109873945486      2.7966266511740052
   316   1      15.871184104179873      21.572940669969743      4.0477892559459381
   317   1      14.390909495006033      22.966953262996483      2.7943344348673915
   318   1      15.783943981572826      24.438237172486641      4.3891678282219679
   319   1      14.323072755344313      25.737152325158519      2.9045892668524083
   320   1      15.765074159660646      27.322767010628844      4.2686302238579215
   321   1      17.109038509477877     0.10220369539188152      2.7859036381921545
   322   1      18.559215266732693      1.2822683986812773      4.2366187343629047
   323   1      17.321867521357429      2.8014408573715284      2.9087374925699376
   324   1      18.717143278096458      4.2505756662103629       4.287990430309037
   325   1      17.175345987437211      5.7782336025665817      2.8063168765648805
   326   1      18.665917031396432      7.1045307033788285      4.3256987586892475
   327   1      17.115917982971862      8.3719261641403158       2.986399833536157
   328   1      18.693049639859378      9.9220276968709769      4.3350762715183571
   329   1      17.152497977237967      11.448758352193924      2.9171352328557982
   330   1       18.64685407958499      12.969951942837241      4.3372260338274522
   331   1      17.245467566575329       14.56066591705075      2.8867281600473818
   332   1      18.675010831166983      15.687703212768628      4.3386520016580556
   333   1      17.283545036611955      17.143842445520775       2.758687720233298
   334   1      18.510549388250091      18.707569282293441      4.3917983549748216
   335   1      17.192806901008638      20.091718097591944      2.7846047729318779
   336   1      18.817171907649374      21.618636578939935       4.087361296153504
   337   1      17.206841095910633      23.102461367689603      2.6176447342203106
   338   1      18.720853892408112      24.469179856760988      4.1848389330657767
   339   1      17.164702120172187      25.904155228217608       2.735097988529605
   340   1      18.642311155242293      27.267470641877217      4.1867015415829654
   341   1      20.008194890818036     0.12278961251008724      2.7831648392110071
   342   1      21.484289159320532      1.5699353804495773       4.266789660652389
   343   1      19.887666051450928      2.8859846413924672       2.704250410951305
   344   1      21.433075043802109      4.3550316649675356      4.1243876373918642
   345   1      19.989933096290386      5.7263001870347505      2.7315686266616903
   346   1      21.530430743841443      7.0265954680368159      4.4162840215907062
   347   1      20.160301466634593      8.5759571701997466      3.0253730963699237
   348   1      21.564272631583275      10.041945994125847      4.2232619511089826
   349   1      19.890527038877604      11.536268426619323      2.7094700411925263
   350   1      21.299884045778796      12.822739749412703      4.2635951143672406
   351   1      20.030079992589929      14.377448625734722      2.8564066525127485
   352   1      21.313664048363044      15.701745916575952      4.4164007768502422
   353   1      20.040408509440013      17.223415297991917      2.7267582285478054
   354   1      21.532429558850495      18.567617725319128       4.282066460329145
   355   1      20.120511191106058      20.073725624905403      2.8531389063694528
   356   1      21.428923806982009      21.531193980822511      4.1788385575636262
   357   1      20.266302145699381       23.07715658321575      2.7258913566853944
   358   1      21.644598720692137       24.55481899937876      4.2740661594764111
   359   1      20.080427494941297      25.656197067690837      2.8449534639965681