dump/Fe_750_5/steps_21 (written by ASE) 

1995 	 atoms 
1  atom types
0.0      28.699999999999999  xlo xhi
0.0      28.699999999999999  ylo yhi
0.0      28.699999999999999  zlo zhi


Atoms 

     1   1      28.589396566572461     0.11076065839303215      28.611963730534207
     2   1      1.3415799495569334      1.3268494502733361      1.4479038290562369
     3   1     0.11378395955690822      2.9240147988668155      28.613891426202631
     4   1      1.3497217429118549       4.224108753772204      1.5603227267851032
     5   1       28.63626429913953      5.7826312434760467      28.607658475807533
     6   1      1.3433608808848476      7.2344663213890064       1.386075330453729
     7   1      28.683946367177445      8.6609093736206404      28.565306304207319
     8   1      1.4305566544049395      10.171986317438417      1.3849897228691803
     9   1    0.050558917559420311      11.516620081088568     0.11161810740703677
    10   1       1.514819775307183      12.860085631554529      1.4166830652492768
    11   1    0.056409128578673952      14.344444715665876     0.11465478992838581
    12   1      1.4460613186369775      15.865040827596644      1.4032655290284763
    13   1     0.01297768609830533      17.276864347144585    0.005614843150863167
    14   1      1.4419604816194598      18.706801865118038      1.3674733060098216
    15   1      28.668480103999062      20.208263121417183    0.008254651217851015
    16   1      1.5036380218544438      21.604545250655512      1.5098101907575368
    17   1    0.023667313228318998      22.949754117412088      28.690261448276402
    18   1      1.2169788848805299      24.327881506317141      1.4653584960029766
    19   1   0.0066986882653883905      25.850166805387243      28.689185009257876
    20   1      1.5629591085435919      27.481124171529846      1.3144821943401774
    21   1      3.0933146887282765     0.11112736806990327      28.617379081686948
    22   1      4.3051028232463651      1.5809471956939884      1.4564043448443835
    23   1      2.7323569207389147       2.821223956959817    0.089982445999669397
    24   1      4.1648075764142352      4.4081780501554499      1.6116016791628101
    25   1      2.8051344307228647      5.9089114049372515     0.18836431705461787
    26   1      4.2637994870626494      7.3395674268501159      1.3865107402085197
    27   1      2.8407832240979025      8.8224034233090354      28.670584917051375
    28   1      4.3592677569299312      10.002709519203936      1.3270577574112969
    29   1       2.933673202666562       11.58495143800503      28.649165299361702
    30   1      4.4655637468465912      12.898117167009094      1.3996196014508548
    31   1      2.9551591322138395      14.329455934488264     0.14444898276086623
    32   1      4.4199880038645105      15.750696550663909      1.4133374743082978
    33   1      2.8703426266613268       17.29322880777519      28.613791645847787
    34   1       4.296490976030217      18.600118398990542      1.4687521419493688
    35   1      3.0100280807872046      20.150865085102925      28.669117806101372
    36   1      4.2509372698275119      21.540087288255865      1.5316083293167926
    37   1      2.6276847696434067      23.071547978020288     0.13165757015669899
    38   1      4.3623461503946608      24.401423436032015       1.323578962927273
    39   1       2.732137001692664      25.706235364703378      28.657365686054167
    40   1      4.1909331431130559      27.204540128237486      1.3290356797884881
    41   1       5.633425015705166      28.669300735446242     0.15205030649860876
    42   1      6.9973932826701599      1.5491391878888752      1.4890376835610484
    43   1      5.7214640934456966      3.0461022243765052      28.693195169824168
    44   1      7.0224120207374963      4.3823151180595916       1.350194371983537
    45   1      5.6412211859403047      5.7927611893317748     0.11425757136153145
    46   1      7.0465101967013499      7.1561589703470432      1.5507610794212834
    47   1       5.716617896290991      8.6549874404545459      28.555792613630107
    48   1      7.0971927830083201      10.060821389570648      1.4493146046391869
    49   1      5.7247802969154842       11.65951144313712      28.579044740270053
    50   1      7.2574444206203967      12.848297737859335      1.4565655703423426
    51   1      5.8125214149552713      14.289683317759653      28.548106540461934
    52   1      7.2147254047816896      15.561107674205902      1.6237965215910197
    53   1      5.8393352965472287      17.311085917729876    0.096092892818671713
    54   1      7.2577857048915977      18.677833552132665      1.4604757219203734
    55   1      5.6624872522647998      19.930211397138674    0.034514269040471481
    56   1      7.2478329700820394      21.674931984012002      1.3699547305046269
    57   1      5.6962403745306718      22.927513227871636    0.081450969457932981
    58   1      7.1596553840726447      24.356937829339554      1.2843013515355544
    59   1      5.6398872593023297      25.820986598441348      28.622586500161631
    60   1       7.067928743527891      27.297798991007074      1.4812704315165994
    61   1      8.4889536990514252    0.066587298404556461    0.088247146944456636
    62   1      9.9430484002760124      1.4104776151816725       1.628818001822264
    63   1      8.5045007375076072      2.9299245171242609      0.2997435619810509
    64   1      10.117671861680552      4.3134980275081576      1.4770005220388267
    65   1       8.723138576109724      5.8150065447257706     0.11817925311767109
    66   1      10.029098998813621      7.2062456017334933       1.395281409740686
    67   1      8.6717115534362073      8.7052824433020692    0.073443901796906547
    68   1      10.208547964604582      9.9252255436048671      1.3871354878874409
    69   1      8.5165337075559808      11.385031340634788      28.662948865881503
    70   1      10.112008997411849      13.173687131160358      1.4913179515177488
    71   1      8.5786055517398623      14.253440018527991       28.67324269854311
    72   1      10.141886017914226      15.781816854110065      1.2051649860268738
    73   1       8.455248635778128       17.21346350528351      0.0198536417390642
    74   1      9.9936433928253301      18.532396606585799      1.3870366404456604
    75   1      8.5503151418668732       20.15248205128648    0.040793484052699232
    76   1      9.9935043803247279      21.511340966313426      1.3816945808622216
    77   1       8.630417863287045      22.892281658027674      28.534534110070453
    78   1       10.02272827721406      24.344547052168188      1.4822474948946143
    79   1      8.5267089595532966      25.817423985306061      28.682515968917684
    80   1       9.971306221872025      27.270840756235746      1.4593513380865022
    81   1      11.383683033409609    0.026737229560978914     0.15171189010885641
    82   1      13.069585732553751      1.3529344697042571      1.4148337722916944
    83   1      11.344597845518297      2.6772238437068028    0.065686299513140617
    84   1      12.859326905656101      4.1988013868640364      1.2013105358188567
    85   1      11.367898667466083      5.8100856168144093      28.688308983154815
    86   1      12.928169521080036      7.1082817105294742      1.5058683038408145
    87   1      11.473281543633616      8.6593421639273007     0.10080638323265699
    88   1       12.79533530162715      10.030528030154088      1.5283363336868334
    89   1      11.481196815550344      11.604444548166313    0.099635523401991666
    90   1      12.801501317786487      12.909230834076478      1.4843742329635812
    91   1      11.572527924007346      14.363791439778723      28.609155474261257
    92   1      12.912563534925322      15.937358765526533      1.3523811732771718
    93   1      11.453004291304094      17.370418729458791      28.686586124848674
    94   1      12.828108074086559       18.53920842193526      1.4480060335533271
    95   1      11.567404577557602      20.116676712056258      28.654103873108163
    96   1      12.986583573278766      21.380247212082985      1.2981583889406587
    97   1      11.568787588288703      22.997722167610092      28.637190101717536
    98   1      12.965020338244015      24.370544568639012      1.2558808113134545
    99   1      11.529341989422951      25.785682382141527    0.044013493941236013
   100   1      12.912351579506465      27.372478481830914      1.3683899107364261
   101   1      14.454948701155498      28.524075406657889       28.53463411174674
   102   1      15.738726227370826       1.409660997427499      1.2863407742626458
   103   1       14.30509123964459      2.8893795635780761    0.024977303451521504
   104   1      15.774434521210468      4.2315813614985567      1.3667879600572297
   105   1      14.492716498664301      5.7960169097573582     0.10167221383705957
   106   1      15.956015503980847      7.1553301366629869      1.4463740220172088
   107   1      14.199627393756865      8.4619436712599345     0.05915685426173229
   108   1      15.687421993679765      10.077026969177467      1.4067708804288261
   109   1      14.447342492028575      11.490733809731308     0.10296304409590674
   110   1       15.91641011042881      13.023068409015758      1.3619677134610804
   111   1      14.243560857106603      14.344731277981719     0.13072162796875089
   112   1      15.729336775944391      15.811346776991948      1.3816943030239706
   113   1      14.507109971986004      17.190042992455503      28.664544140952884
   114   1      15.984214212838753      18.772411305176711      1.4454615894975615
   115   1       14.52136253119119      19.956971420343788     0.04043527327411299
   116   1      15.828305957248906      21.443590441261019      1.4807532850196945
   117   1      14.386788812552968      22.996465014908299    0.049721130353134302
   118   1      15.789487817250219      24.573049961342178      1.3078445778804038
   119   1      14.378452989979627       25.94221416419516      28.540768748248169
   120   1      15.894369998421466      27.362818610737982       1.507148829078186
   121   1      17.281807346714753  0.00021237255960106948      28.629668940240439
   122   1      18.740571110978486        1.53074658870953      1.4801314444640623
   123   1      17.102089477319787      2.8435121250836133      28.558504442166111
   124   1      18.423005291000116      4.2298364860991811      1.4582818511175555
   125   1      17.208507647387922      5.7744649572924391      28.644376210106845
   126   1      18.687669750708739      7.1187130697107524        1.47665833095706
   127   1       17.33980060999653      8.5407779260822174    0.010185957212490836
   128   1       18.83289445489369      10.167513103885204       1.275435374882556
   129   1      17.225904310933149       11.36822607758096      28.689464317740125
   130   1      18.636846563782772      12.844563533356437      1.5149389010128511
   131   1      17.294639817050573      14.321230218558254      28.697225038561104
   132   1      18.681341075205371      15.804337808535822       1.490588753590486
   133   1      17.193955064404111      17.211192474583196     0.20082924225741863
   134   1      18.595513669443626      18.603661767896057      1.4835449895877679
   135   1       17.42216959732788      20.098828750217955      28.558598275459961
   136   1      18.594990412926197      21.547837943627346      1.4814512016742691
   137   1      17.248505016546002      23.039968800866308      0.1130377066327129
   138   1      18.664324200633104      24.381519809053501      1.3550844618523914
   139   1      17.246405274398242      25.738901453956686      28.574671048232776
   140   1       18.45095287661325      27.270745123274168      1.4061595928129345
   141   1      20.140868313359661     0.16058678913727983      28.575327805871513
   142   1      21.393861306554069      1.5175042994720351      1.5706340769652218
   143   1       20.03365132233138      2.8411339438804797    0.080653346227222797
   144   1       21.38186588248557      4.4005012591007944      1.3743026141081709
   145   1      20.117548456471958      5.7662714893346116    0.054852403136351431
   146   1       21.53591136964782      7.1254946375345574      1.4838099009028374
   147   1      20.112056450511581      8.7424118077978115    0.028059666241540521
   148   1      21.548006276244919      10.116873346795019       1.507157278750423
   149   1      20.312639024006863      11.620872699316074    0.055181527356592139
   150   1      21.647443999965084      13.010228999937764      1.5582344375161474
   151   1      20.093177149477278      14.206775736862907     0.14258955156698211
   152   1      21.511341768906515      15.733673193304615      1.4974159864749939
   153   1      20.070986803130243      17.158888266715415      28.624670560817762
   154   1      21.440961508591013      18.493763951015779      1.4638419528601858
   155   1      20.047574888908798      20.123193910531175     0.11223895840718112
   156   1       21.54280705610805      21.319144752434504      1.5850830367518145
   157   1       20.16914091432378      23.075490280299526    0.048551433261502623
   158   1      21.606475728695237      24.440932475217966      1.5080198453679716
   159   1      19.951247319366942      25.894237066199192     0.13913746467922011
   160   1      21.497430485769812      27.348258933284477      1.4386398800386584
   161   1      22.925647908290308     0.14508525142655354    0.052265767338985789
   162   1      24.342748742116878      1.4675893631747268      1.5092679714703421
   163   1      23.008808369064678      2.9188753849396138     0.29453647075664491
   164   1      24.413541194341551      4.3998102139908024      1.4310365021615763
   165   1      22.926508495447756      5.6828493894151402     0.01085156022101047
   166   1      24.534380669572016      6.9965286108665792       1.348608459269645
   167   1      23.076406648723484      8.6295632168101601     0.18009549442519987
   168   1       24.40147131708061      10.023297965190883      1.5755666864524174
   169   1      22.904937206640643      11.464045931706401     0.15543609597160635
   170   1      24.459047161372542      13.035275611609721      1.5094462047817041
   171   1      23.090620482115881      14.328916451734742    0.060045595243923257
   172   1      24.433035495044301       15.78605673267047      1.5433531565234699
   173   1      23.042642775967643      17.001309408736368    0.072075003883776481
   174   1      24.311908613623775      18.612500384935242      1.4214309459033296
   175   1      22.958344594359815      20.163471923165822        28.6817641491578
   176   1      24.489559534417982      21.535506693349348      1.4837382523552711
   177   1      22.863564278877554       23.02162221571194     0.11242690842886989
   178   1      24.387981093641649      24.483105680137538      1.3711131826434091
   179   1      22.997972065825497      25.985469531472997       28.66614418432745
   180   1      24.430391859427736       27.40292265044247      1.3306631695497355
   181   1      25.860136148442948     0.18311927634814526    0.091739002234226014
   182   1       27.36939358881482      1.4490852858909182      1.3348084215825902
   183   1      25.966999412188198      2.6997821740775065      28.613444830436066
   184   1      27.242325564179723      4.2259689917714498      1.4827935639348204
   185   1      25.917438236852675      5.8215720430311793      28.635532346118083
   186   1      27.288566120037913      7.1714717891315205      1.2926977759064004
   187   1         25.821702558353      8.7319408951555531    0.090557473751448528
   188   1      27.299578405825535      10.033131742212149      1.5782487091137447
   189   1      25.816047970305437      11.357101802331179    0.053868255041186239
   190   1      27.152066542118686      12.898890443356731      1.2983885777014958
   191   1      25.883404541622884        14.5242566745654     0.09195414868996736
   192   1      27.210309905058647      15.917512140119342      1.5024740468545241
   193   1      25.723074756313217      17.274623757862546      28.672936340823682
   194   1       27.13920925017695      18.670262566610454      1.3284414896285042
   195   1      25.816561478665545      20.089641435250005    0.015566251705547526
   196   1      27.235075252650834      21.529614893520293      1.4224479345985175
   197   1      25.815498264104011      23.145732007679293      28.627816752579463
   198   1      27.274958318647425      24.467043964085939      1.4574941109614441
   199   1      25.995576930924198      25.799835003512221      28.603618839758951
   200   1      27.222847513756722      27.326555333753937      1.4338060424297743
   201   1      28.644333802117458      28.689714407859469      2.8649470889163577
   202   1        1.42590339575945      1.4321809467602742      4.3141521412998971
   203   1      28.554270931019676      2.7714628335796307       3.043006416160436
   204   1      1.5977041087711199      4.2699015798359117      4.2629430303612157
   205   1   0.0072704691894392203      5.6689598816250077      2.7841321362774236
   206   1      1.4297538782083274      7.1888533892286448      4.1861186883675705
   207   1     0.17241987476255707      8.6296220256172766      2.8059253160472619
   208   1      1.4499737380032931      10.109654365774686      4.4071662441307939
   209   1      28.672986567214338      11.512576676575051      2.7947533464502605
   210   1      1.4196977039272516      12.821467658946297       4.036227755744271
   211   1    0.052940409097653698      14.378238365074637      2.6850235885061235
   212   1      1.4891372743040865      15.848928839514169      4.2299488986274039
   213   1    0.027602108928364347      17.234793189790576      2.7901518677997847
   214   1       1.488729510390056      18.720886362815996      4.2459671969324502
   215   1      28.691696865137828      20.081376316483478      2.9003999483051768
   216   1      1.4949519757787946      21.680266723339148      4.2469961846751207
   217   1      28.587491963444634      23.034229482221235      3.0574290382459832
   218   1      1.4470704012542368      24.496231133918879      4.3670871058928498
   219   1      28.625511181673705      25.912561360906821      2.9036560597135561
   220   1      1.3849454584391554      27.388887091759969       4.246509798781104
   221   1      2.9615842292809491      28.681606276894403      2.8742677754915591
   222   1      4.3003325484958221      1.2462108358065285      4.5164460350027191
   223   1      2.9400934193300343      2.9002807393880152      2.7881862371378139
   224   1      4.1942191618956794      4.4974516618045053      4.3603230981493244
   225   1      2.8439393212208413      5.7875092863046991       2.867580201878603
   226   1      4.3473507455189617      7.2519045760573562       4.346343690445841
   227   1      2.9138968028618821      8.6175485472818387      2.9561713174066213
   228   1      4.2241126105337115      10.045150063476671      4.4261851981949132
   229   1      2.9785322920076505      11.384143279139767      2.8797336863736258
   230   1      4.3629378162962578      12.954128605772956        4.19126666086661
   231   1      3.0323149636860056      14.464447604894401       2.981847733281203
   232   1      4.4208724423817625       15.78930612264975      4.2536745933584363
   233   1      2.9685472673346762       17.17415241757196      2.7647817045331284
   234   1      4.3261970230861539       18.84742472542964       4.311516248917564
   235   1      2.6853185982167704      20.028997558047891       2.864556884146169
   236   1      4.2050806129176097      21.519817824050349      4.3785789874794938
   237   1      2.7625683340582561       23.11612961372099      2.7963049962749089
   238   1      4.2592829807448931      24.553372968186139      4.1489310992483617
   239   1      2.7800579345359338      25.850143070261883      2.8793537481073961
   240   1      4.1968850072728898      27.272958837691853      4.2169142545195708
   241   1      5.6590844909378575      28.641230696194384      2.7374646960143321
   242   1      6.9550040961388744      1.3192629782402479      4.2123890387118301
   243   1       5.711909825336372      3.0013514975098396      3.0008948129206221
   244   1      7.1262307008168451      4.4174204401019654       4.350563422501259
   245   1       5.648727445558432      5.7477986084969075      2.8563402401327944
   246   1      7.1467476798088914      7.2065724490687231      4.2474671471414691
   247   1      5.8695315735141653      8.7202902787843648      2.8006773109388297
   248   1      7.1964467824369187      10.009564333257011      4.3692733921254776
   249   1       5.696184565190948      11.269891630875517      2.9279785364325233
   250   1      7.2686348342587648       12.77775954243214      4.2795404558120573
   251   1      5.8698545920958729       14.23087741222551      2.9301197473186056
   252   1      7.2639857648194797      15.902178721941723      4.3524520922679226
   253   1      5.7730605130074029      17.430080025939176      2.7635882195009902
   254   1      7.3970975286319742      18.865300471631389      4.3076774464131447
   255   1      5.8313420392349764      20.134502940716605      2.8614019701548377
   256   1      7.3307340476360752      21.444264714795029      4.2945210244945162
   257   1      5.7458080599433909      23.019212018936987      2.9553684826947326
   258   1      7.2844666616140588      24.369483344976992      4.2600981019254025
   259   1      5.7009946615142821      25.850475035014679      2.9340786874213869
   260   1      7.1665799427048631      27.330508493921869      4.5185467972132924
   261   1      8.4919853465575343      28.540252959792443       2.796263679032243
   262   1       9.849841655352602      1.4294712696411007      4.3313884022121094
   263   1      8.6023472907171055      3.0118717596880389       2.813002803779078
   264   1      9.9482571706839185      4.3013867712362348      4.4136987681914066
   265   1      8.6126801840914204      5.7458000205795781      2.9407262280443658
   266   1      10.205315161744757      6.9412517972189631      4.2600307481197097
   267   1      8.7040157534327012      8.5411847045323412      2.8763377317102243
   268   1      10.074499563269484      9.9976403334373138      4.2688004818936296
   269   1      8.6305860115590072      11.364449423509047      2.7651280822271693
   270   1      10.134922985022273      12.810218581754695      4.1508574792220019
   271   1       8.621326660144037      14.481573089059944      3.0561567472536777
   272   1      10.060596828638875      15.826954036243798      4.3720385228399543
   273   1      8.6727103672720425      17.212246767705739      2.8981626102393543
   274   1      10.031151198031518      18.611180203494211      4.2392749224096979
   275   1      8.7191395568677219      20.073738608702239      2.8477811559513051
   276   1      10.147552148538617      21.467395714057599      4.3156266223848387
   277   1        8.63188308133285      23.023750017692642      2.7934788422663015
   278   1      10.262130621422424      24.392448670605141      4.1315278337157952
   279   1       8.635357142233298      25.883464287594517      2.8137603449895323
   280   1      10.031359154955533      27.186754263367341      4.2751479902872669
   281   1      11.238684038075792       28.68481504190024      2.8507733939190758
   282   1      12.899451466827982      1.3295789954295392      4.3871255682251373
   283   1      11.455933670234758       2.730421743835187       2.946775078648793
   284   1      12.901560883194481      4.2332077815630988      4.4055070807469683
   285   1      11.624940095382643      5.6523368917726602      2.7833756006918073
   286   1       12.93768276313641      7.2798257213213979      4.3557543383013311
   287   1      11.469860953657797      8.4837391985872976      2.8950397336513478
   288   1      12.925621893560375      10.085765541848097       4.250732417886991
   289   1       11.53442958021424      11.529889447103008      2.8315974568155742
   290   1      13.069072365819267      13.049988860277752      4.2900973391716883
   291   1      11.485525938720883      14.585110744797925      2.8708648565577066
   292   1       12.88601961430064      15.823511868595643      4.3007394723858026
   293   1      11.575554805562785      17.205897931745554      2.8144411432539975
   294   1      12.915154108525963      18.691548713054768      4.2799976395299781
   295   1      11.593495475822474      20.168828943608034      2.8191061141947205
   296   1      13.095041088396206      21.461255100663315      4.1695572955357214
   297   1      11.569692273032313      22.630529033137655      2.6273186714958574
   298   1      13.030225105218062      24.370462869647636      4.1783050991720341
   299   1      11.454261671609897      25.951333641459492      2.6571887294212146
   300   1      12.920551101769044      27.245397749680819      4.2768698607982349
   301   1      14.347967797804628      28.614469385734768       2.993956975282082
   302   1      15.757350388524275      1.3936917081513334      4.2508361109018669
   303   1      14.252448305899547      2.7491683414176817      2.9416133310262818
   304   1      15.800378219221509      4.0396252691476962      4.3184951369888456
   305   1      14.353802658923678      5.4942155812447089       2.892542075876035
   306   1      15.833099346453061      7.3399314159647702      4.1954920246273115
   307   1      14.527466124192463       8.594127416105243      2.8561762618066719
   308   1      15.846580306073095      9.9766906316947015      4.4049593995447029
   309   1      14.391132681879444      11.558142730316419      2.9556918229603633
   310   1      15.734049023484676      12.779468538603801      4.3217088206303025
   311   1      14.366731706987911      14.359936447010723      2.7964015718107351
   312   1      15.674803787352579      15.716249085234137      4.3429966048660633
   313   1       14.43279899520029      17.157470433871879      2.9173375633211132
   314   1      15.767416159228844      18.508557341628549      4.4483145913558921
   315   1      14.289760501286448      19.928364838783168      2.9396356746009311
   316   1      15.842973142271083       21.56980026912716      4.1505601790726319
   317   1      14.421570445055478      22.921437943714558      2.8896297155815489
   318   1      15.860669388645443      24.418142406939062      3.9942253793108957
   319   1      14.337000649422246      25.855289553499244      2.6750592618741504
   320   1      15.962475326369034      27.309610218739884      4.1624317868361489
   321   1      17.191877684527348     0.26966364401813525      2.9396789984959653
   322   1      18.859712602987866      1.4266765712176608      4.1197564496352124
   323   1      17.163453791439387      2.8319159955071092        3.03968290168442
   324   1      18.616643662712214      4.1830198131993308      4.3543413685391448
   325   1      16.980334753358093      5.7425320127228341      3.0586725773759822
   326   1      18.475280294319735      7.1977856681123091      4.3293250057632529
   327   1      17.338701200017933      8.6273449133938502      2.6133398711061542
   328   1       18.48211091785673      9.9010141915657925      4.5164770501898186
   329   1      17.334763493504372      11.364871582167618      2.9381516134294121
   330   1      18.634805179074455      12.772782327828356      4.4093875134793201
   331   1       17.26893992962059      14.396165694621708      2.9274332942476686
   332   1      18.707256653249868      15.759075101558095      4.4677233302858124
   333   1       17.14383194902771      17.176488390109267       2.933955362261027
   334   1      18.727524773679185      18.654916625857314      4.2511482717906128
   335   1      17.155475190242484      19.963124031186808       2.991429582203462
   336   1         18.646455276466      21.546162855807758      4.5116481080391519
   337   1      17.243815786221045      23.034650535660891      2.7679082162039417
   338   1      18.644436286434967      24.433404037416704      4.2670056888537484
   339   1      17.277015171828136      25.829474764416641      2.8374291135136795
   340   1       18.66878838096013      27.436903746845172      4.3594834624815864
   341   1      20.090511067937726       28.62417819087716      2.8737074666610178
   342   1       21.46597284635218      1.6448576740272294       4.291526771329071
   343   1      20.054304112992153      3.0809700607634567      2.9054777751765193
   344   1      21.462593291154107       4.406844921689439       4.420131504839734
   345   1      19.918641746895361      5.7059436924744551       3.057293101034011
   346   1       21.42536771926239      7.0563444188941737      4.2607298308707389
   347   1      19.989419663121804      8.5807308822642518      2.9954962643504111
   348   1      21.754607348366541      9.8057692017709286      4.4469605217269486
   349   1      20.011807863933292      11.391814081158985      3.0253708104828276
   350   1      21.566982818934498      12.857099996748701      4.6002911154277095
   351   1      20.165406942097221      14.317355333184238      2.8478873152052295
   352   1      21.525691361938847      15.800846292304445      4.3602204915595735
   353   1       20.08372975733446      17.141367457347304      2.8500719611111993
   354   1      21.565386907547826       18.50863463531114      4.3506168016168516
   355   1      19.979031804712598      20.140096435782898      3.0623793503428747
   356   1      21.655162991140241      21.542218387327882      4.3790884911878374
   357   1      20.094705150076624      22.948323833265899      2.7855667472258583
   358   1      21.683097891268915      24.404780096732409      4.3024657850753103
   359   1      20.050687253012704      25.842919208958634      2.7990926632596613