dump/Si_1400_5/steps_21 (written by ASE) 

3995 	 atoms 
1  atom types
0.0      38.395898218429522  xlo xhi
0.0      38.395898217999999  ylo yhi
0.0      54.299999999999997  zlo zhi


Atoms 

     1   1      38.236514642861657    0.076496827391441244     0.19777206324781674
     2   1      1.9603353805608821       38.24644309799978      1.4247209151858451
     3   1      1.7170766547928458      1.6149084340708904      2.8998671213973379
     4   1      38.253693430975467      2.1235336520038004      4.1844963448415005
     5   1       38.36081201436712      3.5340092838176727    0.064605320188411489
     6   1      1.8846771802318441      3.2220070731818318      1.1504148116769097
     7   1      2.0624594854684797      5.3933853643035494      2.7348727784995979
     8   1       38.28446294200414       5.732167054144643      4.1137110025392527
     9   1      36.630786850781504      7.9871577322198659      1.2180769666953681
    10   1     0.16334783874052683      8.1390894767429547       54.20063452671338
    11   1      1.9786172900917396      9.6012086785856514      2.4059998499595934
    12   1     0.15892468237750465      9.8885808789559828      3.9988122119965372
    13   1    0.086205717928185557      13.483870464838148       52.87084361004387
    14   1       3.894649957826998      9.5169746587662498      52.797150416994938
    15   1      2.4323052055167134      13.456939181847826      2.7470695272666146
    16   1     0.46750635986497391      13.674358934173069      4.0635071179838862
    17   1      38.160737530650124      15.383934131326303      54.240808172281682
    18   1      2.1480136949485873      15.328086156742767      1.0708913392728596
    19   1      1.8379490518539707      19.018581031539053      1.5213884536480211
    20   1      38.393380613419197       16.76067973305998      4.2240163198137086
    21   1      38.304933164045295       18.98072295459469    0.029374914599077314
    22   1      3.6912824123072188      19.128024114500096      54.160908770436862
    23   1      1.9960081755852375       21.04700645302891      2.5289121309332701
    24   1    0.063426119329992731      21.001862174741756      3.8510785312656499
    25   1     0.10776265751038015      23.179774423024956    0.023078032818125389
    26   1      1.7327142759012832      24.947100131121058      2.5182585752600066
    27   1      3.8122358728158625      24.695732322925291      3.8878265610121523
    28   1     0.15639241848248173       25.06725752855667       4.182182710702647
    29   1      38.011983330207592      25.015341707952903      53.011981332065631
    30   1      38.332661419263616      27.055076690087972     0.13885282702690332
    31   1      2.2489253389989501      28.747625903945465      2.7553171538891648
    32   1      0.2918188669346059      28.950790978260098      4.3364714373896609
    33   1     0.26854771931507987      30.916241177935323    0.038080532938226955
    34   1      1.8018854823124277      30.801062720023339      1.8217543299956782
    35   1     0.32997776458543171      32.881658700388371      4.2819462362822183
    36   1      38.250785683111857      34.532329052636022      6.0844539624076015
    37   1      0.1219668424152089      34.611055997415178     0.10835540971568208
    38   1      2.2760611853408204      32.636631771122097      2.8628666782268488
    39   1      38.325063021947678      36.418611084044613      4.5400398348047473
    40   1      1.8625951494031832      34.689333923780211      7.3406330584340287
    41   1      3.8868855796183222     0.20899097567850833       54.25082047118233
    42   1      5.6826833686384441    0.066788873629721385      1.5086642625321043
    43   1      5.3388220899002636      1.9285840331806741      3.0316467281533597
    44   1      3.5659181379537266      3.9473882223223482      5.6972026017347872
    45   1      5.7189864516128894       3.604469446551771      1.5073792799309993
    46   1      7.5687388525693802       4.211760099715943      54.192803285684228
    47   1      5.7719488898310489      5.6475028182351599      2.8619874080700605
    48   1      3.9962246546050184      7.5780501413997818      5.3885660145761571
    49   1      1.8952939302986431      7.5147497990853331      1.1776265013674554
    50   1      9.4241952326845766      9.6318910768728578      52.152907946120607
    51   1      5.4307775051055946      7.3069028283578925       1.328855934514819
    52   1      5.7541565987781986      9.0440400821134901      2.9462667455336464
    53   1      3.5827970885977392      5.8987119247795903      52.972839259922615
    54   1      5.8129335340522728      11.059444267866585      1.3979610088787797
    55   1      5.9083274453188004       13.06697871383291      2.5353213625164805
    56   1      4.3116417704446768      13.172202343956302      4.2166818548135812
    57   1      3.9743418056082653      15.224584107053872      54.027793988887602
    58   1      5.7830591532877209      14.924467773680007      1.2625526848517106
    59   1      5.7300925615075737      17.282001897778635      2.2357763843379863
    60   1      1.8159505163793994      16.970521008136132      2.4642640302731027
    61   1      3.6092080647929912      21.002259365300176      52.902499058114827
    62   1      5.6250630601656271      19.102461532817514     0.92315965908319542
    63   1      5.8466237387796154       20.83969894292991      2.5719170742004258
    64   1      3.8846358501091536      20.846451783760873       3.781363171568386
    65   1      5.5648232515372085      22.840789161672532      1.2106388100277758
    66   1      5.6608243620724901      24.630386591705829      2.7163427961466735
    67   1      5.7003742586500517       26.73253568711085      1.3833741944567921
    68   1      7.7948937483338838      24.728399504622782      4.1532967936688703
    69   1       3.726296213691902      27.018291316146684    0.084039214383744634
    70   1      7.6877639174420267      26.810951617464475     0.11985876622386492
    71   1      1.7249901366616207       27.02786365438045      1.2828208823591594
    72   1      3.9861682102696774      28.536535536346676      3.9646423316029304
    73   1      3.9701003170013602      30.769363014134964     0.33809303098122429
    74   1       5.872018079360287      30.876503787186525      1.6597325000497085
    75   1       5.725439062223499      34.600405858504558       1.281506675857738
    76   1      3.9563575169277883      32.613959714753243      4.3329273262108003
    77   1      1.8880214250852398      34.606281900356571      1.6121279332956431
    78   1      3.6798557305301376      34.848134145906577      54.113605807386222
    79   1      5.5739989289490399      36.547844498703959      2.9354144557029596
    80   1      3.8004214976376152     0.13406445588191432      5.8170552858859281
    81   1      11.045713334943677      36.460189511338996      52.815083127492969
    82   1      9.7083672175574147      2.4314292426863355      2.6087783369111985
    83   1      7.6756152198495213      2.0540249106166399      3.8618443759537162
    84   1      7.4578868853433491      3.8187936040908634      5.7544491910801412
    85   1      9.4851711510241046      7.7008399649931789      1.0865406624184759
    86   1      11.685763193335323      4.5187421600768527     0.15046895491102533
    87   1      7.3575644347565099      7.2897032550654774    0.051956523460933102
    88   1      7.7311916713345887      5.5441551713517505      4.2268975034710019
    89   1      5.7399153906839313      9.7283935390734069      51.681870043357911
    90   1      11.521696919765773      8.0248183505679087      54.280859364629009
    91   1      9.3682655212301675      9.3114876417126506      2.9250711205322077
    92   1      3.9696546672765987      11.391058967663204      5.6739324492392296
    93   1      9.5543280909955861      11.501248549742526      1.6618556986081769
    94   1      9.8479496089492145      13.610454186708766      2.8201609660263767
    95   1       7.807428245769807       13.32405821686104      4.0748681273868907
    96   1      5.8996082002216648       11.48251240176123       7.144760409371929
    97   1      7.8096748727913745      15.528068298115892     0.16006277690331674
    98   1      9.8652035614814189      15.356149552073283      1.2766529474604662
    99   1       9.876816380798175      17.402309302613236      2.6612392978334607
   100   1      7.5436516407389309      19.034644465561019      5.2849158085125723
   101   1      7.6562344734605272      19.467758934025579       54.07340136197184
   102   1      9.7833243808074801      19.750899221422273      1.4080027008129596
   103   1      9.6625184362947945      23.140439490319888      1.2447443975554753
   104   1      7.7087740962541851      21.075213917906055      4.2193551175062005
   105   1      7.5166772052179045      23.255903622946459     0.27402207786797134
   106   1      9.6907398806191143      24.858978547107842      3.0768574567387388
   107   1      11.648537885660282      25.072194463232918      4.2722690547634112
   108   1      7.7410085054843654      26.580238395388694       5.840731199285381
   109   1      7.4692155902403785      25.164314572090117      52.892984501749524
   110   1      9.2608472609916088      26.848402538282002      2.1147209657951507
   111   1      9.2602533892757037      30.696264914285198      1.6198364416556299
   112   1       5.763705958981828      28.777267189967631      2.5601806754278984
   113   1      9.6936454004201895      32.695632940644373      2.9340285267654598
   114   1      11.243260557947954      32.541968532362681      4.4676023687541573
   115   1      9.6771789150487901      34.585140438574278      1.3262387179535591
   116   1      5.9635584987262327      32.599081375013739       2.961599919828906
   117   1      7.8167344746777045      34.422829647010644      54.121746371952618
   118   1      9.6688137287227409      36.531479550678853      2.6935198899953208
   119   1      7.7466974737822554     0.06091086410929096     0.35827596735873585
   120   1      7.6590055092220535      36.588465435461629      3.8553178783960234
   121   1      13.172670048284651      36.353344094277368      51.491659285896795
   122   1      13.136071137371285      36.706976014361423      2.8519932635428638
   123   1      13.513064458390929       1.631804007465975      2.7767300060953315
   124   1      11.686309172445393      1.8784029422408728      4.1478356491900863
   125   1       15.76104892025875      3.4287710600024748    0.064461362397810432
   126   1      13.853586899767416      3.6470370592898167        1.26168780386372
   127   1      13.402550246274105      5.5778309829068791      2.5682272298632118
   128   1      9.4154375721816859      6.0442714331946288      2.4965011625845501
   129   1      11.800312593407828      9.9370844137823635      53.032349104941581
   130   1      13.433579234305126      7.6431149072278908      1.2133966824794571
   131   1      15.253538984492256       9.599223571341053      4.0706242683483289
   132   1      11.364982477570233      9.4752732947194751      4.2014769771840959
   133   1      13.513366764386193      11.318197622205469      1.4750713592126194
   134   1      13.275941571871893      9.3702946480291214      3.0148213821122911
   135   1      13.553645333281182       13.45689454891718      2.8967093534909178
   136   1      11.633119878543187      13.650530563099471      4.3483271509893244
   137   1      11.767740678691553      15.602442032232229      54.283194754043286
   138   1      13.665413898543981      15.257076192412557      1.3206521045707407
   139   1      13.435906808841322      17.256097754804543      2.4323047031083105
   140   1      11.807336068763417      17.377982305590933      4.0897464823273948
   141   1      11.719709348943658      19.412421373618745    0.093981000553844604
   142   1      13.699960061804831      19.454491006492098      1.3068603412850497
   143   1      13.556631226131159      21.352659183158483      2.6674255859257054
   144   1      9.8745749648995513      21.348616533347105      3.0229803312413437
   145   1      11.597226168860542      22.998533622199989      53.753617799378397
   146   1       13.33771236608276       23.23829510918884       1.118119850563462
   147   1      13.392805485531037      24.910267907887249      2.6295088007025944
   148   1      11.750005588685042      26.928296082620058      5.6610314498159884
   149   1      11.079754716798417      27.138214363544254      0.2036539974287509
   150   1      13.217401382054478      27.200136517704028      1.3651130937177069
   151   1      15.170607839165156      28.416607559724824      3.9326176603141083
   152   1      9.4093409136554591      28.925863940864417       3.234582799582153
   153   1      10.852148013285703      30.588843691885337    0.038906324012839361
   154   1      12.938526014761058      30.690948224824997      1.4354411348184639
   155   1      13.165512451276479      34.231937244421836      1.4897021381252196
   156   1      13.510261184244637      34.442813586773433      6.5708736052306316
   157   1      11.289575525787511      34.459893088867361      53.837590339573815
   158   1      15.079296638949339      34.364463373827284     0.26422752128814841
   159   1      11.578634785254849      34.513686172626286      5.4238023571558092
   160   1      9.6051250190991748     0.30890214641968688      1.5724588048444939
   161   1      13.386535650545349      38.329114864560381      1.1416982830361224
   162   1      17.583846937980081      38.158298760768133      1.0708406970084996
   163   1      19.113083617452347      1.4385431765333776      3.9574242231359804
   164   1      15.442542580490889      1.8185218673845522      3.8963872650179177
   165   1      17.365259204370819      1.7066646607602818      2.4575274285384938
   166   1      18.842171374566114      5.7663197300168036      4.3136359086342866
   167   1       17.07596910167554      5.9518043418695727      2.7041457576901182
   168   1      15.326806052567319       3.661700928881551      5.5732962328450046
   169   1        15.4087517718784      8.0634606829573503      54.119143289690534
   170   1       17.23625816751796      9.6880359836280014      2.9281970299667157
   171   1      21.051127322882248      9.5656450519638412      2.9361132011653788
   172   1      15.319736500626247      7.7910498055137305      5.5733753664181362
   173   1      15.601742441457574      10.997633062409639      54.115888368620041
   174   1       17.27054343050677      11.563975683794501      1.3658091111710515
   175   1      17.211219598882401      13.588219148477775       2.552667539815562
   176   1      15.627703499751417      13.470112362628935      3.9969915128350988
   177   1      15.485085579344339      15.327397374853573     0.19456497773979869
   178   1      17.314329750245054      15.677371176432114      1.6131332177027138
   179   1      17.262424851844305      17.565002900254434      3.0825959820249098
   180   1      15.171471008386067      17.561311507124564       4.176941211074098
   181   1       15.25322988635364      19.123290894065516      53.818107779008848
   182   1      17.295807179249074      19.409745183579695      1.1242400394326084
   183   1      16.943224689993237      21.282965310498238      2.1301201888661594
   184   1      15.475304963763604      20.850233903622861      4.0338675801707122
   185   1      15.256094424737492      23.056769966251359      54.193141434089526
   186   1      19.109938081676582      22.945428400449121      54.026860493309314
   187   1      17.232717112692796      24.987783261583139      2.5071208049946341
   188   1       15.32464734389379      25.182478102722353      3.9470710232794066
   189   1      15.064793566657968      26.751417266766396      0.2350779411017811
   190   1      17.115607420635847      26.845395593195974      1.2348644082432314
   191   1      17.111344455181257      28.689079673307806      2.6168449548176556
   192   1      15.397680537356536      26.900580413519467      5.6356694223326649
   193   1      13.143715340553006      28.924009011440777      2.9997313468731712
   194   1        17.0371686824205       30.47281526515847      1.0040747486785002
   195   1      17.172076990083266      32.478368840780867      2.8170903548467985
   196   1      13.138474877947992      32.360604985728251      2.8188710779388524
   197   1      16.751529109876394      36.245826824958066       51.81391363308434
   198   1      17.057294357920629      34.294878679063331       1.549769465545378
   199   1      15.386898239516094      36.318208377678594      4.1625051184436561
   200   1      15.603520773341044      34.376578086463411      5.4406628165353697
   201   1      19.361667266222039      37.993122831602633      54.011053704177911
   202   1      21.265238473276913      37.890074912993626      1.0336477090805161
   203   1       20.85753953424344      1.3779285863593451      2.4323617728974338
   204   1      19.243546603020516      38.336593248384453      5.3841015063825699
   205   1      17.319495950620986      3.7408344683123165      1.6681020476804622
   206   1       19.14341969704784      3.7736124745602355     0.19461327492456357
   207   1       21.05644687824994      3.4232983501455871      1.6890480280471252
   208   1      19.071474994529918      3.6061456825953506      5.4311467918046263
   209   1      17.257203708710765      7.8855581352460735      1.2687356295352192
   210   1      20.795285129462574      5.5392593224580775       3.112784438400034
   211   1      21.159995187763943      7.6121489404170246      1.7933890093545168
   212   1      19.207914518143721      11.245993077810963      5.3904663016022925
   213   1      19.202421457314028      11.183037288078884      54.089290773828033
   214   1      20.989990156907087       11.25904060202804      1.2975375432584642
   215   1      19.250715733657394      13.353339981733521      3.8123520426481945
   216   1      19.141129186545431      9.3287844381444689      4.1561586553360232
   217   1      19.230326441565687      15.201053974131153    0.087360209537007252
   218   1      21.360432869138663      13.331312588759916      2.4909136426371341
   219   1      20.882451147930983      17.340053317777347      2.4756769679837261
   220   1      19.320183583592989      16.942403114450915      4.0296568303613425
   221   1      19.259631825895184      19.144455540849602      53.903537978815962
   222   1      21.100140099260678      19.123467597074072      1.0135678850284329
   223   1      21.139899020347592       21.08278653156199      2.2189040353410641
   224   1      18.933659286786995      20.940275225629858      3.8028251020413668
   225   1      17.173801529380217      23.305940049248829     0.88389645437248188
   226   1      20.867930871023816      23.001523484050782      1.0746927526204235
   227   1       21.14199306769483      24.907091785488035      2.7704907824645693
   228   1      19.123430831731607      24.829807491119134      3.9260126565898656
   229   1      19.077110672730758      26.711934141054481     0.16387835684512325
   230   1      21.141402740708749      26.862562312994417      1.3494041783042576
   231   1      20.715022941360441      28.748202052348429      2.7157533314948199
   232   1       18.99233646327832      32.483171412043006      4.0021157049126943
   233   1      18.918186133502619      30.513250509098118      54.122271580438209
   234   1      21.038223609413052      30.436545693089897      1.0689158276396715
   235   1      20.822291150182267      32.563504023470173      2.5557168998938189
   236   1      21.131730064232759      30.796072939351777      6.5073033051939291
   237   1      19.084600312763531      34.628135009543151     0.25878604510958214
   238   1      21.200456698812779      34.336531244067722      1.3563486294562026
   239   1      21.168231591951301      36.133603770762875      2.6842354521980827
   240   1      17.188490846597254      36.451924914929847      2.6493709876991738
   241   1      23.330155538872827      38.251081615029698      0.1035883019341101
   242   1      24.987970654807455      38.275349059438888      1.4369943771765756
   243   1      25.049530691456269      1.8740382877614503      2.7202500562797218
   244   1      23.014354441004144      1.6010692268801618       4.158610274291604
   245   1      23.144059729934245      3.4642841328738818     0.27034421654853985
   246   1      24.953550479273961      4.0145500224233723      1.5271325278712766
   247   1      24.828276936397454      5.8061898160579393       3.127698357705051
   248   1      22.946401823953092      5.3251060536252082      4.4551000653708215
   249   1      23.124491224001229      7.4584489864739094     0.59581232624003777
   250   1      24.982965014261463      7.8637995396364886      1.7624877111489907
   251   1      24.722023859414765      9.8214922305132095       3.292354577337826
   252   1      22.765712051396186      9.5114885178379396      4.6272986536896266
   253   1      22.918998659826872      11.362668770978075     0.14175134594871697
   254   1      24.817182765409953      11.377668728382254      1.4996883046555798
   255   1       24.84005486503888      14.908883304871072      1.4093502486310172
   256   1      24.877294306646331      13.089441296295787      2.7452144316783444
   257   1      21.173441953874239      15.202128799423654     0.98586032162320181
   258   1      23.232255085853701      15.135989407264717      54.091068024034747
   259   1      24.967903489523909      17.120209435725442      2.6064112298818798
   260   1      22.931079802663628      17.145460844747276      3.7702928263803051
   261   1      22.941777750636369      18.969287557176372      54.029990302906874
   262   1      24.870453164053608      19.011945181283838      1.0688796082127154
   263   1      24.925573720285026      20.939737455014157      2.4476560684025936
   264   1      22.865460325386788      20.962164308459279      3.9549635406456884
   265   1      23.102905704619182      23.030251521654414      53.876647498520512
   266   1      25.322723813613361      22.632982336649253      0.6295225213503034
   267   1       24.93189541443293       24.46271862716651      2.1296393925821708
   268   1      23.248657191456999      24.568936479658149      3.6680846314370452
   269   1      22.920747609896058      25.055764072099382      52.709856406399744
   270   1      22.778795666961368      26.764245754836434      53.983346216573359
   271   1      24.759500044855081      26.694121860516788      1.0298537112282371
   272   1      24.718535870014563      28.469362266906259      2.3200458044769223
   273   1      23.044242351596335      30.744079397759887      54.201728527977345
   274   1      24.825930906183579      30.332527091109473      1.0609223006247037
   275   1      25.088844932060177      32.090243276299553        2.37897072903802
   276   1      22.942298497613617      32.438106380912345      3.8767938440359235
   277   1      22.894536542742305      34.465123928857487     0.11218071482909382
   278   1       24.99659039129055      34.113037114435571      1.3146116255362827
   279   1      25.175340545500692      36.164510150943329      2.6069331652282113
   280   1       23.24004607154918      36.393066828614288      3.7850393470067054
   281   1      26.999163512303149      38.130622110457878    0.012841776207562806
   282   1      28.817172404129472      37.653710774663303      1.2836969167060008
   283   1      28.964332044228172      1.3067561518008901      2.8877715980506991
   284   1      26.981242547436139      1.7398285445723469      4.1417194321918265
   285   1      26.805389281614755       3.200520280483496     0.25249057728049124
   286   1       28.73664963983833      3.3789161547885724      1.5238124504746098
   287   1       28.43661790518361      5.3223969525687576       2.741084492328818
   288   1      26.982904413215984      5.6931294355624908      4.3358175452653764
   289   1      26.929852863242303      7.1498809744501752     0.34170565092329064
   290   1      28.829563149104601      7.4161068833995216      1.6666002674364333
   291   1      28.728099252013351      9.5173774743079704        2.74236580012554
   292   1      26.783017447456086      9.5719552986240011      4.1261208932817208
   293   1      26.861922023694483      11.286548083768473      54.213177025021317
   294   1      28.699997823245493      11.338776044803639      1.2107208848444424
   295   1      28.579589976967533       13.24210034640339      2.5851911693301668
   296   1      26.954517159779023       12.94285345670942      4.1932448836481298
   297   1      26.639503420105015      15.220950022823462    0.092889725579732657
   298   1      28.595663659499966      15.474301549260185      1.4575859933360811
   299   1      28.977908876473748      17.291891586095709      2.8183333138777931
   300   1      27.010769839027709      17.361797289305276      4.1176068228586713
   301   1      27.105848056271892      19.180475974543775    0.069067185927235569
   302   1       28.98858040724787       19.35124888105457      1.4722408877373003
   303   1      28.511387264103615      21.133597430193962      2.7273002344510027
   304   1      26.627897591142453      20.983777624968234      3.9378284945271607
   305   1      28.728206517455295      23.026882921727569       1.033442767793749
   306   1      30.962329708033433      22.835552240462412    0.035837607936309711
   307   1      29.118378713382761      25.005538103088806      2.4831728037348175
   308   1      26.909154042180116      24.985695788529828       3.425979444701714
   309   1      26.630224435334913      26.746856470307698      53.692888627736764
   310   1      28.548919629403777      26.676970996974056      0.9002532339516981
   311   1      28.523827899777945      28.636462564138029      2.4827878579009393
   312   1      26.739585012172665      28.475142765792732      3.8010795753481736
   313   1      26.857664863502119      30.579526047761128      54.002703361863908
   314   1      28.630813228942589      30.484302907304706      1.2176903247452187
   315   1       28.90394535147502      32.262679037160567      2.7087041914142316
   316   1      26.818468836730073      32.234872969557834      3.8734076396923318
   317   1      26.913508561511197      34.151817167181989     0.12733659291851593
   318   1      28.759004584576882      33.994779521224949      1.4272939391322339
   319   1      28.759807470308427      35.677728108768996      2.6966677345952568
   320   1      26.855495371950493      35.915071083619956      3.9010160183071312
   321   1       30.77170978391975      38.193353322841396    0.022011000179452352
   322   1      32.790976298552437      38.347701858076107      1.3594743261006688
   323   1      32.593835138830819      1.7458904485824143      2.7461461353076722
   324   1      30.740500699903368      2.0158990216529209      4.0108900775045093
   325   1      30.447992499417197       3.654606140529931      54.030047711329708
   326   1      32.580261475824081      3.4337132425733561      1.0444885538750417
   327   1      32.976862844057429      7.1894155590176529      1.2430150492144458
   328   1      30.660722422930753      5.3389334496798115      3.8837618871710125
   329   1      30.774817499786536      7.7670958236529994     0.45799582253871468
   330   1      34.649948716123326      7.6160968249548544       54.21562345391235
   331   1      32.826499993094558      9.1475532645308171      2.4837210479739631
   332   1      30.994802593459497      9.3591994919109958       3.915652567404138
   333   1      30.856575279213516       11.33370912258591      54.271770892999413
   334   1      32.963602516098739      11.166976778535371      1.2829632757818199
   335   1      32.864092271578876      13.450108059011956      2.2351959102413299
   336   1      31.159698097895632       13.46132863235086      3.7051126086944142
   337   1      30.567225765557271      15.210135657361405     0.09844801747843808
   338   1      32.582560842611691      15.529149392454634        1.18933542109331
   339   1      31.094688460372083      17.100098633904107      3.9017579228063357
   340   1      32.604327933014659      19.470232933603686      1.1137274560260289
   341   1      32.630980880814271      17.692644900531864      2.3961358344753858
   342   1      32.708990402959628      21.419117082163144      2.6974552576001556
   343   1       30.73747088583179      21.369329330294001      3.8138519254310137
   344   1      30.506530010677622      21.228324906829236      52.832206888028978
   345   1      32.749688032583208      23.194732713279627      1.5359042619283081
   346   1      32.700662202043006       26.44616003978409      1.3838192185679972
   347   1      30.777443461550796       24.89789984639803      4.0969987083717694
   348   1      30.717199784467404      26.750457438260227     0.19655115027136388
   349   1      34.529909046101089      26.743808602781375    0.068446350671092407
   350   1      33.041634848034342      28.493893042280586      2.7110429310432083
   351   1      31.119933769722905      28.535708297449247      3.9079314232665316
   352   1      30.793913416799104      30.384253573322646     0.42938030476797184
   353   1       32.72016833208513      30.473384981919263       1.530911209322301
   354   1      32.573063952860011      32.405077879601301      2.8575082499333817
   355   1      30.806663942447063      32.451712580754865      4.3255546081356417
   356   1       30.82019840545037      34.405255504813809     0.14461639863311571
   357   1       32.41826866548417      34.556973801711372      1.6868506854685736
   358   1      32.664437753975008      36.601608226834912      2.9303583427897366
   359   1      30.466153183370515      36.621678267380133      3.9714298998675051