dump/Si_1400_5/steps_41 (written by ASE) 

3995 	 atoms 
1  atom types
0.0      38.395898218429522  xlo xhi
0.0      38.395898217999999  ylo yhi
0.0      54.299999999999997  zlo zhi


Atoms 

     1   1     0.31982502176287964     0.33561211767968374      54.188750223083261
     2   1      2.0787598084284253    0.078502035234911047      1.3155771480159404
     3   1      2.3243644160577559      1.8901142430309721      2.7162465418090851
     4   1     0.27848755327995867      1.9955676319060744      3.9769337613822917
     5   1     0.27432739767909664      3.6489973201985628     0.10402045434668723
     6   1      1.9175960793584808       3.801263430158401      1.3856722896692164
     7   1       2.066866626262426      5.5998920749177516      2.9199789633008897
     8   1    0.034844689015633562      5.5179409114576758       4.410325697570193
     9   1       36.65652740586345      7.4325602135217812      1.1259159118644786
    10   1     0.31299400005777039      7.7647341985049954       53.97413904543604
    11   1      2.2303589175441392      9.7743848604092918      3.3781006667859041
    12   1     0.15234784383295097       9.451956403603063      4.0681525765815651
    13   1      38.313182864970052      13.723289710879369       52.31774195213562
    14   1      3.6782058170714276      7.9233267731346846     0.27021066995673665
    15   1         1.9736811350718      13.494879855178388      2.7406150441988659
    16   1    0.092548654757498419      13.542797539367365      4.1119947742259786
    17   1     0.39113143438448628      15.383566472279147    0.030756673111034194
    18   1      2.2010975118723022      15.477828680236826      1.6254440418097147
    19   1      1.8970901942607019      19.222615630100371      1.6165092824125418
    20   1      36.440874400945759      17.324378927044421       3.096386832702446
    21   1      38.229683544415757      19.425759703883557     0.59786509175155422
    22   1      3.6442457249165106      19.202766189833941      54.171543910718533
    23   1      1.7986320850173354      21.070978687419544      2.9485095124400327
    24   1      38.251078975173861      21.364702535912894      4.1171938600644022
    25   1     0.11713009189709389      23.043814434988249     0.24717106518050963
    26   1      1.8947185569555609      24.811897729931193      2.9688030271535104
    27   1      5.6705358171400073      24.765462794661037      2.6801636592799816
    28   1      38.180469180146844        25.0790163948794      4.0545021847830993
    29   1      38.097445314348455      24.940076756433676      53.212356736553417
    30   1      38.079769977723878      26.990267280294468     0.36463635838636033
    31   1      2.0224014582026952      28.829494471028031        2.58834262784826
    32   1     0.39047232407420362      29.037114882924932      4.0313354656314573
    33   1     0.10535366008183125      30.616776545794533     0.24795156842280888
    34   1      2.1508701722171764      30.788226251282627      1.4259658588126991
    35   1     0.17013145200017687      32.651874032699482      3.9173925290049953
    36   1   0.0068751993593496423      34.531467215707295      5.4466534827853765
    37   1     0.33658317631667906      34.637145472116821     0.19252400530301642
    38   1      2.4043613332446272      32.820449172953708      2.7493474634591828
    39   1     0.18553982489559687      36.484682706125767      3.9045781856068755
    40   1       2.041061789304317      34.497330270057091      6.7268438614903729
    41   1      3.9872995596588616     0.11626739941018696    0.092983897204692384
    42   1      6.0682444800478113        38.0619071143594      1.3206048598540412
    43   1      7.7835255848400831      1.8534783526713192      4.3410791653560086
    44   1      4.0060946396092785       3.929799110794344      5.5029483641447783
    45   1      5.6863487881607435      1.6760965186926264      2.9229300150836819
    46   1      7.5281705470214142      3.6615364920672469     0.18919896915759865
    47   1      5.5036996842405079      3.6207871534023615      1.5472830534549196
    48   1       3.767910621085556       7.801276538797997      5.6196107336618004
    49   1      1.4875437218290992      7.8299046587333061      1.8492992050307986
    50   1      9.5994574251693212      9.6451966882723497      51.475441559217479
    51   1       6.138571278336693      6.0275055683233187      2.9358672351253281
    52   1      6.1782474787671271      9.6945931750341323      2.9256519331854176
    53   1      3.9315460927195005      5.8398283056843736      52.845090828342521
    54   1      6.2639360152519998      11.657019540360341      1.4598325524363325
    55   1      5.8174299437587553      13.596893197165425      2.6744431280555632
    56   1      3.9059100395338286      13.559780472071061      4.1149436098995666
    57   1      3.9800645786358113      15.339156079396655      54.233662957272003
    58   1      5.7044867986199712        15.4631739127994      1.5000841163687846
    59   1      3.9832876804689423      17.380610500871903      4.2536510858024803
    60   1       2.084974493536452      17.309960556893873       2.867134439044182
    61   1      3.8465971510568733      21.225286276147024      52.994670727563644
    62   1      5.6330703539682556      19.073909200310712      1.0143043344724991
    63   1      5.8016518231555398      20.927951790663329      2.8512890305481284
    64   1      3.8973809461735627      23.079268559770384      5.4507745713223574
    65   1      5.6705284668433489      22.896636099848447      1.5679609590752313
    66   1       7.675542888547854      24.782490982380086      4.0177610947081597
    67   1      5.8268139456519128      26.892922621118544      1.3695800283659538
    68   1      7.2947162379797224      26.610314848044439      5.4006896645067863
    69   1       3.814456616888779      27.126397479262661     0.14959217634844879
    70   1      7.7981666969968666      26.963451782577479     0.19618727416415141
    71   1      1.6575577378946338      26.602438467810515      1.6032137895187126
    72   1      3.6574444111955122      28.543608280211945      4.1358255303520197
    73   1       3.874539218217012      30.735690920831395      54.080226317542397
    74   1      5.6489489900326726      30.525228537069069      1.7862452096887538
    75   1       5.864023569506104      34.486828154918022      1.3546585340996768
    76   1      4.0721952907086276      32.540039056532656      4.4541517277889975
    77   1      2.4987611473996578      34.859645222498742      1.2246526083570055
    78   1      4.2664871002223537       34.62054403953757      54.060934206206767
    79   1      5.8267465185144536      36.175522504829814      2.9892221195427298
    80   1      4.0536494283156701      38.254077554396716      5.7260698472850891
    81   1      11.858599749751225      36.290042151853918      53.002841955212077
    82   1      9.6853761236501956      1.8949397690703931      2.8723195219891515
    83   1      7.8972594556886291    0.035451477845964391      5.7651244820492629
    84   1      7.7802643344271551      3.9381646322514889      5.5326737462140558
    85   1      9.8739840171208719      7.6311070589107981      1.1334972048000169
    86   1      11.559506457557998       3.783348462029287      54.126069247489603
    87   1      7.6752662490486179      7.3112446327702356      54.253487595956393
    88   1      8.1483606989574611      5.1613279323943706      3.7397102905646515
    89   1      5.7288307807850947      9.7407482638255516      52.079758467080602
    90   1      11.630879591374278       7.530233764332384      54.004442298911883
    91   1      9.7759672900716321      9.5359259819301485      2.5857381963695274
    92   1      4.2599602616705763      11.684434711310203      5.5638688100231359
    93   1      9.8645376791640089      11.400091462644951      1.2920548306971356
    94   1      10.149266726610762      13.280362897202791      2.3297232374546621
    95   1      7.9822940320536437      13.378869361486078      3.6779121176616307
    96   1      5.9923179227243608      11.752217178077832      6.9858535693916286
    97   1      7.5629377070002022      15.420016640526507     0.22787328934248324
    98   1      9.7703037093655674      15.490579962475778      1.2355067993960349
    99   1      7.5515603058591365      17.494997203227232      4.4518258655626815
   100   1      7.7295820022533075      19.456071882813006      5.6368351038605082
   101   1      7.6350530050855179      19.477308511524235      54.124654687840298
   102   1      9.4540384393083148      19.139640290663472      1.3827413002710842
   103   1       9.628180672678047      22.894355465826848     0.78507232286547157
   104   1      7.6652805785224958      21.373285912641791      4.0962925810271127
   105   1      7.4269092709086522      23.233508428976716      54.280729997753397
   106   1      9.5169481164740635      24.500298511052122      2.6691219275805005
   107   1      15.171991320223134      24.900086396185944      4.0650646108894435
   108   1      9.4987773673319378       26.76679828405203      6.7841713320218329
   109   1      7.1290667969181127      25.342447118716962      53.141862161243623
   110   1      9.5172879168067439      26.542018904125452      1.2106428509396794
   111   1      9.3504576898943128      30.668482223801405      1.6137669426029662
   112   1      5.5954650338456746      28.762279265350976      2.9989431141545331
   113   1      9.5907893598314971      32.712297553879026      2.8329618163258594
   114   1      11.482969923966824      32.673387425878609      4.1944921988869748
   115   1      9.4633393074267822      34.515905431174303      1.5716187735047258
   116   1      5.8669487358562264      32.396118740067266      2.8677131763246981
   117   1      7.8116365858581878       34.56884312518644      54.172977728005506
   118   1      11.818026610505006      36.443912823122538      3.8910183135006737
   119   1       8.030093923508943       38.03629094060377    0.031010263534949439
   120   1      9.5425970639974622       36.48939401079663      2.7791591696024054
   121   1      13.698597823956501      36.447982219479918      51.792256596067332
   122   1      15.450474007363345      36.133028495708956      3.6880265759315511
   123   1      13.194639104843141      38.018832210764707      1.4348622050453714
   124   1      11.404620811240969      1.8649321554507581      4.3129594222818923
   125   1       17.32774807224925      1.8456536105069072      2.4740793834527359
   126   1      13.446037915371868      3.7883039002509791      1.3632655434778831
   127   1      13.780169660401045      5.5649461048712165      2.8131040562819503
   128   1      10.091199482526527      5.4345386370342093      2.3161918852082057
   129   1      11.591049756545861      9.7984500287752034      52.898778476141906
   130   1      15.551692598077759        7.65432531501538    0.017815700093831318
   131   1      13.789660387732971      9.3904658653188466      2.4367655224843561
   132   1      11.769913788267504      9.2279638736502925      3.8067758156294058
   133   1      13.743528372868344      11.330241212434865      1.3668148432520777
   134   1      13.545590007525403      7.4989421656885717      1.1218334539243091
   135   1      13.131750257096551      15.022597439863596      1.4101471019822949
   136   1      11.608445942258539      13.188413766222247      4.0239638498852637
   137   1      11.542087708365031      15.202883310091419       54.04322411623972
   138   1      13.476102758328473      16.941427261654223      2.6820521293781581
   139   1      13.338588865226777      18.929393296751041      1.4211163145948513
   140   1      9.6107149442258191      17.012680160754257      3.1350802038988848
   141   1      11.556650970509846       19.22333711160034      54.145371878561157
   142   1      11.784270585205215      17.133098741382035       4.341253079768169
   143   1      17.183825468766731      21.148417770412742      2.5568689137882732
   144   1      9.6230557062932434      21.059888037996362      2.6322367938581599
   145   1      11.421399751139456       23.04681773830378      54.028667334039341
   146   1      13.207643497870963      21.090133194241837      2.7514245203521788
   147   1      13.770039401360588      26.701986479560141      1.1636066824690148
   148   1      11.488406044316566      24.482346727565105      4.0687869767429561
   149   1       11.45814257691746      28.898232632732007       52.83810798353646
   150   1      11.828114772432755      26.934093083025637       53.89213804656476
   151   1      15.430623282519567      28.573905250659038      4.1294035716278934
   152   1      9.5119974328678971      28.486580391040096      2.5699942586289795
   153   1      13.525626339774707      30.005257854572008      1.3035068032809238
   154   1      13.289733033325383       32.07352085371015      2.7688177398562881
   155   1      13.540787440152528      35.844854526782349      2.5523435488403967
   156   1      15.344402147701253      32.570950400635617      9.3361921755846033
   157   1      11.536120568921264      34.649385303422164     0.23539296243036464
   158   1      15.606520140930982      34.500013869618584     0.68417044432075202
   159   1      11.017438606463182      34.664948770315945      5.1799319121518099
   160   1      9.7378365894355934     0.10233306207087346      1.5366091883086848
   161   1      15.388691893610499      38.334316056826928    0.061483975757744433
   162   1      17.254317514627679      38.257175428653305      1.2888404329405236
   163   1      19.194279712720885      2.1710951791403663      3.6113050096466264
   164   1      13.234045953562621      1.8733452604553127      2.6168088935850067
   165   1      15.417440957216263      1.6427058633208453      3.8001523423777384
   166   1      17.194843933848517      5.6830396819679558      2.7404815861738951
   167   1       19.17925281202632      3.9207869685881453      0.1360395111576054
   168   1      15.291323760160299       5.602988886927454      4.2567674527796164
   169   1      15.510829721344848      5.8044134031022683      52.887142104797881
   170   1      15.735732581814053      9.2135229868090764      3.7578450346633536
   171   1      21.190241022779741      9.7569706565251746      3.0420081485886485
   172   1      15.234179692745634      7.5697567088803703      5.5395813705645631
   173   1      15.610615278192059      11.382213766952962      54.262134939211649
   174   1      17.093366527236125      10.660607813634938      2.0638540846278137
   175   1      17.254835607977043      12.848509286366909      2.4985266904151571
   176   1      13.581447185320265      13.195841981481776      2.6828932458977506
   177   1      15.297213075979181      14.917161416406147     0.17358073637790319
   178   1       17.13839753588854      15.039282398178068      1.6754246189086988
   179   1      16.802620153046043      17.096104533616838      2.5918496156715269
   180   1       15.34725036432113      15.403067034245689      5.3836190895236991
   181   1      15.301134708232246      18.563987079448712      54.209481629740722
   182   1      15.210793260609243      17.375557908680346       4.152723087838833
   183   1      16.895474772169855      23.145435257933848      1.5181309920699939
   184   1      17.068406164888298      19.111115147713193      1.4217143150349429
   185   1      13.349508986833595      22.890645498825283      1.3219910521523948
   186   1      18.969592729841288      22.927115928263841      0.2675041457113369
   187   1      17.355883030985023       26.45288620835008      1.4063889261019642
   188   1      13.233780698964127      24.701398361654338      2.6573435131889362
   189   1      15.473551883232521      26.685728670471775    0.031005052135833447
   190   1      17.444423682978218      28.164639777308889      3.0084828316767447
   191   1      19.383042321870487      28.737255942585254      4.0254454134209272
   192   1      15.220755565701797      26.586524476198463      5.7556355776716437
   193   1      13.452405699964439      28.080221343875156      2.7721407861709744
   194   1      17.808859143843502      30.231893009264788      1.3181449965282446
   195   1      17.267723983472916      31.910095012512439      2.6815009490994264
   196   1      13.501232088171786      33.898596166006989      1.2825835139195509
   197   1      17.396709132248379      36.123449015062441      51.579815656152569
   198   1      17.595101831952142      34.235813506320262      1.7642734959648698
   199   1      15.196691876622799      38.085975533297038       5.266464642047751
   200   1      15.125855798714253      34.499230038051664      10.635802863769868
   201   1      19.447508191272405    0.087588750396086698      0.2259752819724212
   202   1      21.409095546619469      38.015021371174988      1.5244683038847684
   203   1      21.397495417794236      1.7136080145669739        2.67808078197129
   204   1      19.296189150627434    0.053719402722177116      5.0535315870577744
   205   1      19.382893143335735      5.9319537555832627      53.164631475093309
   206   1      19.357501570251156       7.593625038875139     0.33159326524195171
   207   1      21.167674912891478      3.6822190117677511      1.4701775070831304
   208   1      19.363030337574706      3.6664677036587885      5.0756675195918222
   209   1      18.887434058449223       9.719985790065417      3.7386120296385355
   210   1      19.254579724944104      5.6244269622197116      3.9552719623284789
   211   1      21.325107955694097       5.704863952001836      2.9442976727345105
   212   1      19.329172947712884      11.415814696795929      5.2530011349892201
   213   1      19.316605774255173      11.430832661092289     0.27676342036697854
   214   1      21.065658823543465      11.492873195455653      1.6523213463581441
   215   1      19.404857721651069      13.288330366027521      3.8969065281299891
   216   1      19.105997049852288       7.872696940436998      5.2183430639039781
   217   1      18.994815799035425      15.020817922425463       54.29344385707325
   218   1      21.425462430373816      13.701618228019619      2.4488353978219477
   219   1      21.128734658480528        19.0904172167754      1.5704673639660895
   220   1      20.999800652723234      16.860010925181591      2.6911965562727551
   221   1      19.485224041003786      18.928124038650516   0.0030329813873890988
   222   1      21.202726869316333      22.914354028584427      1.2851842493148968
   223   1       23.15320920805809      22.553289044978378     0.19377431205377887
   224   1       18.97355985490767      21.037778797658518       4.172583718214832
   225   1      15.143555543871813      22.756901504475653      54.220807977800405
   226   1      21.068398842618006      25.342278661022515      1.8819894167201705
   227   1      20.400625294885064      25.061302346606798      4.0362206951158459
   228   1      17.387097107096327       24.96632112735076      3.2941338205359418
   229   1      18.954430082918698      24.837080175358626      52.908224978288715
   230   1      19.400253166217468      26.272600340165106     0.60431103766061489
   231   1      21.291958374494953      28.819148011423717      2.4033458759342023
   232   1      19.388967625483854       32.50942676633634       3.912229412616159
   233   1      19.450936424540707      30.337955416746457      54.032309327124899
   234   1      21.373883385745597      30.582954039695654     0.99856619460314067
   235   1      21.277188517154489      32.264948808112656      2.5878748830633853
   236   1       21.00592757267669      30.928839091785967      6.4893241662854972
   237   1      19.295011395039115      34.484991677020822      0.1317794546299752
   238   1      20.724413686490301      34.470033875217403      1.9057316582941988
   239   1      21.258679111700406        36.2796244032507      2.9685689542433473
   240   1       17.38697828144219      36.459611984609467      2.8142557314223149
   241   1      23.298280344483942    0.037068554223470343     0.10806076094395373
   242   1      25.294382082999796     0.14914220243553361      1.2998122573949669
   243   1       25.31718261842942      2.1404008741779483      2.7165496841135326
   244   1      23.436217469755679      1.9748400671475741      3.9409908657729593
   245   1      23.317606079159717      4.0287877528793814    0.044959237344175992
   246   1       25.28994741989716      3.8180077177190639      1.2294512885693141
   247   1      24.996237116837772       5.540261834249824      2.8831612688912269
   248   1      23.068048672963158      6.0925632227396873      4.3973916185120396
   249   1      21.268559770847922      7.7679130750648673      1.6913317980882654
   250   1      22.945774890885524      7.7659637059437028      0.2109398858885127
   251   1      25.046094213292928      7.6422326626367134      1.4761664660248597
   252   1      23.155226945172164      9.1378171653760898      3.9040101610054974
   253   1      23.001595448058886      11.453973110787945      54.201531080607033
   254   1      24.956067082727628      11.259781807850208      1.5253991318772158
   255   1      25.225734426292782       13.16316993859895      3.0787505847596917
   256   1      23.146714388072915      13.309205430347392      4.0881690206413408
   257   1      21.114247341170014      15.385191629973633     0.84804745339683973
   258   1      23.146595972350433      15.156373817654851      54.072043410122063
   259   1      24.667482091839513      17.120591185468612      2.4303856592789321
   260   1      22.934473647582923      17.043517264807249      4.0796045635797675
   261   1      22.867489826856104      19.123692275642963      54.172684578002254
   262   1      24.452518439810792      19.223287341199182      1.4897753750066027
   263   1      26.594465556237747       21.05812427401127      4.1956134855228582
   264   1      20.947148445542087      21.295564599375449      3.0540451600445317
   265   1      22.837496632170811      21.011557450605284       52.76813619731665
   266   1      24.708573400536384      20.993400832877111      2.9143310447737343
   267   1      25.050857237791835      23.089139127555768      1.5887818639247273
   268   1      22.871432196284861      24.740571953650896      4.3031293839719522
   269   1      22.819892353013298      24.408102271284818      53.064821294096433
   270   1       22.52900997494466      26.678380350648435     0.01653166331884676
   271   1      24.521834379889199      28.467375063449389       2.639123455198003
   272   1      26.648873825126849      28.677978833665989      3.9135556145311394
   273   1      23.356808239790617      30.542833884975146      54.098996870794196
   274   1      25.126233083254462      30.546212454682617      1.3748685963430163
   275   1      24.840226449639385      32.547525272190299       2.596131544941239
   276   1      23.148098101162567      32.344124335716081      4.1146728630362563
   277   1      22.824824161123104      34.363243770998196    0.011074478747298149
   278   1      24.916437938687984      34.453913142488517      1.1201488004987044
   279   1      25.346850223553417      36.267427205071499      2.5421696234147793
   280   1      23.312223680751575       36.39539756765749      3.9496291964810104
   281   1       27.10941465693713      38.309858211428853      53.903435702118941
   282   1      29.075713305217352      38.211286618848739      1.0881257685697958
   283   1      28.886845100327694      1.7733529034586344      2.4649185938805322
   284   1       27.27882990906987      2.0264016667554192      3.9392525532486249
   285   1      26.957619425899836      6.1613073945123782      53.026612464214637
   286   1      27.354917091616969      3.9093428400060382      54.296649202947052
   287   1      29.347781775043472      3.7093627859272598      1.1546537533209524
   288   1       29.14225475694311       5.343886631013973      2.9020249798854696
   289   1      26.597549751971556      8.0177767914811877      54.156638367028947
   290   1      30.903452787933848      7.3572257566196102     0.16051430704998212
   291   1      28.921960703199918      7.5895646130116381      1.0393034296375721
   292   1      25.289693705348444      9.4434149418003432      2.9362141654657785
   293   1      26.696984004278228      11.670323799479872     0.20703085358542225
   294   1      28.952913330022046      9.2610970156680477      2.5502041560399564
   295   1      28.832825464307128      11.188409953945561      1.1132860047627091
   296   1      27.038670334267515      12.795853754667524      4.3528421671617581
   297   1       24.86123774395498      14.803166884368158      1.4158644475786655
   298   1      28.571724303798458      13.058660166676269       2.481899805373792
   299   1        28.7976577672727      17.172207498124607      3.0482709962229113
   300   1      26.618612571374523      19.142410057719363      5.8311819858455021
   301   1       26.57582221313783      18.976935132351752     0.39073668961198127
   302   1      28.793438215543489      19.003581965808621      1.5956089576154338
   303   1      28.819170605725411      20.922669364286619      3.0323051766575304
   304   1      26.894849266245366      22.962309061534423      5.2141863151204477
   305   1      28.841767115755307      24.975870109976814      2.7438810216257155
   306   1      30.640904866113189      21.342522062281457      4.3835989490506657
   307   1      30.685614099160968      24.968283634679551       4.153528435204338
   308   1      24.891707941911751      25.166784459749323       2.561852957152825
   309   1      26.692920878756727      28.266943950988633      52.705702796766268
   310   1      28.765099861258264      26.761630552282707      1.3928281127686799
   311   1      24.578817651020383      26.868295453751987     0.96176799806412494
   312   1      28.705875443193328      28.786228650752726      2.7673734797606686
   313   1      28.529055984808643      30.605154570196312      1.3808536225704302
   314   1      30.411592652233391      30.785283186116086      54.252030539888729
   315   1      29.107773759929373       32.61861827833107      2.7101474603354392
   316   1      26.887348944055006      32.602430129556453      3.7102219575832107
   317   1      27.046688924651693      34.310050094759205        54.2392644256838
   318   1      29.057705492772065      34.808274156129457      1.3668041599820431
   319   1      28.991427610368195       36.80501868034073       3.047706665908529
   320   1      26.900361094198889      36.571776039922945      4.2614171604493425
   321   1      31.092089429666995       0.144884346471155      54.049029434776642
   322   1      32.875437812554324      0.1711635121026224       1.416317473515242
   323   1      32.650242825932608       2.055988733497367      2.7984233881545602
   324   1      30.606309530837667      1.5848700312431525      4.0636786219176182
   325   1      31.080035495667421      3.5269478484157268       54.14938825171734
   326   1      33.032972027627238       3.707809797820266      1.1147660786878295
   327   1      33.026104704114857      5.4832689732732609      2.4878063273915565
   328   1      30.634911205921689      3.7174677256124635      5.3152943068898519
   329   1      32.887399000640578      7.3886659991946138      1.3687283763687899
   330   1      34.858878270160815      7.3506318639726009      53.805034921952462
   331   1      32.476458666831931      9.3302768597939068      2.6643167849216649
   332   1      30.699150794995681      9.6518714883622554      4.0791711218891784
   333   1      30.735672609956428      10.984645229293076    0.037081024104759282
   334   1      32.848201738232973      11.364268787840308      1.6520669285655563
   335   1      32.421156415859329      13.430335307673628      2.8170096042422501
   336   1      30.480510084079938      13.299317822462719      4.1128067559368136
   337   1      28.484045114543818      15.197455596202506      1.5409066464363399
   338   1      30.504245624374033      15.438860723465659     0.43467451437882104
   339   1      30.790840006243847      16.985799500810408      4.3032897021931147
   340   1      32.539047553117818      19.442558749784737       1.496977669549802
   341   1      32.453730979685595      17.468717427615505      2.8882014493923864
   342   1      32.313158142704516      22.973629978305532      1.5169229513601055
   343   1      32.456212556703164      21.171863848623321       3.194468680064916
   344   1      30.660260034565464      21.036168804930664      53.218497593579805
   345   1      30.675440770173605      22.904287694860734     0.31017385195394787
   346   1      30.435431971356671      26.802750446265904      53.886384797170741
   347   1        32.5444070413688      24.993733493543953      2.6286786724027036
   348   1      30.841159436592079      24.808869198084025      52.520046993174397
   349   1      34.195973940813239       26.65494217624337      54.250129580703486
   350   1      32.371722397433537      26.950848588154969      1.0977306665769766
   351   1      30.474973423034328      28.882712411594223      4.0474364655186017
   352   1      30.914619513572511      32.614742763398695      52.737544574288989
   353   1      32.517712991858311      28.666466350225605      2.8187660864433979
   354   1      32.845943095404117      32.591065194815485      2.8471086645330832
   355   1      30.826696986823102      32.877641078627931      4.0985774154073757
   356   1      30.807297201560502      34.465822420152946     0.12656816924894637
   357   1      32.791475662165183      34.631220391054214      1.5890730911906172
   358   1      32.898708268221291       36.38609084289525      2.7895520875134903
   359   1      30.994841016185582      36.592904828761405      4.2326526985080228