dump/Si_1400_5/steps_51 (written by ASE) 

3995 	 atoms 
1  atom types
0.0      38.395898218429522  xlo xhi
0.0      38.395898217999999  ylo yhi
0.0      54.299999999999997  zlo zhi


Atoms 

     1   1      38.290129417885737    0.089575694281795668     0.24220272586918576
     2   1      1.7189005505885426      37.975576732753488      1.6444814100037684
     3   1      1.6677142427682716       1.802619330672101      2.7273484320868184
     4   1      38.107865256578016      1.8333338253470914       3.888799446502583
     5   1      38.366513434974401      4.1630869648593531      54.160204634021767
     6   1      1.8008037725719823      3.8654084564948477      1.3295033800947276
     7   1      1.5103917974736674      5.4828458245684564      2.8263553734199025
     8   1      38.086487916231881       5.526172038975508      4.1034594647949039
     9   1      36.579085689037271      8.0433279244233074      1.7134619516904861
    10   1    0.083731699863821299      7.9455401874007636    0.095949817813561628
    11   1      1.9426241036778422      9.6354842656219297      2.5978896094125816
    12   1     0.17109147261474203      9.1782541995950222      4.0922856685766895
    13   1      38.254959160313767      13.502874835508214      53.056514639318813
    14   1      3.4420484223499805      7.5943588680092304       54.26724470178786
    15   1      3.6871428607724583      13.521023066702309      3.8116358712678773
    16   1    0.015556725512419226      13.544050068757997      3.9630114133421652
    17   1      38.331219065610917      15.317626013315525    0.042175123614686061
    18   1      2.1796161384425234      13.683522510810734      2.2619135082026127
    19   1      1.9358745443780563      19.162260102706064      1.1814418645622005
    20   1      36.564220614049667      15.585516234513344      1.4701199725882159
    21   1      38.341399701379153      19.570617449424343      54.285432871515049
    22   1      3.8581673142040396      21.231086446354499      52.780308293341854
    23   1      1.5388396243654516      22.940701665474151      1.3621190867617337
    24   1     0.31654476479123977      22.813462418793147      5.4357241259945761
    25   1      38.064564905851526      23.023968883094781    0.049384715263624909
    26   1      0.2220006353165612      24.997900672883297      4.0190777263740403
    27   1      5.6985324817864429      24.908583539996183      2.2954227153774136
    28   1      36.662660230791303       25.11687132389098      2.7202588356005224
    29   1   0.0060384638109858991      24.847743120030202      52.643933751418508
    30   1     0.13163371179565264      26.638335681910775      54.023481578225336
    31   1      1.8192542535956968      28.905107342234444      2.6901764413751521
    32   1    0.094616741343661118      28.593603336069922      4.3762083991206371
    33   1      38.270465080307254      30.516564179057095      54.196273623250143
    34   1      1.9373757225481834       30.87241001997581      1.4421573020173351
    35   1      38.391212120348982      32.393953049027715      4.0530306140517505
    36   1    0.077798642015415365      34.286329262352801      5.5024401417554287
    37   1     0.21034570471799929      34.300989213443593       53.99366940778684
    38   1      2.0863825088424828      32.416635638970241      3.2523727990404518
    39   1      38.196233433322789      36.238876497602831       4.154678194024382
    40   1      1.9870924952827203      34.594246735043633      6.8952762789927204
    41   1      3.4495479078800457      38.249059241291093      54.159627975570942
    42   1      5.2997965929308508       38.28871680578407      1.3089620802178394
    43   1      7.4583563935406794      1.7747960866477537      3.8927137625669812
    44   1      3.5517455140648879        3.67188409283307      5.3388373365443496
    45   1      5.4989981007049202      1.9618284610272989      2.8567375336316774
    46   1      7.5033881130204358       3.691227757339179    0.039187923705344463
    47   1      5.6435954636290635      3.7761923810450919      1.5232283820103036
    48   1      3.8922212253293829      7.6389472080041383      5.3871035197876402
    49   1      1.8444713599079225      7.3916541704608081      1.6985571546087506
    50   1      9.4975864485938626       9.532813550912719      51.587084427184443
    51   1       5.264466943950592      5.6592571031279517      2.5920696001277537
    52   1      5.4273365308851238      9.5360176912044334      2.6439916159640924
    53   1      3.5811038267898896      5.8245365827903823      52.984082324185451
    54   1      5.5800136301976249      11.513482917813729      1.3545083661116544
    55   1      5.8776571322961431      12.985988751264628      2.8906036634018299
    56   1      3.8554029900321569      11.568941477113706      5.3216248183312134
    57   1      2.6290063315876777      15.541435724385181     0.83025325856712084
    58   1      5.2711658117415361      14.728256798034433      1.4835738184294427
    59   1      3.8250379799047489      17.133988092181735      4.0098641882370663
    60   1      1.9831453472084357      16.985874237068465       2.342415369494518
    61   1      1.9294028211016954      21.236180882521762      51.267128531921237
    62   1      3.9666898707241871       19.48925210325223     0.29655263186143677
    63   1      6.3062136758277809       20.85281174779923      2.9712949996385065
    64   1      3.9622877298168957      23.220839551150913      5.2919410902242952
    65   1      5.9522636658033656      22.621301729161456      1.1338978167404914
    66   1      7.5793498075315764      24.881414639906918      3.7429100821214325
    67   1      5.9059035065568359      26.772183242203262      1.0111188934958844
    68   1      7.9182854377685175      26.637386403570073      5.3344595867953908
    69   1       3.924031883784072      26.903622740261067      54.145697026241876
    70   1      7.7331689886331985       26.41547028236964      53.883308545178409
    71   1      1.9390846412310656      26.979195806263604     0.98667722732769769
    72   1       3.957142009620906       28.81642526591629      3.8723248086554922
    73   1      3.6955219140740017      30.947662289310355      54.114524049887883
    74   1      5.7105792691260016      30.777250781980307      1.1639723913423496
    75   1      5.7920458604796883      34.879131008931772      1.3229717284313443
    76   1       4.239933598345111      32.952020827850326      4.1960695045331713
    77   1      1.8436237917192222      34.221437577458111      1.5330792380385543
    78   1      3.7357903715667762      34.629057280959103     0.19149409985966512
    79   1      5.6005605848616256      36.722014058360898      2.8551108926853326
    80   1      3.5960332144931391      38.253443370408498       5.616707679342805
    81   1      10.948807715006399      38.269977468669971      0.6123009892287743
    82   1      9.2786460912559878      2.3890726498795716      2.7213150411151918
    83   1      7.5335709809699214      38.237971756263633      5.6050980190104349
    84   1      7.6818536225680649      3.7022232914770306      5.4214461856024148
    85   1      9.2327628415533685      7.3073295488911212      1.3504208442561767
    86   1      11.363276658480888      3.7764951348611731     0.01411629163750377
    87   1      7.4342800510386402      7.4871450658454082      54.097049379482691
    88   1      7.3802099396257068      5.7246017594962453      3.9978419683435518
    89   1      5.6843099215743154      9.4087169202869774      51.384109317752667
    90   1      11.124117564826301      7.6282201693568474     0.12667323374244005
    91   1      9.5045308527067611      9.5702794047219566      2.6729833636836693
    92   1      1.9342922320936713      11.571844222451912      6.7900784295418779
    93   1      9.7168761561434405      11.567921481801886      1.2938468676696406
    94   1      9.6801821574711049      13.546177690889664      2.5014661352759182
    95   1      7.8846769445937417      13.306754194429034      4.0713449065725094
    96   1       5.648270179469387      11.216163253631686       6.502000334010221
    97   1      7.0579469737078036       15.29013997798052    0.018044604335739196
    98   1       9.030642117883648       15.28814629495696      1.4400540537629942
    99   1      7.5979758017095484      17.164591009351337       4.008222105647679
   100   1      7.6328062911066068      19.391325039421229       5.544693457555617
   101   1      5.8892698655591289      19.039994579043558      1.4992500656452974
   102   1      9.7184073978180816      19.227872681714317      1.6910643913680716
   103   1      9.7740375004645159      22.681586800845078       1.315939946307946
   104   1      8.1387115958687897        21.0974162886403      4.1706189977776464
   105   1      7.9254850990026666      22.629636038221964      54.110042995925888
   106   1      9.5748555992201734      24.924501428148314      2.5043681032051484
   107   1       15.46366362683672      24.651281485328731      4.4017307574184397
   108   1      9.7553415455878678      26.859541371935169      6.8660466455197797
   109   1      8.0953764087935305      24.421952547429711      52.362920243073724
   110   1       9.617598435832889      26.780521401263062      1.1482922176594546
   111   1      9.4877183360988138      30.562318966801168      1.1859177752092471
   112   1      5.9114694672784704      28.777129071573903      2.3197817996688386
   113   1      9.6581078753599634      32.421644607627478      2.6143737884145013
   114   1      11.063426831789799      32.266959657814873       4.204238297525853
   115   1      11.469468296455799      36.632220326092643      53.230638370337012
   116   1      5.8205332991224799      32.594945964783804      2.6683302472866242
   117   1      7.9641794733698816      34.533362881198521      54.278353390735205
   118   1      11.430520573004197      36.136693045020721      4.3156058603544478
   119   1      7.5569432909073084      38.113809497193493    0.057827471582777172
   120   1      9.7175682437378299      34.384663326127018      1.6848308049943066
   121   1      15.169323548181831      36.448404328095123      53.217552561673052
   122   1      14.965591411976025       36.39065490884618      4.3127181281160363
   123   1      13.228513354272067       38.25691622247102      1.4353592909225061
   124   1      11.733044821044864      1.6503131204270691      4.2672187005462785
   125   1      17.009691867922374      1.8745702159940256      2.7126547126640261
   126   1      13.116992518623571      3.8635890656305776      1.3806676999476717
   127   1      13.313163905227647      5.7968400080570133      2.3977944956313664
   128   1      9.4990903969882616      5.5890818468450272      2.9197500455890695
   129   1      11.499032148129377      9.3399504228975143      52.736876854503585
   130   1       14.93617279094599      7.4329674969875015      54.087376003075164
   131   1      13.536563784946551      11.607212286562573      1.4115221063210344
   132   1      11.320482642139458      9.6828544827576124      4.2291824083614982
   133   1      15.350284475483823      11.643479489542873      54.220299066355921
   134   1      13.317934822911729      7.8500042650210027      1.3539480779561577
   135   1      15.225642555438089      15.363197591446928      54.199342585800764
   136   1      11.336930046230178      13.267333405845925       4.159404634795508
   137   1      11.118119679340978      15.379875822064523     0.10300854463184829
   138   1      13.188702591692886      15.528225058014321      1.2482090213816024
   139   1      13.696485802730368      17.646832561515637      2.1221863395560505
   140   1      9.6383930247073728       17.16638675109364      2.9067037438409207
   141   1      11.452637133785984      17.240992987956048        52.9886648067462
   142   1      12.022541188409809      17.273505763962749       3.931537108044405
   143   1      17.603002575282652      20.895612051733785      2.8141124805798641
   144   1      9.8498226863409926      21.141287956681367      2.8896797899645223
   145   1      11.641826587533911      23.029065239896596      54.269697818431617
   146   1      13.695908054829536       20.79276481185925      2.8860876090954863
   147   1      13.407459281666592      26.938984517825791      1.7338541807351835
   148   1      11.661832704827397       25.01910456903147      3.8687688656897876
   149   1      11.588839183882333       28.71221403935645      53.169951327465988
   150   1      11.691248232056408      26.692042868794594     0.33347153571525023
   151   1      15.714216249415276      29.106092217133753      4.4821253670105508
   152   1      9.6703259826347896      28.559529519702135      2.7530725926262787
   153   1       13.67279948623861      30.500266266619203      1.5606015714041523
   154   1      13.145916054252915      32.346273296033416      2.9843937894178909
   155   1      13.179805272170599       36.25011390907617      2.8916207090546444
   156   1      15.581329113604419      32.735591658466852      9.6574829516395173
   157   1      11.227766320282784      34.518838904242408       54.29159156130067
   158   1      15.562838981242523      34.446981697089981     0.41884920076312249
   159   1      11.531548314284688      34.300585256578877      5.6387768130949318
   160   1      9.5546844779407785       36.16626459137585      3.0021405030481447
   161   1      14.997901806107812     0.13291374882237919      54.256155125244511
   162   1      17.003922820316799      38.370133720210106      1.6276095279226417
   163   1      18.943479469249809      2.0618654228782658      4.2341363345952345
   164   1       13.33512580848244      1.7539626393267069      2.5808547349623501
   165   1      15.286970529112361      1.7381209842500565      4.0625591985557907
   166   1      17.230593802864639      5.8678948432293438      2.8510995918708759
   167   1       19.36362361722475      5.5271563632076708      52.984943625482579
   168   1      14.949857092492801      5.7908991872346816      4.1717058703498893
   169   1       15.36938920803766      5.6247959690595017      52.780479069477472
   170   1      13.572600423708302       9.809620303753098      3.0596903689155179
   171   1      21.285325901646143      9.6390312957520781      2.6854946585728703
   172   1      15.583688773331888      9.9748264685851087      4.0967743271744919
   173   1      17.280369584193203      9.6934998704094593      2.5641228786242234
   174   1      17.054439044682336      7.6557664026862673      1.3079113879406714
   175   1        17.2952293881511      11.464441959838625      1.1141402385259562
   176   1      13.196960169016794      13.409297375180435      2.8450567602008272
   177   1      15.837789808653742      19.011407000557512      54.056877353510835
   178   1      17.250736702496976      13.262722145584247      2.4673058439781692
   179   1      17.148887090782345      17.116986824705116      3.3279622896047183
   180   1      15.036335245832056      15.295996982237899      5.2144710402029562
   181   1      13.788680407477615      21.111476051921848      51.631578690739858
   182   1      14.717731261063339      17.625320733184182      4.3998932884386468
   183   1      17.281087632160176      22.963105870620559      1.4596500895623519
   184   1      13.663829469937232      19.591610307914507     0.71777156362609462
   185   1      13.451944417560437      22.613346650696496      1.8052075869744035
   186   1      19.383382843244846      23.132549604785908     0.10371498288330948
   187   1      17.363098765778695      27.202520479355396      1.6985900294725744
   188   1      13.795189670767844      24.720043622529417      2.9863327562967332
   189   1      15.525782491715136      27.175978468931458     0.31576076154519789
   190   1      17.725278303303714      28.485064419051085      3.6728135986253867
   191   1      18.999059357554831      30.394091070489218      5.6205933384839915
   192   1       15.51858755190864       26.77927833392118      5.4448810571036423
   193   1      13.702417540945449      28.698983057728203      3.0063512796862275
   194   1      17.283214674099131      30.325656453964921      1.7449869458170286
   195   1      17.144761359756497      34.550332288828209      2.1476375577723297
   196   1      13.195561349618844      34.124563453785882      1.0349036097956508
   197   1      18.994361522294067      36.612964050630275      53.414252663399374
   198   1      18.848860680264412      34.653957073645131     0.38565532349024367
   199   1      14.858498414024709    0.066563496896657137      5.5068577698026884
   200   1      15.116095754164489      34.712251478734679      10.768357033203612
   201   1      19.119649574916991     0.11454695187404978      0.3005962550634308
   202   1      21.160670960063452      38.291726681754398      1.4014174772595742
   203   1      21.004704766050192      2.0546531557921184       2.483569011137492
   204   1      18.861617662763049     0.25871243054981602      5.7864223938903026
   205   1      23.076536095236577       5.793307655271585      53.144530240325771
   206   1      17.384307613273773      5.5904172382823516      51.423437062284883
   207   1       21.47597072229879      3.9819050011189252      1.1815159543075544
   208   1      19.562300753113465       3.999424011727934      5.4063268790157943
   209   1      19.252635152714554      9.6075084866044858      3.7423618996821473
   210   1      19.473162391924205      5.5359654951593793      3.7291838286730261
   211   1      21.282788025570728      5.8788427007512993       2.377092231502254
   212   1      19.522317600820141      11.184061746945238      5.3080713763363407
   213   1      19.014301695578553      11.559273338717833      54.104920042552408
   214   1      20.983711950595378      11.756398391170336      1.6054821319237935
   215   1      19.224511429540449      13.163985315030947      4.0318736459016922
   216   1      19.151555565035409      7.5914721649588977      5.0744479090052401
   217   1      17.307910683570711      13.290369754816236      51.446631316903115
   218   1      18.999304931748512      15.474825119100561      53.909997845508805
   219   1      23.138384230819536       16.89433487056764       3.625766009440949
   220   1      25.197993340454254      17.185419303810502      2.3972557885097792
   221   1      17.371770316908641       18.84732007616028       1.482595718292796
   222   1      21.373538908845493      22.885491385905596       1.402205240543754
   223   1      23.342350024316335      22.853429564120624      54.178563928589838
   224   1      19.630882939888444      21.034863798610235      4.0863193585946194
   225   1      15.260789077445844      22.804344035653394     0.08088506748231343
   226   1      21.241514985614149      26.822863888126488      1.4878392568474943
   227   1       21.28081594273532      24.854023317656186      2.8168038124188102
   228   1      16.955672433840427       25.06092000555731       2.727755459464936
   229   1      19.325248124085533      25.263262251562825      52.870229944324379
   230   1      19.143251555561811      26.961404772191912     0.27346059301387404
   231   1      21.135511811890701      28.773510248534553      3.1138872056661158
   232   1      19.278674671572443      32.565363374058776      4.2319177563668724
   233   1      19.339955780405656      30.759603152518256     0.81749492407599034
   234   1      21.408010494196969      30.934468606122145      1.7795829057485206
   235   1      21.149635895941675      32.864684541368874      3.0136296761956838
   236   1      20.681658885142063      30.969223656975981       7.151443323222173
   237   1      19.201289019018052      32.473616027693218      53.474746661067378
   238   1       21.07447566010779      35.069803180049796      1.5046782708985225
   239   1      21.211939519435159       36.81173986087564      3.2480321121621141
   240   1      17.143603039415453      36.620738738011092       3.301914199365227
   241   1      23.053200569638673      37.902824408139779      54.203652925368345
   242   1      24.882884062961153       38.18003130884923      1.3309868863226035
   243   1      24.956850883957078      1.8061617283529452      2.6603598102937687
   244   1      22.908621011043838      1.9673211917500018       4.184101938283356
   245   1      23.227679247773214      3.6983144318930643      54.091174757013285
   246   1      25.024201183519281      3.7368213345772312      1.2110375195684835
   247   1      25.001947594599439      5.6069403215816687      2.6423264189684659
   248   1      23.089340467772992      5.8198195258365653      3.8660013573617649
   249   1      21.243453033910047      7.9562532766418403      1.1641579385792713
   250   1        22.8496626737047      9.6852453499491293      52.683782562179054
   251   1      25.077786245949927      7.7214348814191727      1.4942198322976776
   252   1      23.152480888790599      9.6630864373246617      4.0478121251012364
   253   1      22.676342592266206      11.596012983086631    0.035288652341353095
   254   1      24.710894556071771       11.55086276422761      1.6058407319244572
   255   1      24.546903066226424      13.666884102407819       2.346074211106671
   256   1      20.924215677486671       13.89053134897182      2.2881611368866195
   257   1      19.054940672800925      13.565140926285538      52.771091688716417
   258   1      21.052027191606701      15.637124260914909     0.61890230895057741
   259   1      24.936387945993889      19.326716534791274      1.2827048530114993
   260   1       22.90455549501883        15.3346304423877      5.2050283767619492
   261   1      21.222793485268461      19.256023212724628     0.95982329246564613
   262   1       22.85840433582834      20.999669865368105      52.752721154102389
   263   1       26.92058340474043      20.950180554880568       4.446577641812028
   264   1      21.370528966580029       20.81522153070275      2.7532475186399568
   265   1      24.592953406170441      22.876470715137788      49.854335236448385
   266   1      25.290023914324774      20.936333598679823      3.0274912379238468
   267   1      26.098116628739163      23.048462960580657      1.9326784941894652
   268   1      23.143489672219204      24.863386912253503       4.218274825658912
   269   1      23.015906632478924      24.876267080612358      53.127760289739669
   270   1      23.267387806336426      26.700723878406837     0.70346865901740119
   271   1      24.940565943533834      29.197735482543518      2.8853813388969232
   272   1      26.924346737076124      28.424704425810582      4.0199559584092732
   273   1      23.280313507707021      30.767953369661416     0.25412064993696509
   274   1      25.035980567396159      31.065390160964117      1.6212733584823495
   275   1       24.99946829365409      32.954955749016932      3.0338557497445233
   276   1      22.817515758922553      32.845298741441901       4.526469204615557
   277   1      22.904571201948567      34.282703758572033      54.209595803638855
   278   1      24.772084826247134      34.653101281583773      1.4234374117317214
   279   1      25.084740372197832      36.534923577847231      2.7631515719563726
   280   1       23.23324613539064      36.473528611814054      4.2549915313161488
   281   1      26.928027348593819      38.265106592305258    0.031341727965525458
   282   1      28.812255075376161      36.768545602368356      2.8397370058893565
   283   1      28.674938873771087      1.8197549079374817      3.0242117955728172
   284   1      26.595911640176634      1.8578983729571896       4.058718736507104
   285   1      27.076127470488952      3.6481378176336796       54.18419588747188
   286   1      28.728522862284734      3.8678371870368919       1.645865532503817
   287   1      29.051450078126695      5.9586627237719032      2.7593968365335875
   288   1      27.164074567585807       5.403789291754018      3.8757176822846886
   289   1      26.990465910263936      7.7319248116117274      54.268388827397452
   290   1      30.646789220257567      7.9325621360596728    0.048145535240553282
   291   1      28.903691078925771      7.8472264574837123      1.5092984408782391
   292   1      25.281114605024317      9.4481370437411218      2.9931100445676062
   293   1      26.265079323984466       11.68648605155575   0.0018469303152073727
   294   1      28.932170770719264      10.039803432574272      2.2791158857263656
   295   1      28.326319576335415      12.041325773675931      1.2153822668721899
   296   1      26.618860222748591       13.48407532185643      4.2513837702714001
   297   1      24.467928803610281      15.500597410876361     0.90987872249126112
   298   1      28.711745428160889      13.463863944361647      3.0121198094362196
   299   1      28.747920283570583      17.458260956147939      2.7440666406630703
   300   1      25.143435847463035      19.163690354292545      6.8102011363246815
   301   1      26.723785476239211      19.875273216478213      54.008329074805722
   302   1      28.424105309250589      19.337636877132766      1.2142643285650847
   303   1      28.662732164762964      20.995865286666252      2.7265603486607364
   304   1      26.918368312373964      23.167335346816252      5.4574844600235553
   305   1      28.904700386300583      25.521402881379352      3.0210665470175613
   306   1      30.946536554298586      20.802566886386238      4.0628354725339495
   307   1      30.975316738310674      25.042019280759607      4.0166373096319825
   308   1      25.137210609627243      25.080271106693168      2.8189681000367384
   309   1      26.636231656883218      29.090016525944556      53.270774679170138
   310   1      28.905862982186587      27.221003759160624      1.0064452717071619
   311   1      25.057243876194846      27.148341582998199      1.7716251669196021
   312   1      28.691945985281041      28.705421707408657       2.778125917731618
   313   1      29.400877471185886      31.037267748104181      1.9091164356419672
   314   1        30.6928593192482      30.931533223799295      54.297769773362646
   315   1      30.735645375902013      32.551219352690318      4.0509427408934036
   316   1      26.908690861189754      32.676989606702662      4.3658528636664986
   317   1      26.929077950687173      34.000402898821271       54.26427134875064
   318   1      28.553803711881947      33.081312469129465      3.0006091241908415
   319   1      28.801118906320262      34.807068163240814      1.4864567656451662
   320   1      27.133268490708836      36.519717385168022      4.3445488026809596
   321   1      28.825031869686814    0.056917085028317223      1.3536060329034389
   322   1      32.731919033394419     0.36142404052645349       1.311573506618233
   323   1      32.447881580961393      2.1316798789126077      2.7964418304568666
   324   1      30.580019860869708      2.1666520166918382      4.0618137592973103
   325   1      30.672418744297651      4.1017606194758702      54.063282271447278
   326   1       32.39339574190307      4.1764489080244713      1.3693678488039955
   327   1      33.025887925946648      5.7267362731080649       2.840894205391316
   328   1      30.538489646989941      4.0354604176195021      5.0969259559972411
   329   1      32.406218036853701      7.6371758599752217      1.2752633242730196
   330   1      34.624000822646764      7.6767850260533024     0.15393432814454425
   331   1       32.74078548104653      9.9098541015700494      2.5766371290479584
   332   1      30.782900371915908      9.5685730448568105      3.9751820578886621
   333   1      30.108337480335017      11.932219723974869    0.079950870814241404
   334   1      32.532235937658186      11.561394414627607     0.96297500178214701
   335   1      32.868700042421075      13.265703596526226      2.5458980561364686
   336   1      30.693490408815482      13.247673809471452      3.9570419061017543
   337   1      29.174611088780072      15.458984101473773      1.5719322160571347
   338   1      30.721524029463627      15.489382297720429      54.109971614466261
   339   1      30.683728911282692      17.094513792129447      3.9141645521571391
   340   1      34.702008841662739      19.314901593576462      53.915676148058694
   341   1      32.863279965389374      19.141333163941763      1.1939150904857554
   342   1       32.21859556875738      23.028769415074397      1.2821786181395944
   343   1       32.66697551543141       20.99145682096599       2.481443531657443
   344   1      30.238534747551196      21.347982938015612      52.810361838882976
   345   1      30.508710943147374      23.107560436037051    0.031282522411333932
   346   1      30.896498717533163      26.875280698415665      54.140187277326056
   347   1      32.629961505085909      24.878277369441804      2.5522024214104473
   348   1        30.4359254735806      25.093812326438666      53.080457952172608
   349   1      34.980718539068626      26.842865389269743     0.11655978397508289
   350   1      32.696654412697619      26.938972883891246      1.2605414192381457
   351   1      30.651981187662336      26.901957087335152      5.4175689387793788
   352   1        30.7396870586368      32.954326224973855      53.028175481657726
   353   1      32.769517901974325      28.872209642976625        2.97574656253046
   354   1      32.350537907386553      32.704957341139902      2.3775051573993324
   355   1      30.815625118692701      30.555082377956062      5.4424176359246683
   356   1      30.456560752037003      34.929260047566444     0.13059841461202931
   357   1      32.956428548240929      34.652385253046852     0.97391966624534076
   358   1      32.634552034785024      36.354098496164454      2.4683992992013923
   359   1      30.951705934158252      36.672225374362178       4.081536128001118