dump/Si_1400_5/steps_71 (written by ASE) 

3995 	 atoms 
1  atom types
0.0      38.395898218429522  xlo xhi
0.0      38.395898217999999  ylo yhi
0.0      54.299999999999997  zlo zhi


Atoms 

     1   1    0.030107833218467373     0.25451751030149883      54.082582068309193
     2   1       1.861424477145881        38.3073449391879      1.0411094330569899
     3   1    0.066598721500762834      2.0618448894876296        4.02602577767792
     4   1     0.23312282937362397      4.0638151814637968      5.3412073645383078
     5   1     0.13057137780167091      3.6587266686042348     0.11606537911666211
     6   1      2.1154448537093891      1.9777866299705784      2.6344141909600221
     7   1       2.017511507521828      5.6907668867401435      2.8113400285163026
     8   1      36.931256590638561      4.0302466602665925      6.8658802695482866
     9   1        36.3776335016424      5.9188179279413795      2.7810123687480415
    10   1      36.357331557016757      8.0399537514318276      1.5536450902687542
    11   1      1.9012341103056876      9.5433242850889854      2.5832496026409926
    12   1       38.22010858114983      9.8091911644697252       3.908957060056454
    13   1      2.0324928765710402      13.138174266541577      51.464910053995062
    14   1      2.0617373171230695      7.5289702691525431      1.4521126335483454
    15   1      3.8227393226872968      13.590632786239011      3.9693589984527335
    16   1     0.27161122806752724      13.645922839684253      4.0502761795574651
    17   1      1.4894741248823538      15.743051290670994      1.1127388455305409
    18   1      2.1107957827665254       14.03996193786249      2.6374905944549165
    19   1      2.0262683344985768      19.722967582239772      0.7967949565051643
    20   1      38.238211466032553      15.627800724571136      53.697718377162531
    21   1      38.097673798390346      19.233126491947306      54.275634037148563
    22   1      4.2754191076099026      22.083324763447731      52.384084267902089
    23   1      1.6684803294324739      23.234732616291279      1.1205065597163435
    24   1      38.331630955346199      23.160391723145484      5.2533655595724875
    25   1      38.173246107835347      22.896780239149479       54.01822580277711
    26   1      38.121686865710579       25.01418435133175      3.9093112818294817
    27   1      5.6587990367109295      24.910896753444089      2.7106486033846728
    28   1      36.398761481844808      25.122391313950796      2.4787188958126558
    29   1      38.142210175360169       24.98738426562468      52.928709181776185
    30   1      38.250766010160447      27.082525247524622      53.832714431722337
    31   1      1.8814350660868144      28.672230075755827      2.8541401639179664
    32   1      38.150286699572312      28.949687455855486      4.1618882373536747
    33   1      38.221677183611355      30.913574172302294    0.018713426055035145
    34   1      1.9154176640982039      30.560057321166362      1.2914699061773167
    35   1     0.49733217435654575      32.582769538784156      4.3092541120841936
    36   1     0.23119789912285543      34.762609658205051      5.4938127555114402
    37   1    0.085664403089044577       34.74298289021646    0.099304433836607531
    38   1      2.0089271151194472      32.518090509204193      2.5083514141904035
    39   1     0.14224296594578256      36.606362331466386      3.9694004523788982
    40   1      2.2901452167997753      35.076290628742015      6.6034251419709058
    41   1      4.1398382507824758      38.299046512397553    0.044701356061852944
    42   1      6.1397457263079085      38.361460785279853      1.2386327561851225
    43   1       7.995530670094114      2.1674589911984223      3.9891683282486512
    44   1      5.9184602786076113      3.8141094791069645      6.8979841723911122
    45   1       5.661574617925174      1.9945255736391321      2.7598319400977265
    46   1      5.7766285485628348      3.7229557885546725      1.0040850424384311
    47   1      3.8329763342170771      4.1614281688811623      54.019639136278592
    48   1      4.0602884437982665      7.9885520253323126      5.4660364454404506
    49   1     0.18875710023023182      7.9999782485284401     0.28449658687649187
    50   1      9.6124496950387694      9.3439554330221117      51.383360115197043
    51   1       5.829437018945467      5.7227876252961041      2.7920295325871511
    52   1      5.6274621983074926      10.003930965403249      2.2614566982207882
    53   1      7.8339734083434669      5.8704698485051861      52.609494337879688
    54   1      5.7428861689362414      12.099091623277427      1.1091771765928569
    55   1       5.573035292466531      13.717509090337371      2.6204942073216015
    56   1       3.847317372969957      11.488999269889733      5.4802601738563004
    57   1      3.7438876970322403       13.93152688479681      52.708379591088352
    58   1      6.0223167540084468      15.639562518331886      1.2694873884912554
    59   1       3.809474331252074      17.188910943755104       4.103985430675996
    60   1      2.1477732674488945      17.582929169775401      2.5458928876040221
    61   1      2.1841710429741776      21.275469313056416      51.497745745309651
    62   1      4.0742105887137532      20.176147953812265      54.074417508072806
    63   1      5.4974195131324679      21.260672936160109      3.1426516312966992
    64   1      3.6433891680095982      23.281015680112851      5.5172711630852049
    65   1      5.7083206043013641      23.108414944630002      1.4191344633061589
    66   1      7.8649704811517953      24.809425711658292      3.8299607750483435
    67   1      5.6041008851778225      26.672546954930631      1.0762523857110524
    68   1      7.6287840544358474       26.71687469926383      5.3614097054600958
    69   1      3.5178751958437058      26.523185966922728      54.204361978758186
    70   1      7.5919394984394666      26.723644624691936       54.04923658429253
    71   1      1.5308943017470948      26.846255438138133      1.1317130154835031
    72   1      3.7808604361478881      28.804663513405828      4.0107303344769862
    73   1        3.89291210347448      30.463366872916296     0.20051207083038181
    74   1      5.7633379731801249        28.4314372591504      2.9526187966917274
    75   1      5.7582903928181199      34.706996641614339      1.3897287089049868
    76   1        3.85928021171754      32.541837685715507      3.9698640228799809
    77   1      2.0427746253837591      34.472958482833647      1.3975576818991173
    78   1      3.9109327655718538      34.570684804245417      54.288377968189202
    79   1      6.0442954214789362      36.602051756343648      2.6352981892349936
    80   1      3.5773336550672492      2.0090049875717528      4.3668879687552025
    81   1      11.269054348484577       1.830866411573685      52.614784836804446
    82   1      9.4528721663554993      1.8291635823215893      2.3603359692328341
    83   1      7.4318028673803012    0.058964519322637049      5.3033687662843336
    84   1      7.9110630595594147       5.680904930497042      3.8217698469527801
    85   1      5.5448831609234643      7.7345742261509773      1.3046117135223629
    86   1      13.004593660617818      3.9493617775742367      1.3394376188421921
    87   1      7.5722011245764245      7.7978003509175728      54.146991387084093
    88   1      9.7221683310728135      5.6995333266629533      2.1576186935312656
    89   1      5.6828246364970498      9.9235912975909191       51.64630493143202
    90   1      9.5111439583341841      7.9835930399014341     0.74944836975515794
    91   1        9.58366732213441      9.7718318778335487      2.4871538033029106
    92   1      1.8317096536593929      12.022200043209965      6.5918930097178645
    93   1      9.5957779919645745      11.654218742662243      1.1942551825185097
    94   1      9.4400695717757088      13.650656862504293      2.5013200717960564
    95   1      7.5389488948579464      13.372308914996875      4.1369840663816237
    96   1      5.9106304811064758         11.332262821496      6.4465002051835159
    97   1      7.7276557184741401      15.639764102706277      53.875786529560457
    98   1      9.6347833929795783      15.498980182833167      1.2644336698826939
    99   1      7.9257310949269009      17.572979868728904      3.9618278782298031
   100   1      7.6936432104965764      19.179767625122757      5.5481911794189207
   101   1      5.9075983601887181      19.534650135814982      1.5084479427747377
   102   1      9.7974021643866003      18.997016345924088      1.0157535308587862
   103   1      9.5097734535338887      22.800167513895435      1.1485771583840252
   104   1      7.6770007762370911       21.09320243836234      3.9479186871393144
   105   1      7.4971295309259034      23.056950975286451    0.027932332581656293
   106   1      9.4683605771075392      24.781949284982854      2.3019806929160724
   107   1      15.340608336948778      25.007262143139581      3.6593783027421392
   108   1      9.5830352011618274      26.963178377894078      6.6436049419586745
   109   1      7.8034115460075046      24.642445094245023      52.643284489283282
   110   1      9.8377904878522866      26.683175241341111       1.016240297326364
   111   1      9.4487547215011798      30.845071462852395      1.4266874520054882
   112   1      7.8545766717689585      28.542300007140547       3.987520249776662
   113   1      11.567811844122829       32.35427576412588      3.9862964669557996
   114   1      13.638416628678998      32.617125458989712      2.8162271489244839
   115   1      11.623068812558135     0.13664340203430816       54.06544023883675
   116   1      5.8994714284027578      32.614305293699125      2.7082751298834964
   117   1      7.9653508387539684      34.505875063637802     0.14919102574112908
   118   1      11.430477421233329      38.207810405899501      5.5950011553718246
   119   1       7.517577717664877      36.290677168816075      52.979600101245595
   120   1      9.5556823077567525      36.611891671959114      2.8299263054778772
   121   1      15.327363975351263       34.70275474032141      53.675107727216449
   122   1      15.286370712503167      36.115195716819336      3.6943445736640577
   123   1      12.947149550581972    0.024266684339077083      1.4936131218988069
   124   1      11.539101842561267      1.5887162121199037       3.904392795286403
   125   1      17.264157061609879      37.927203498470888      1.0588913549633288
   126   1      11.475650938312516       5.657820010735878      3.8560594253746245
   127   1      13.514941298527862       5.829566483782993      2.7449944782300784
   128   1      11.502470063941121      7.5723450447559291      5.5266219189453238
   129   1      11.360903438789089      9.5093131658491732       52.87489365465607
   130   1      15.523842443732596      7.6952218672833936     0.16757271331892995
   131   1      13.336656817584064      11.554851456900977      1.5260440506633464
   132   1      11.336106900686852      9.3544138650212982      4.0771810626027456
   133   1      14.944110741996523       11.20360754551511      54.128668064999722
   134   1      13.624707252531776      7.5662768639646458      1.1269193064465877
   135   1      15.725972664524651      15.044904631334699     0.12496784400444766
   136   1      11.370827489980469       13.28699053238102      3.9366009784602745
   137   1      11.567724217542997      15.170434532983966      54.182781809344142
   138   1      13.597905436303414      15.124446816686218      1.3093318814998729
   139   1      13.445554846673314      17.315435475011025      2.3732772616696818
   140   1      9.9683527433066921       17.20206265525762      2.5425275838045081
   141   1      11.584219331703844      16.937181878122381      52.811351108647933
   142   1       11.74040015890164      17.249381434494644      4.0948391042768524
   143   1      17.088408996102125       20.73302792679516      2.5721282196842732
   144   1      9.5523223090443192       21.00453910415154      2.5323689876203956
   145   1      11.544364090749363      22.976890721798426      54.242263592992749
   146   1      13.327709877130664      20.979444126959677      2.6795221395354241
   147   1      13.096632241742503      26.773702119045243      0.8614620984664505
   148   1      11.341842077069071      24.827269744892604      3.9240501442984637
   149   1      9.1459784997649649      28.580873015124457      51.308157285374143
   150   1      11.412720026278873      26.790709247334469      53.538193522647312
   151   1      15.202623318508129      28.525843419791983      3.9916423243766164
   152   1      9.4060560795491739      28.874947686211108       2.440064097302252
   153   1      13.554668066559172       30.91545885269306      1.2121534825210027
   154   1      13.269703235908921      34.471046035509119      1.0650922151299838
   155   1      13.375825105472583      36.293123514154424      2.4869410207617539
   156   1      15.416589895413185      32.484258944335849      9.7402225921182755
   157   1      11.597461938514741      36.643541532244278       52.78584714895063
   158   1      17.543869353225155      32.434164721411726      51.527804036398962
   159   1      11.454694893748247      34.377889045176381      5.2715997264753387
   160   1      11.481253553751683      36.478834485806253      4.1076798093115725
   161   1      15.094533620190784      0.1716012398630479      54.176612033212798
   162   1      17.067621044994574      36.200133196837299      2.4500018816367763
   163   1      18.807867080984355      1.8659819421287567      3.9170571906906591
   164   1      13.405566460929476       2.077014304833392      2.4327023348708527
   165   1      15.406729254211211      3.5364912903356602      5.1466255121593019
   166   1      19.402359550447517      5.5324026272466629      3.8693065797973554
   167   1      19.326397776796981      5.4498229285321882      52.738921539583352
   168   1      17.506579626561525      5.2401422476655766      2.4509612125126763
   169   1      13.524678041051587      5.5330855900536466      51.347644825902968
   170   1      11.841484845891497      7.6830453752657997      54.134296361473162
   171   1      21.091015565696356      9.3146295076808059      2.9029999811459914
   172   1      13.219243297017035      9.2166261220665575      2.8231124268759595
   173   1      16.679103904531658      9.3669948549195112      2.7442801269546639
   174   1      17.314408663920425      7.4771704103164813      1.5217564669751613
   175   1      16.820338189177008      11.289211706595403      1.4382854483631478
   176   1      13.269593600523123      13.479582474864042      2.9287179023073371
   177   1      15.573620549446403      19.142942212479234      54.077141650086659
   178   1      17.185159845997379      13.069056836304908      2.7914579165565687
   179   1      17.331134601893165      17.290999542011125      2.5401488804710559
   180   1      15.114833149999276      15.499094539856134       5.255356995037002
   181   1       13.29204809022397      21.019489156425504      51.235658829675792
   182   1      15.504951742401776      17.409359848641511      3.9748160413309255
   183   1      17.209846550987532      22.716013216073453      1.1576278189918434
   184   1      13.603441825485715      19.094435809200576      1.3644266211107607
   185   1      13.619572375404367      22.915680168694291      1.2567749627941562
   186   1      19.389380953315001      22.890273090020877      53.982251845664635
   187   1      16.873973162434318      26.724541752420905      1.1032753669516195
   188   1       13.23641865680103      24.987856975589605      2.4490960018476113
   189   1      15.190768555012998      26.976019285976072       53.93454645267677
   190   1      16.989168276814961      28.759296564573788      2.6594938450210655
   191   1      19.206229802602362      30.496540050056915      5.4914695641629496
   192   1      14.876197979413972      26.546891371722726      5.2773314220468901
   193   1      13.283142760278434      28.657352211250025      2.1694401876463978
   194   1      17.496709132838841      30.761537178567661      1.4545774318869571
   195   1      18.980646612944323      34.282479745402796      54.264519514658225
   196   1      15.452304039436159      32.693696612768633      52.348161564613925
   197   1      17.405758552522787      36.153605370649288      51.308303768816479
   198   1      19.567841090531822      35.844337609707459      52.589587219639249
   199   1      15.323604741297821      1.6932237190796473      3.9222963450235495
   200   1       15.35909990938608      34.305926518019092      11.176854761388707
   201   1      19.332077049962479      37.893007237601779      54.149486546604621
   202   1      21.203713834251253      38.176355026497525      1.4136434893304248
   203   1      20.955313208368079      1.5947692732282039      2.8844476097249308
   204   1       19.14342237211714      38.333173917191381      5.1280203969885605
   205   1      23.189347080140507      5.7172943524662436      52.903487713220905
   206   1      17.285228330487431      5.8758816540102661      51.823786749846171
   207   1       21.09585695496699      3.3423794560094953      1.4374856764856416
   208   1      19.262404258617938      3.7843093342415375      5.1238129832665198
   209   1      18.828743053294957      9.1172423098308908      3.8596395803592038
   210   1      21.184542031053997      5.5804876599080666      2.5321608446120654
   211   1      23.183303696865593      5.9375957227438825      3.7075372434157861
   212   1      18.871854381529378      11.428257874080582      5.1223354339560396
   213   1        18.6887081405639      11.198216898431776     0.10112712973041196
   214   1      20.782397443405031      11.463557916072096      1.4962288116560223
   215   1      19.495118781449229      13.469606985298261      3.9248055384022797
   216   1      19.440706300073572      7.5712857317442701      5.1057924851904755
   217   1      17.402725061153092      12.986007567277644      51.420819352000713
   218   1      19.446910891449303      15.114749362031292      54.114441285673458
   219   1      22.930428252720844      17.301336694820495      4.1950358194584076
   220   1      27.018542100250873      19.025974504107591      5.3753608407334008
   221   1      17.275016537196326      19.190403077465191      1.2032361854573983
   222   1      21.208505998833473       23.04471955624312      1.4903499910434204
   223   1      21.406870058581802      24.830125727136043      51.420606207278198
   224   1      18.958683199912084       21.09007101272481      3.8842278799351546
   225   1      15.320790203714294      22.973153628717743      54.051136151144455
   226   1      20.905741532242086      28.651256746502415      2.6839054708221193
   227   1      21.132959177829548      24.936774055105623       2.827906272723224
   228   1      17.420555886272872      24.709005582538886      2.2979907249915996
   229   1      19.232673678286737      24.883563019062482      52.541906128320484
   230   1      19.122609474612393      26.575285749496203      54.173517836118329
   231   1      19.031776811348863      26.760972791755552      5.5524178701593314
   232   1      19.079963676211268      32.256099925429204       4.159276277107697
   233   1      19.352759332454522      30.344686661055942      54.252493647236584
   234   1      21.259882067538793      30.581268682225833       1.335617276564188
   235   1       21.01043796544873      32.495814398381953      2.8780221165316662
   236   1      23.298566025837872      30.398222943313993      5.4752064148873583
   237   1      19.254193096956765      32.342078558565262      52.990474909948212
   238   1      20.939726016635024      34.240790589856616       1.330025607606047
   239   1      20.899201568560599      36.075699609463229       2.777330972453274
   240   1       16.96031521910162      34.249404049230996      1.0873847833334491
   241   1      22.930558876909021      38.282347853092986      54.160193425221436
   242   1      24.566363666164101      0.1089059605551969      1.6888074286682255
   243   1       24.96847451605727      1.9950520405276326      2.9734278112571833
   244   1      22.807209988255632      2.0924920669342311      4.3222286561596679
   245   1      23.202939982894403      3.6862617855961965      54.221067540318508
   246   1       25.22841462456196      3.6722040272437915      1.3285786755416189
   247   1      25.054261766448906       5.421016975588393      2.7884687521019029
   248   1       23.00343916483336      7.5712837051554667      5.3745568462853717
   249   1      21.139277368598275      7.6417192985809361      1.1862307219676491
   250   1      23.190115505778124      9.4965802626496956      52.858078512017876
   251   1      24.968587516055425      7.1550655272427237      1.2243294048346363
   252   1      23.102883350978423       9.617289240738021      4.2112685324304495
   253   1        22.9623835110784      13.370397833305249      52.928572305909178
   254   1      22.636931018548378       11.52430798290689      54.222378439197207
   255   1      25.090441630121894      15.387175705642736      1.3302734483467342
   256   1      21.230024297992912      13.499126098248068      2.4691271358404356
   257   1      19.093621523181024      13.232490339572777      53.006593244439337
   258   1      21.153493029787381      17.098962188905862      2.7835075737773662
   259   1      24.933125500732974       17.12314884629674      2.9460168242965112
   260   1      22.942071684065908      15.479142314232998       5.322971420693543
   261   1      21.170851963173028      19.076635122595544      1.6150719566795368
   262   1      23.183787637136611      21.280060699687375       53.31132042392759
   263   1      25.137238049387367      21.030929603086815      2.7444005759088901
   264   1      20.887188032476779      21.191608038434143      2.6885021423364273
   265   1      26.789818858135103      25.092171870458422      47.576015014325705
   266   1      22.950939263429095      20.950073424739514      3.8583640278139333
   267   1      24.847744122916758      27.111708672820161      1.4369129776148737
   268   1      22.822844261483208       26.82827583099278      5.5347566083675481
   269   1      22.994882451202638      25.205115437610253      52.919220785001883
   270   1      21.032088300406869      26.768969163153674       1.209364051213434
   271   1      25.054292442151095      28.764558939411078      3.1140595455924789
   272   1      28.442033958240255      28.453359609945174      2.6439960281751711
   273   1      23.066462051884766      30.332927479349788       54.13507306302413
   274   1      24.975977290591654      30.613944084522192      1.6296265617575385
   275   1      24.873211930521659      32.627370204242787       2.711833040240367
   276   1       22.96599278888317      32.432554335741216      4.3970829938978016
   277   1       22.96720237185075       34.05710543261123      54.296228743958416
   278   1      25.069750032248788      34.554005813287056       1.335534304745204
   279   1      25.018690583444549      36.343562096142549      2.9663991984707634
   280   1      22.779056784471788      36.635085993031545      4.1636006619847636
   281   1       26.49382326795352     0.31025567421833522      0.1385990066946762
   282   1      28.698494109750673      36.427344408571294      2.6635132079730064
   283   1      28.972272074886096      1.8011124472225737      2.8074817482493346
   284   1      27.110721162925397       1.647637334099417      3.7943186983749926
   285   1      26.987490292162928      3.9872460602233128      54.085131101064242
   286   1      28.864187979089188      3.8031489860807453      1.2080297742034314
   287   1      28.910653609316565      5.6540539997515431      2.6340007267850081
   288   1      26.946826841341316      5.5849285508852393      4.0682670355239008
   289   1      26.842260010987925      7.6272112792034363      54.268387318072804
   290   1      30.681209256840958      7.5517770519815439      54.178065588677477
   291   1      28.996022215642302      7.7682049540518427      1.5535587596697737
   292   1      25.077334725425203      9.3476353608197353      2.7047864626593197
   293   1      24.732981198584937      11.196040191316952      1.4759380910295008
   294   1      29.057620597200398      9.6611954605664376      2.8299837045205454
   295   1      28.904966101902545      11.489426228600742      1.5768006597778041
   296   1      24.900553152570168      13.727528442667218      2.7953069697423629
   297   1      21.341876527343029      15.412354895939099      1.3167603998156796
   298   1      26.900352294040253      11.260232935021918     0.33843490654269304
   299   1      28.737197202177541       17.28531915650262      2.8953204731919628
   300   1      24.960143417411526      19.408119763009687      6.7458158022099042
   301   1      25.219457180754517       18.97494148843084      1.6550396792223849
   302   1      27.033859561241961      18.914206646561084     0.13652708492479637
   303   1      30.717651567762893      19.136837195525949     0.18681279822092187
   304   1      26.798091324088094        22.8617123090566      5.3766635071438023
   305   1      28.844167180177514      22.850551443615188      1.1359046879896826
   306   1      28.807863027974143      19.262179276868888      1.4598986399982665
   307   1      30.822437194404998      24.893528692879173      4.1096703329272382
   308   1      25.160438171828602      25.291320542453629      3.0953733393592966
   309   1      26.875014020804407      30.721943468966892     0.17120709684863863
   310   1      28.910580744511378      24.690383753377148      2.7367050341171968
   311   1      23.105805871055868      26.828076249871316    0.042648520805573728
   312   1      28.659876281511419      26.556149186935546      1.5013929935630566
   313   1      28.836796136477929      30.386632625130776      1.6090971130142879
   314   1      30.563786640339885      26.973945882190481    0.072227369300026351
   315   1      30.544381128897758      32.496885649903582      4.3979973999314428
   316   1      26.978107743366262       32.63003683830032      4.0864794653838441
   317   1      26.954465207509021      34.567275041094625      54.046448296803973
   318   1      28.659215792062636      32.517882201511085      2.4889541114064317
   319   1       28.47240500756476      34.471873195572705      1.3825616139336698
   320   1      26.965137623121155      34.656669878308215      5.7373862713345183
   321   1      28.650233468273075     0.10582985167337383       1.411859116528021
   322   1       32.61587121533632      38.174700502971632      1.5837095271505386
   323   1      33.064319547681954      1.8513579114002499      2.8271459176112668
   324   1      30.868273546694095      1.9107564105533474      4.0753686413875263
   325   1      31.133621680742792       3.676783098040465      0.2015416865162932
   326   1      32.987939406796301      3.9985573605081961      1.5475946603027639
   327   1       32.85018119390643      5.9167352197049228      2.5753294965735694
   328   1       31.29804822522172       4.415140040722215      5.6015451999902259
   329   1      32.460439708705671      7.8252701582162523      1.2959071064822398
   330   1      36.284404519880837      9.9459615256339333      2.5628322936817223
   331   1      32.811681602682135      9.4487745831792953      2.9248134364958212
   332   1      30.962596669533291      11.671540287097072       5.332709702980706
   333   1      32.828361004056859      13.099848458370001      2.5764358264215139
   334   1      34.599360389554462      13.610196321705981      4.2640841883073204
   335   1      34.619356594647456      15.553810544965105      5.6839459764699392
   336   1      30.898874655770708      13.519955865254705      3.8867934741693935
   337   1      28.835731926792583      15.490901360660065      1.4727154120980894
   338   1      30.579314395117759       17.12722977881895       52.99594230173458
   339   1      30.813767138695688      17.205452108581163      4.1055290133539328
   340   1      34.431640376785118      19.304462474522897    0.063591130249563088
   341   1      32.055707818009346      20.929213574048514      3.2508123573353136
   342   1      32.546608376908907      22.386417397634226      1.2062859418177614
   343   1      30.194006905070768      21.538480415214107      4.3193104022979902
   344   1      30.924011492740267      20.924923717226751      52.924933080088046
   345   1      30.773017988668478      22.787244686534084      54.058200913600714
   346   1       30.36913453153922      24.989071530568193      52.914477241467281
   347   1      32.455254019535701      24.755188157692295       2.195841983610646
   348   1      28.428494619437245      24.936810257209462      51.625268557525438
   349   1      34.561285937240626      27.084883852174819      54.081663445906003
   350   1      32.684962293973996      26.995403242386924      1.0352898555686452
   351   1      30.852495951440375      26.698814135917289      5.4180455996583659
   352   1      30.668517636150622        30.3432749175808    0.041502846578964657
   353   1      32.742085669745386      28.726573866569627      2.5319346381861361
   354   1      32.097714887602528       32.57341226660526       2.767427382064775
   355   1       30.80306303404765      30.386026028670372      5.0560045401071099
   356   1      30.667572782576109      34.479020622646836     0.22042990249691483
   357   1      32.596129817644929      34.719212196409465      1.5503954563764319
   358   1      32.521652453099193      36.446002502052721      3.0324676662816152
   359   1      30.490356222257763      36.593883797918025      4.2360077925154105