dump/Si_1400_5/steps_61 (written by ASE) 

3995 	 atoms 
1  atom types
0.0      38.395898218429522  xlo xhi
0.0      38.395898217999999  ylo yhi
0.0      54.299999999999997  zlo zhi


Atoms 

     1   1   0.0069289270367001443     0.26472166634232142     0.10751913886424522
     2   1      1.8393949690806428     0.20834935418316272      1.3918964374496237
     3   1     0.24536362524581037      1.9816252574290965      3.9862976451101217
     4   1      38.325562588046864      3.4888375637056548      5.5438416912493942
     5   1    0.075012432845141128      3.6423468887575838      54.133561782871482
     6   1      2.3000316596720674      2.1735637244415034      2.6253389764617729
     7   1      2.1125137209459974      5.7072140586200426      2.6202128490874559
     8   1      36.347018064100126      4.0560196579939083      6.6915818665310081
     9   1      36.667908651355347      5.9520647562745301      2.4462105213068739
    10   1      36.776213474529939      7.8879614269106604      1.0745762555853158
    11   1      2.0378350520082575      9.2355532172907466      2.7827611637345373
    12   1     0.11259956128307959       9.339747708885465      4.1171576112715549
    13   1      2.3479043070056203      13.520079203295861      51.160171385026736
    14   1       2.039999957105723       7.573580359652496      1.0074029913420555
    15   1      4.2302144025219883      13.368061024063897      3.9279368343447576
    16   1    0.074972494649509697      13.413572343002086      3.6888917787158673
    17   1      2.1167972069709018      15.674887498016588       1.798851503935806
    18   1      2.2601256726536345       13.23505407698079      2.4377668890298292
    19   1       1.662326590742818      19.185012214780443      1.7323905338617478
    20   1     0.72152147793535992      15.398060492706485      54.223439121346424
    21   1     0.14543819605636893      19.380631088530194      54.054410950567394
    22   1      4.0233248400073567       20.82707672154184      53.123006418801232
    23   1      1.9379525135954874      23.028331166831563      1.6623358210632115
    24   1      0.1803201153290741      23.339207215114548      5.7856403814745798
    25   1      38.374075957628541      22.743696137114906     0.21839069063690869
    26   1       0.162505280076642      25.170008729969105      4.3576194761855813
    27   1      5.7271047715379177      24.778981709868837      2.3090616212608235
    28   1      36.741782692630203      25.139367659544661      2.9879785582486278
    29   1    0.090596044512852678      24.785234295915274       53.23021293174655
    30   1     0.10017791675426206      27.009465672068632      54.008373489121638
    31   1      1.6239499900228356       29.23290203125287      2.6167188083251856
    32   1      38.327293815034508      28.701659495897449      4.2534950349198555
    33   1      38.046069077961867      30.938956549447937      53.887681777006492
    34   1      1.4168194925952404      30.823467054158691     0.97744219132209775
    35   1       37.96543674967193      32.829673269726321      4.0551778360935371
    36   1      38.157489928756476      34.725230544771399      5.2624431046988898
    37   1      38.388832672101678      34.859073027037404     0.10003370644729986
    38   1      1.7801655643771652      32.457876610396667      2.5986289906614264
    39   1      38.392100047778555       36.44828531916972      3.8415952236673681
    40   1       1.860664318591148       34.50217281444008      6.4432953917138525
    41   1      3.8000011066597668    0.022875365982444763      54.231819129598563
    42   1      5.6335947346842392      38.123581979154437      1.2320956480714598
    43   1      7.5131059230875588      1.7825006919580693      4.1293850529433138
    44   1      5.7122690247348533      3.6740856617231241      6.7557090888996179
    45   1      5.8581202322261916      1.6558960688229514      2.6839421744436414
    46   1      6.1306735943054225      3.6161167816697848      1.4611132106215363
    47   1      4.1448448827929596       3.999925865870646      54.238161907580235
    48   1      3.9066548212264784      7.4963688139113929      5.4249788678695046
    49   1     0.32304279122340596      7.7598559809950753      53.702455812422244
    50   1      10.010178801520743      9.7613497767114357      51.266030224668363
    51   1      5.9213091495746841      5.7722674465839576        2.08185454373413
    52   1      6.0174490149670126      9.2673006734082044      2.3858967883830702
    53   1      8.1370109651121592      5.8136632121390885      52.595135534194398
    54   1      5.8060951786335417      11.210811540463563      1.3649747201995615
    55   1       6.018466772444989      13.138019864892872      2.5242811729243964
    56   1      3.6671034865354866      11.441457487159216      5.2963621894098996
    57   1       4.272023460839411      13.368171199164788      52.769555927609638
    58   1      5.9546840668414882      15.132041287181258      1.2031953584685968
    59   1      4.1666990572102796      17.465335296878912      4.0074796548453833
    60   1      1.8768440104095931      17.441841210945949       3.147629551419461
    61   1      2.4295721557958285      21.470696708515682      51.718476267323645
    62   1      3.6583447094990098       18.86490625149386     0.41178625247314377
    63   1      5.9419274169117635      21.401439666023023      2.4613086713531849
    64   1      3.9346929860177635      22.834338713226714      5.5506530355694332
    65   1      5.5435134103397106      22.982033528332604       0.778734865455884
    66   1      7.5557025940636242      24.954932651816705      4.0995765992035933
    67   1      5.8400757045236782      26.926937002883907      1.5147711144412379
    68   1      7.5164789348511585      26.688245171895396      5.7329071883071201
    69   1      4.1002229024054877       27.26483969815769    0.094826695991662366
    70   1      7.7104809173017772      27.111969967824617      54.034437212231246
    71   1      1.8998223420105449      27.216709547222326      1.1162022049566407
    72   1      3.6518119592461993      28.749921157845129      3.9081598830445476
    73   1      3.5370780969538829       30.68075701141742    0.044164370175269585
    74   1      5.8201845833530799      28.994567967042098      2.7719484956133087
    75   1      5.8071858834303347      34.445550761006501      1.3509389189725987
    76   1      3.8234386160495886      32.692776312770867      4.0102703213969795
    77   1        2.04619668883781      34.416478851310366      1.2017826996881036
    78   1      4.0222187633814581      34.660514943485126      54.009835574596451
    79   1       5.496332307205674      36.311428847667877      2.9088399144124413
    80   1      3.5872667604971289    0.037469551994567973      5.2745689185258353
    81   1      11.551914078394949      0.1456601680993653     0.29299209347038846
    82   1      9.7701805538994027      1.9641585903434602      3.6991996021424245
    83   1      7.7197466797573862    0.042730397681893503      5.4986736467042734
    84   1       7.889294392911478      5.8792100787946158       4.280178509074962
    85   1      6.1424949098617194      7.5036404782564592     0.80198540317284095
    86   1      11.510044821860541      3.4512835900200649     0.12688743247015269
    87   1      8.2866814921581167       7.633304493000078      53.870699413354238
    88   1      9.6685933921532321      5.6263092560268015      2.4119769274449472
    89   1      6.2014312622546148      9.6830433627551038      51.474681571231606
    90   1      9.8492741151597674       7.792209155064338      1.2959266157053881
    91   1      9.4266546537265796      9.5510948254990886      2.9423426984145853
    92   1      1.7403583490027972       11.29048946607163      6.6984395006794131
    93   1      9.8825694332022636      11.424606427942049      1.4966198015234224
    94   1      9.9011462255082154      13.515545254326314      2.6653809770386023
    95   1      7.9945739693408031      13.416217003427757      4.1788492027418096
    96   1      5.4141219426782827      11.753891006196731      6.6758059758625148
    97   1      7.9235578384606793      15.300374617165529      54.214770220774668
    98   1      9.7157087039173646      15.505843103125482      1.2629694204374886
    99   1      8.0770391440285092      17.106716237203671      4.1454978034644769
   100   1      8.0979505331337975      19.055245953648722      5.5487222353587891
   101   1      5.9700602522405957       19.06210330263988      1.5810133066965155
   102   1      9.7097745482005777      19.129760132853157      1.6144064570776337
   103   1      9.6250338763331875      23.387446073697433      1.7171156595067607
   104   1      7.6414676910637853      21.130060515128385      3.8417678032001277
   105   1      7.8548884567888768      23.078964391497728    0.060977718296465026
   106   1      9.4248444951448089      25.337673449194533      2.8948652390417018
   107   1      15.506613905292724       24.84745789379992      3.8919804678232466
   108   1      9.5465904249183939      26.686199438840926      6.9434119266819359
   109   1        7.75772233646709      25.002059938543315      53.022907099408862
   110   1      9.4618974382923398      27.022772369904285      1.4458860877902344
   111   1      9.5297713231823309      31.118373285386028      1.6033711018135506
   112   1      7.6919835245164601      28.784847132902232      4.4044876004404259
   113   1      11.256179768599038       32.21316233468027      3.7237932812444665
   114   1      13.067624983323855      32.954044199411207      2.4039911395365028
   115   1      11.878317941217635      36.708591013008537      53.128360295492868
   116   1      5.7567926980872963      32.718750729234173        2.72614813596525
   117   1      8.0690350558958901      34.648316497666343     0.18545117665964905
   118   1      11.391010401155363      36.381811371696138      4.7979528957000657
   119   1      7.7634479295858956      36.587378557162396       52.87840353839006
   120   1      9.6803530073889394       35.11970307609829      1.6480472424530141
   121   1      15.028452430507514      36.650892612819597      52.888676117161893
   122   1      15.128186255182221       36.40541155790801      4.3771697899485948
   123   1       13.37659988496177     0.37734797590748842      1.8283178540824021
   124   1      12.006628833425081      1.2281488429927745      4.3787700455717955
   125   1      17.347338107389437      2.0318582092989743      2.6622768623602022
   126   1      13.306163363151187      5.7280072837471687      2.8193929759003118
   127   1      15.594995222043513      5.8188322462602953        3.79327788268556
   128   1      11.417445057691845      5.4729435904195514      4.0388297093525249
   129   1      11.591543633413966      9.6542694590690186      53.022943391404802
   130   1      15.400701095338295      7.6191932153562103      54.184577197364725
   131   1      13.558471606077193       11.39255347314988      1.5796488084817977
   132   1      11.488620685467447      9.3821942273178482      4.3276543834120531
   133   1      15.662406028566812      11.441689802829833     0.56152542755288537
   134   1      13.604338495445738      7.6894990986690219         1.3544682911662
   135   1      15.348587283301955      15.484531313435562     0.27540754199473005
   136   1      11.685762920607722      13.272127925486897      4.5032245708561502
   137   1      11.401446531078955      15.137580850936482      54.237556657845786
   138   1      13.378807180288966      15.608031091500273      1.1982933611104181
   139   1       13.66542138503201      17.298928448242997      2.6835766029856334
   140   1      10.317194419807175      17.147003237846093      2.6990580885940059
   141   1      12.018768669826015      17.404953966400015      53.398532670668473
   142   1       11.89140777622397      17.431876776339816      4.2269655031493132
   143   1       17.14453918840973      21.217314405040774      2.9491566381496588
   144   1      9.7344979519042045      21.210962542294123      2.6234315861558821
   145   1      11.641297439050266      23.221790792751449    0.098761598983298823
   146   1      13.534950151748951      21.078006759426135      2.9151862994353213
   147   1      13.565992479607537       26.82791565685347      1.5788166980244545
   148   1      11.420413251813168      25.137075451058816      4.1750129518247139
   149   1       9.604907792503397      28.898528567633523      51.912561779704923
   150   1      11.536722988732576       26.90936689988326     0.31479613063544332
   151   1      15.335751119935308      28.641621126390763      3.8349624348109037
   152   1      9.3737026819554394      29.103604835508797      2.6720274384855309
   153   1      13.658849668671335      30.622278841936087      1.7688282354884226
   154   1      13.762658253011617      35.220117828325371      1.7717453638160945
   155   1      13.302442969926986      36.906761247058981      3.2981349163610143
   156   1      15.250216269029339       32.54598089805696      9.6996750676100536
   157   1      11.789138978755339      34.730851777624181      0.2515406980419132
   158   1      15.202115239205957      32.742034819809703      53.107493977948941
   159   1      11.780568386524816      33.875546517638732      5.4502541793674188
   160   1      9.6996879820298236      36.775176597396587      3.1873216475770256
   161   1      15.111943116000266    0.017281436440878966      0.3319347591641415
   162   1      17.135030180969132      38.385237093962701      1.4669418538052001
   163   1      19.349866360982112      1.9737026033810656      3.9256970578329407
   164   1      13.417782564623977      3.4178464195440563      1.6877942879318193
   165   1      15.410896597215991      2.0321306237400889      4.1147616553635338
   166   1      19.417144034798671      5.9507411613937835      4.0046192687077129
   167   1      19.301360380118769       5.699870790148009      52.902131080450239
   168   1      17.543362857448955      5.6800016080203948       2.507334447048287
   169   1      15.073917344927624      5.5302087530122828      52.844466978971305
   170   1      11.787600838721161      7.3244361314575182      54.201344999737508
   171   1      21.219394853719866      9.5766710495635667      2.7861641181360848
   172   1      13.320357451883634       9.300860200478791       3.006366741750198
   173   1      17.305634158351292      9.5191660185629505      2.8916014427961185
   174   1      17.569258398056476      8.0454453182158581     0.76870959935727012
   175   1      17.740168268754033      11.550650474822465      1.7229986459335218
   176   1      13.259288195224505      13.617710343936931      2.9190665804270552
   177   1      15.560206695309448      19.436847936525311      54.226013173784182
   178   1      17.137915398420375       13.52210629885279       2.888292479620246
   179   1       17.47348967604983      17.784728594547296      2.9037349441648894
   180   1      15.588030459174824      15.328969426972858      5.7279221791646622
   181   1      13.783129266975067      21.131654438775282      51.455453016386109
   182   1      15.613989140488272      17.290574423389671      4.1060126764327745
   183   1      17.337954311564303      23.098498610696929      1.5957760482948169
   184   1        13.8422571152351      19.241792631578225      1.3690716161138186
   185   1      13.698408625332295      22.873317391698986      1.5448619908900367
   186   1      19.185675545819411      22.895173012219662     0.11001791075963159
   187   1      17.324104368306738       26.96848693587782      1.3427961953589242
   188   1      13.441248303391498      24.860997082024038      2.6426561808749987
   189   1      15.262148809643477      26.799547083469772    0.012085143674346474
   190   1       17.27644902693099      28.938521936920598      2.6196388810015589
   191   1      19.248531382561424      31.122811956435001      5.4214514533874985
   192   1      15.326311483144256      26.806815640438323      5.0797619834029435
   193   1      13.358800691223546      28.855087464585637      2.8385432372983121
   194   1      17.301100742893968      30.937062629153186      1.4942078854363003
   195   1      17.336336961935373      35.012855922725379      1.4274725804402797
   196   1      15.347489016321777      34.727214842214167      54.237090753537366
   197   1      18.912463743810157       36.54203529940537      52.623779244244282
   198   1      19.193689463451186      34.798952464965005      54.144539002636868
   199   1      15.360839827120921    0.051496239506378674      5.5155204466113981
   200   1      15.367236042226597      34.511338311096765      10.758470594871493
   201   1      18.994373832554079      38.211991465403528    0.016428421300759041
   202   1      20.954209533581892      38.214123166425495      1.4194554474845755
   203   1      21.301179384686574      1.8818328286629211      2.7279877136097892
   204   1      19.248599400708319      0.2675454188788553       5.473730859858482
   205   1      22.867300825552267      5.8908800127109924      52.994421113967697
   206   1      17.091034904118779      5.7068998275200942      51.755644088041898
   207   1      21.272089477836477      3.9052408074803213      1.5227388840210985
   208   1      19.386076107828252      3.9617292903955139      5.2319693537145984
   209   1      19.459911526891577      9.5116848376560785      4.0855053667802839
   210   1      21.412403559991819      5.6786551596023056      3.0868868077024079
   211   1       23.36345367963435      6.0734761962524502      3.9645072735659936
   212   1      19.830234588804057      11.588862338757497       5.471539442701717
   213   1      19.303875623365453      11.471311512458978   0.0013269019244603422
   214   1       21.20699854911151      11.254409783327034      1.3798840675744146
   215   1      19.238408245260583      13.713709883669447      4.0430522394704687
   216   1      19.532443542166131      7.7761622698137689      5.5282997111853893
   217   1      17.504202538458408       13.32147925344908      51.966698264140796
   218   1       19.34250899475558      15.310728275186873     0.32619164758278879
   219   1      23.099653796939098      17.232328244893484      4.1598579618852449
   220   1      27.165919568046967      19.042647484892424      5.5399449306782467
   221   1      17.408166407602518        19.6942013065716      1.3087658385806111
   222   1       21.08975718157809      22.729324808531175      1.4916243267593026
   223   1      22.738791832051792      25.094350864484014      52.888468820995584
   224   1      19.268822463065582      21.319218425916667      4.1318188411243346
   225   1      15.273968035993519      23.008949805455753    0.045128721976345786
   226   1      20.898321521299433      28.750785710133098      2.9694323961607427
   227   1      21.029807129520627      24.922469146943165      2.3968892694724682
   228   1      17.471002789100705      25.297666401360573      2.6855358840722925
   229   1      18.936755688066253      25.042971480772025      52.965691802845448
   230   1      19.026173774021984      27.269084315233314      54.066958995049909
   231   1      19.517708551516289      27.132767609690497      5.5502948505433034
   232   1      19.020811798095803      32.988620062872577      3.8275053331008286
   233   1      19.255767522407211      31.141517968573218      54.287560834909854
   234   1      20.756835979486741      30.812728822767113       1.540047881831718
   235   1      21.070458926633773      32.902598471453452       2.841322123201814
   236   1       23.20870153832422      30.481765038684916      5.4073724061804658
   237   1      19.022911948012773      32.883609488885597      52.831804519558268
   238   1      21.147249622302006      34.609390506578812       1.253206061865594
   239   1       21.26117495102384      36.365867646132173      2.8224524207264627
   240   1      17.190861027977281      36.599671550331017       3.089785664532589
   241   1       22.91723034614181      38.346018331987459      54.276783473842016
   242   1      24.793088181801473      38.348599820765131      1.5190489282885802
   243   1      25.073617110072981      1.8763826814220028      2.7701422082269089
   244   1      23.043024846524748      1.8090564212581108      4.2297227271130033
   245   1      23.060767594336674      3.9270745084527969      54.293634178869304
   246   1      24.947167653046563      3.7513074396621078      1.3319828140299257
   247   1       25.24023839482815      5.5705957992948978      2.8100222499633323
   248   1       23.16745892883803      8.2446680415967624      5.2253561590923576
   249   1      21.237520638418815      7.6410720346419199      1.4398253346490362
   250   1      22.813956350646176      9.6325769171417477      52.620781726002612
   251   1      25.021318884928636      7.8273137333882241      1.6880946000114225
   252   1      23.503875428970041      9.9696728766760287       3.919028184785712
   253   1      23.151171726520484      11.672634395268377      53.942556655760868
   254   1      25.230979958971062      11.847357315704095      1.2252272733349183
   255   1      24.891423211404987      15.691614541317474     0.98355411864720332
   256   1      21.309043533734425      13.438065410663784      2.6137692051999566
   257   1      19.630232315558153      13.590815304776514      53.090012129818334
   258   1      21.409259867025074      15.399881962741661      1.3394526163300016
   259   1      24.960490154342075      17.314002195501736      2.4893631846802324
   260   1      23.302624499860702      15.115963811334995      5.6779471976289404
   261   1      21.324101459772002      19.096494314230043      1.5419174057638896
   262   1      23.080591834711154      21.019686594117292       52.59083643499995
   263   1      25.382303519471744       21.13293852031634      2.5878993595728139
   264   1      21.132276168123813      20.992337431465753      3.2347757386339824
   265   1      26.775352955757583      23.098959111305653      48.724923763690789
   266   1        23.4928639375721      21.102867903723055        4.03250790791932
   267   1      24.687250208114044      26.634761875062981      1.2915553812269904
   268   1      23.402946380137418      26.888011907359466      5.2641796793452844
   269   1      24.685021897278752       24.77544922373372       51.72646162023171
   270   1      21.019759816616332      27.118129193088613      1.1226674090249968
   271   1      24.756735181605443      28.516886308055913       2.485591119456203
   272   1      28.710163754387064      29.002614383542042      2.2905210130979614
   273   1      22.771687013790544       30.78771993169968      54.203888357529692
   274   1      24.719614215714486      30.736557622241143     0.96897418346119357
   275   1      24.951929487045131      32.560995583013366      2.4399845132402422
   276   1      23.235623799635661      32.532052466198444      3.9686579728465539
   277   1      22.800317014529089      34.498743965320514       54.28583214620253
   278   1      24.810526547432964      34.498329147368061      1.2738687588624671
   279   1      25.034869730174499      36.307004873807415      2.6740760113912194
   280   1      23.147102580161523       36.44911566051109      4.1690807660068661
   281   1      26.768988616771946     0.18003815330292197  0.00010537445580212079
   282   1      28.761368711246217      36.468056972639666      2.5128860802422412
   283   1      29.278032474347022      1.7409641005770269      2.6436091158020298
   284   1      26.784334919508645      1.9974514707781645       4.342173396364684
   285   1      26.997623184219197      4.0110646819935054      0.2308795386768682
   286   1      29.153046351682754      3.8497509857901675      1.5098564617487467
   287   1      28.753689858214969      5.7318491089966681      2.8020245981550804
   288   1      26.991995927700295      5.7163002512384802      4.4829565412410926
   289   1      26.952665161503685      7.7348403772336018     0.75487762367992928
   290   1      30.719503466705817      7.6263250388227375       54.24840371945232
   291   1      29.272887137228604      7.5987363931936596      1.6614092250368919
   292   1       25.28417174109849      9.8267511002908119      2.7869719213344877
   293   1      27.336641126961954      11.605493902600816      54.208105962481064
   294   1      29.124983353358527      9.5219005053865793      2.7941930311040464
   295   1      31.230011848365255      11.586125321144493     0.08210326962351927
   296   1      25.052889501449283       13.73752277936485      2.3743032635979389
   297   1      23.060869689814233      15.412662393968713      53.838690464628975
   298   1        29.0573404229849      11.680266568517258       1.600395876761026
   299   1      29.442495365528416       16.93124613158561      2.2303378888188616
   300   1      24.970882410999167      19.358461685913305      6.7274704694433982
   301   1       25.14727890165209       19.19509880446159      1.1774676488418778
   302   1       27.44402550270722       19.15605171737035      53.959020462656568
   303   1      30.632173198673151      19.261070218363329    0.071127214740079076
   304   1      26.913665692832303      22.773145831289899      5.6756803843675563
   305   1      28.717521267944761      23.152531492349791       1.677384952630099
   306   1      28.789502184404672      19.061588241792332      1.5031843083766592
   307   1      30.841810820734967      24.539859123564046      3.8691100350932728
   308   1      25.046449359128719      24.680702800935396      2.7906414703600397
   309   1      26.675935214856988      30.738510383287174       54.07061233169356
   310   1      28.857222190956989      24.971472487462972      3.1775556400252971
   311   1      22.905205750270518       27.11064984138034      54.023788229148671
   312   1      28.125818795609845      26.871251816740664      1.8001182128911435
   313   1      28.707368127002493      30.927495108148101     0.82061327749477375
   314   1      30.361634072816997      26.904604961846758     0.38644976991885188
   315   1      30.551463666337433      33.235749676507496      3.9457772354733045
   316   1      26.779293622545307      32.625579633866003      3.8945207918171239
   317   1      26.913819697513699      34.596511407418298      54.284848073891425
   318   1      29.012371171194296      32.625148956130836      2.3623838728159963
   319   1      28.714057883319654      34.577081826049223       1.145011760262278
   320   1      26.916298564130781      34.433142780890456      5.1646178277160306
   321   1      28.600018052085762      38.294406471091477      1.0430681189550237
   322   1      32.585607830616709      38.389120199229033      1.1372857515480035
   323   1      32.835434774141703      1.7799847654279273      2.4609798562296192
   324   1      31.109178318930748      1.8051611790221873      4.0326825393975003
   325   1      30.967777294797951      4.0327189111212265     0.26536108333521025
   326   1      32.680009230262002      4.1021440863740652      1.8029578489193359
   327   1      32.568615538605648      6.2618688579578645      2.6718222607468669
   328   1      30.881865728663826      3.8106866810881712      5.5247158168309403
   329   1      32.877554816813408      7.9056140614014803      1.1837415307231958
   330   1      36.808289768102696       9.534353459771653      2.5481232995267402
   331   1      32.829404870587389      9.8060909942294767      2.9482885734658359
   332   1      30.982827606314494      11.718677012505987      5.4544872890580898
   333   1       32.90258170385183      13.627131988087788      2.9068877301360345
   334   1      34.884633584996379      13.802875061228027      3.7961622789477603
   335   1      34.902481143937592      15.378904396137965      5.7195823040712241
   336   1      30.813574070756598      13.632657533236792      3.7994845080795479
   337   1      29.043597720336194      15.041746456143546      1.0164215991087282
   338   1       31.13036787328031      17.326280588976548       53.09721266910914
   339   1       31.45707141308084      16.918357352976493      3.8530803275680325
   340   1      34.803724160839515      19.395743475011287     0.23987304149048885
   341   1      32.809646676435243      21.115779387591154       2.781286564007635
   342   1      32.528558716450206      23.137867206418417      1.5457538004238345
   343   1      30.982369365526647      20.992152379598366      4.2976846892992517
   344   1      30.616143145441342      21.178518159484423      53.235285564340259
   345   1      30.564162617629012      23.500419549584482     0.12220966547339469
   346   1      30.607927785663456      25.258750293524145      52.789298024925792
   347   1      32.864771995567224      25.086755944819352      2.7988461011403976
   348   1      28.883427750815162      24.874075676680025      51.477045201032745
   349   1      34.256443020226627      26.888167931444656    0.016380465715928966
   350   1      32.414006298612541      26.870520660257583      1.5716579199645699
   351   1      30.481249657574221      26.823201709070247      5.3147654596822003
   352   1      30.586527566872658      30.623715966459727      53.750810237457998
   353   1      32.509072715367097      29.105039817711486      2.5128551600774949
   354   1      32.461099320012501      32.973403565975588      2.7228305909676247
   355   1      30.495811956946426      31.032214706131857      4.9518994960333753
   356   1      30.727887976837899      34.861538699761191      54.024618101915308
   357   1      32.698208780532411      34.425386259488192     0.94573900182061776
   358   1      32.784435426845512      36.433962806564985      2.4425809914025738
   359   1      30.771150852184679      36.766794227027582      3.6006128641443667