dump/Si_1400_5/steps_11 (written by ASE) 

3995 	 atoms 
1  atom types
0.0      38.395898218429522  xlo xhi
0.0      38.395898217999999  ylo yhi
0.0      54.299999999999997  zlo zhi


Atoms 

     1   1     0.30827386351568287      38.304372845761236      54.246009736676527
     2   1       2.366391497664313      38.183386416787364      1.1160512389102779
     3   1      2.1160860572238005      1.7305830405667799      2.4698989588046851
     4   1     0.23973879815409471      2.0342386533322014      3.7416464171378272
     5   1    0.068498884184072448      3.7265850324518675      54.261368155222989
     6   1      2.1754183611173126      3.7646192804202867      1.2168614779636318
     7   1      1.8535303904701295      5.5992442609139896      2.7788855851496215
     8   1      38.232429133032319      5.8840881765958404      3.8892091152428039
     9   1     0.15904519135708411      7.5417487431436125       54.13048967600384
    10   1      2.2759467571621954      7.5748252462492829      1.0448374779785485
    11   1      2.0129759827961951      9.5609929014458608      2.5638244775745087
    12   1    0.014854043494764662      9.9480888372012615      3.9875535140826868
    13   1     0.20998097271599625       13.56356421715452      52.929750955489972
    14   1      3.9114344151743188       11.19190380724886      54.162544946587076
    15   1      2.3216701287687633      13.153507193172102      2.9479269991888142
    16   1     0.23752004449633418      13.487252773356884      4.0705952014261904
    17   1      0.3387266147153476      15.373589361032003      0.1774226930250736
    18   1      2.2127700698998161      15.191748951573418      1.5422304484043576
    19   1      2.0530819822917254      17.364807164557543      2.8659730910685677
    20   1     0.16940110142959172      17.467801201416172      4.4205350380368973
    21   1       38.10737307427987      19.369528044194404     0.31612190379114519
    22   1      1.8253563997046673      19.317180907593681      1.6257364344514149
    23   1      2.0194844912719287      21.310284154408681      3.0672675432062757
    24   1      38.315229795827726      21.341111003491051      4.1757373192823373
    25   1       1.934441928046541      23.029824084291839      1.6384154644954159
    26   1      2.0628904413265579      25.106099862724363      2.7059096554050606
    27   1      4.0778797674672882      25.097125355006064      3.9286355348477975
    28   1      37.931142772026071      25.084125221337509      3.4673671799365491
    29   1      37.873550217033731      24.824835461553111      53.082302851889303
    30   1      37.999141622175706      26.904712641489446     0.18525847572030915
    31   1      1.6500571344341561      28.859706376873298      2.4711661009207893
    32   1      38.286953728483425      28.840309079329774      4.0685890360077988
    33   1      38.158579252808416      30.492452720874546      54.190385275563784
    34   1      1.9775271155421099      30.684867002897409     0.98052217103544137
    35   1      38.330977685044402       32.41451008436335      3.8260609986490755
    36   1     0.24355486879791574      34.318611274829742        5.32243126277847
    37   1      38.279987401952226       34.60082224933646       54.05138572549123
    38   1      1.8710619621541016      32.439214748901421      2.6676636167491687
    39   1     0.35267153940658102      36.374729300751291      3.9182091572613986
    40   1      1.8500550802252471      34.193686541648091      7.0803770170294964
    41   1      4.0500816315540202    0.069810119421523334      54.094123436708742
    42   1      5.7570456596810446    0.048426674305866071      1.3341095005671935
    43   1      6.0379701144924471      1.9672131502747516      2.5346673234207642
    44   1      4.1480192440194257      3.9474512085994711       5.305485963342595
    45   1      3.8535715362086544      3.7383002831760401       53.84608037840195
    46   1      5.6342643683756624      3.7580977207031041      1.1869155211695106
    47   1      5.7680363435639119      5.7848003090160391      2.9212696719048368
    48   1      3.8310981892227187      8.1345968700934126      5.3639258121508391
    49   1      3.8730455001478292      7.4707348841067276      53.999158236154358
    50   1      5.6256859349265866      7.1116858194816785      1.0552433491793847
    51   1      5.9071113428481556      9.3612387364285006      2.6087180765554749
    52   1      3.8780884965700233       9.882533947939427       3.818467163212893
    53   1      3.7915668053660494       9.471943229108378      52.815422795319172
    54   1      5.8055446347857211       11.46978686962326      1.5721762126318251
    55   1      5.9902675866937534      13.318826099286682      2.7731596957151621
    56   1      4.2687811555855584      13.529498842225113       4.230190830035804
    57   1      3.9648720254137508      15.240853271395153     0.31373376937093567
    58   1      5.7048766220673608      15.393970154585128      2.0069872845167183
    59   1      6.0059995235568344       17.46663486542683      3.1265292553689412
    60   1      3.9660773007222745      17.626359415511317      4.2001829528149788
    61   1      3.6660417299580308      18.899014080553783     0.40006322603303496
    62   1      5.6731983368298895      19.199326992788773      1.6737421149156173
    63   1      5.7400201703189424      21.236693746157151      3.0358159808674148
    64   1      4.0100364470172769      21.571343899395906      4.4835248484451755
    65   1      5.7156180216284485      22.978505941232694      1.2339034853928623
    66   1       5.873235453613928      24.889875755693872      2.5329728966726277
    67   1      5.7820453082039096      26.801264493650116       1.339926879397958
    68   1      7.6139689714747041      24.876824597480535      4.0608249225171811
    69   1      3.8113715694743657      26.786896177466879      54.293255398810523
    70   1      7.7884427554542368      26.719493536651914    0.086992581392564744
    71   1      1.8253917049882893      26.840358196330339      1.2750744186017968
    72   1      3.7480715986473783      28.992534946226087      3.6979491838728902
    73   1      3.9547986366666978      30.572616552763453      54.028987974639314
    74   1      5.6240698629473949      30.709806836036069      1.4298000199056424
    75   1      5.5242358791178221      34.426809232020943      1.3566164291249707
    76   1      3.9480954213021695      32.602222737008319      4.0273630677134289
    77   1      1.9300436465584414       34.22882434504578     0.89590331163368331
    78   1      3.7230168696870227      34.604428315229079       54.01156048503664
    79   1      5.4253662908413078      36.491848551163045      2.5620447590526974
    80   1      3.9287345310790518     0.08045368260663692      5.2476740412609306
    81   1      11.246951838423149       38.35026673975797      54.105038529378113
    82   1      9.4014591022359415      1.7566872915570735      2.8679369897608562
    83   1      7.5522905276415759      2.1730986777471304      4.3820319535974486
    84   1      8.0900176581628749      3.8292209916366367      5.7901022456207114
    85   1      9.3961168605363738      3.6950481941999409      1.4385246736998938
    86   1      11.507891733106742      3.7619821238732576    0.087889339223898105
    87   1      9.4020567673356616      5.8647937981253859      2.8346491965259033
    88   1        7.58511117428829      5.7065511718232624      4.3944594698680781
    89   1      7.4030105034590452       7.522016447720234      54.015725993556515
    90   1      9.2118408420659748      7.8408132944917597      1.2711097098553163
    91   1      9.7712889484283529      9.6663372327620394      2.6404754303514646
    92   1      8.0726540455514382      11.389892292321619      5.2646918361650794
    93   1      7.4345080990302055      11.512020740571927     0.11337624822555213
    94   1      9.5157394452161288      11.528273284794102       1.383256805506087
    95   1      9.7262099469515775      13.383119410257899      2.8037467830338731
    96   1      7.8121344251925455      13.407026696958075      4.0777948753121809
    97   1      7.6823730537052457      15.267018142861174     0.25505056055554848
    98   1      9.6802668059820274      15.237019282920494      1.4919742835025636
    99   1      9.9920299918841309      17.100989338747294      2.6896906649214198
   100   1      8.1156984790126732      16.914189290113061      4.0110687191150394
   101   1      7.7152209575196276      19.095106185366337      0.2724906087585508
   102   1      9.7787124273709285      19.065390583607563      1.5527768324441706
   103   1      9.7676361186901293       23.10825866669628      1.5101595179494676
   104   1      7.6944221933405581       20.82727588651569      4.1598147930330818
   105   1      7.8688774328648341      22.859538665802518     0.15299748217563533
   106   1      9.6444822788183036      24.803514001817067      3.0644695851171613
   107   1      11.767468427151888      24.999486529692312      4.1815585734599008
   108   1      7.8142989132912399      26.686468835490622      5.3783275693888397
   109   1      7.3850618036458169      24.805169456444553        52.9563923812402
   110   1      9.7441699644298048      26.090516621218303      1.1954113456397546
   111   1      9.2781660033720019      30.348975782496638      1.3935244111332732
   112   1      5.7994281894027777      28.702973383034976      2.4846329368254962
   113   1      9.1387087956458757      32.377692409734117      2.7005097553201969
   114   1      11.346150742553036      32.272437753813769      3.7960969787089742
   115   1      9.5901979778685842      34.432189495633565      1.9548552946652875
   116   1       5.614984007524745       32.59714415765113      2.6374490183426911
   117   1      7.4906956494888455      34.418470052852783     0.28384979034633495
   118   1      9.5798508724289473      36.417434737129128      2.9394862942903641
   119   1      7.6676859658712146      38.366584484113588      54.177709522375302
   120   1      7.4942277149890284      36.477997329430892      3.8527933258481424
   121   1      11.542390804929418      36.216448655196622      53.097421035756902
   122   1      13.042656142521492      36.369160713707792      2.7392662895828606
   123   1      13.197849830372126      38.066424705576829      1.3625023414549358
   124   1      11.405540591952375      1.3897617572527086      4.0001913981935759
   125   1      13.498860515653574      3.7245933208203206      1.1030980202120073
   126   1      13.351010297537142       1.738961814383446      2.4714054455668801
   127   1      13.224962174194209      5.6768090708804229      2.7526114185966439
   128   1      11.418647659279882      5.6756384982567223      3.9990785074304651
   129   1      11.260275150668521      7.6390408170259523     0.12163591045533631
   130   1      13.535343071363286      7.4366855440052637      1.0681669810737029
   131   1      13.724765145121546      9.1801351603460937      2.6110587575988125
   132   1      11.713923353565221      9.2439356443363589      3.9514450353376422
   133   1      11.575812778949265      11.468541031664229      0.1899676836217056
   134   1      13.492887595505678      11.149965932020768      1.3750542934219063
   135   1      13.354353513630537      13.205087487997307      2.3989884536901145
   136   1      11.704010407881452      13.067352595804575      4.0453356125628028
   137   1      11.491206018676746      15.390211852041451    0.030139411850996105
   138   1       13.47105495686937        15.1363294307024      1.1024592090741734
   139   1      13.677824760417309      17.301879202757213      2.4832439449583843
   140   1      11.999447710674715      17.170750854172599       3.870172719734446
   141   1      11.531960305187942      19.309889281983988      54.149875894874334
   142   1      13.562321639271163      19.029926576669954     0.98612467924791392
   143   1      13.799236857070381      20.906247548246714      2.4551598271226571
   144   1       9.682172557990036      21.008492895344368      2.7154752978535162
   145   1      11.807561955380377       22.69422166129932     0.33696871373857662
   146   1      14.019617344243448      23.342244517756246      1.3168150424093612
   147   1      13.646179022924194      25.014222265810798      2.8687204538898539
   148   1      11.247225644447703      26.788194160528931      5.5938333418569446
   149   1      11.606758925982124      26.709303418319095      54.039976683943429
   150   1      13.501349810728165      26.706356986414402      1.4577680530571928
   151   1       13.47505955655595      28.468328200126741      2.8622235696314671
   152   1      9.4391592493677674      28.163054793015178      2.5571739920129426
   153   1      11.269670492894655       30.31788817372054     0.21928685861325917
   154   1      13.300616135492417      30.387204937686164      1.3638101914727234
   155   1      13.428514782568358      32.019582939849954      2.7969527539586672
   156   1      12.892655041541275      34.355532265630295      6.5050158581322037
   157   1      11.269797638986395      34.352502030548465     0.20205152551114922
   158   1      13.370140448613929      34.174151108215469      1.5158092682488578
   159   1      10.995177414672776      34.289386362423535      4.8678742914879303
   160   1      9.4072006229101515      38.262002177854995      1.3905593870143416
   161   1       15.47850912077808      38.201324978780548      54.238165963829438
   162   1      17.549716865633293      38.374310562251296     0.97828734450026522
   163   1      16.927415037546066      1.6884820235428823      2.5501894316172629
   164   1      15.258037367467733      1.6835398780055746       3.958190141753767
   165   1      15.565274343278864      3.6759691701565238      54.287046959957088
   166   1      17.440083164242999      3.6900091257597687      1.2995374514890741
   167   1      17.437642075931052      5.6391559021396507      2.5807328283994231
   168   1      15.370142682380704      5.8688780351392804      3.7792492525694232
   169   1      15.526935231400591      7.4750921886997839      54.161806797770375
   170   1      17.264681002816221      7.8413428830437608      1.5578093216069846
   171   1       17.14083879047185      9.8623271997467068      2.8646628175283801
   172   1       15.36963833633736      9.6196760703004305      4.3171360527668288
   173   1      15.568548566758578      11.909335447981505     0.60058183423401468
   174   1      17.661480189531613      11.653094898426296      1.4681992501620922
   175   1      17.413767325577684      13.528620432071644      2.9091743236794079
   176   1      15.428724151516487      13.356078003478554      4.0941737445286881
   177   1      15.599282687872915      14.900209386294257      0.2234907805723311
   178   1      17.390607450320669      15.357368090291773      1.3031816438124932
   179   1      17.447310584872376      17.120055639578371      2.3173332404328115
   180   1      15.508361808120114      17.543054851237986      3.8266256233075877
   181   1      15.357741069805085      19.215535334440652        54.0182985060475
   182   1      17.277498324895834      19.408531797005217     0.92675774461351934
   183   1      17.284842583942002      21.051034328821459      2.7932432262462963
   184   1      15.516818227670482      21.632362692757738      3.6609343710841138
   185   1      15.676496490314758      23.090066619209054      53.889379757623018
   186   1      17.321513493064366      22.923471438470944      1.1686686870983416
   187   1      17.321518458497213      24.786623582462454      2.4494581287305532
   188   1      15.607267771965498      24.859634329298093      4.0006075028047201
   189   1      15.292112496987073      26.876747807177793      54.296552721361799
   190   1      17.170137335920771      26.799219409386037       1.457421194548046
   191   1      17.396164545114594      28.581912656767081      2.8939239272413375
   192   1      15.458699795864966      28.764462945381386      4.3358557807035822
   193   1      15.453706539475927      30.509231028692042     0.19334109180805409
   194   1      17.319101815009745      30.638883892963101      1.4924106610845795
   195   1      17.475579999270057      32.748519183003367      2.9770988176938888
   196   1      15.315753449039006      32.787777526723886       4.129274549284494
   197   1      15.241262797444206      34.343479113980493     0.13597576716283583
   198   1      17.184091141878717      34.445039135416202      1.5790003543869737
   199   1      17.076038106358741      36.485391839319405      2.6341292659338911
   200   1      15.117269796769889      36.349523123993819      4.1110367556047187
   201   1      19.683641102315597      38.292525030071559      54.242064666071123
   202   1      21.578762510593627      38.361489508643729      1.2412090702902678
   203   1      21.008918963546371      1.7414237488590885      2.6594093470091842
   204   1      18.971829350035517      1.8532649341479754      3.7481149037101771
   205   1      19.393359252779153      3.6283327868785862      54.193765607325084
   206   1      21.364006577365636      3.3690895424690441       1.166288676769808
   207   1       20.90698937025882      5.2313709788635823      2.4084034145592206
   208   1      19.174534420410065      5.5046591598140955       3.928719636960317
   209   1      19.119553743902276      7.2432458434120637     0.11215087981947794
   210   1      21.078615941702548       7.450317452606785      1.4477766362057169
   211   1      21.323128546810221       9.305517500296709      2.8233998555463837
   212   1      19.171898299851605      9.3601632869517353      3.7060143496462743
   213   1      19.656182600638228      11.296568243281042     0.32667674325654172
   214   1      21.484131084405981      11.385717098316135      1.5384114089915659
   215   1      21.377684258584086      13.227853297999621      2.6113330484318138
   216   1       19.47258221900929      13.225922557340182      4.1380242030257453
   217   1      19.302766438123353      15.153372788093657     0.11889895764759353
   218   1      20.962171532205833      15.486913912012001      1.7563408653299366
   219   1      21.333539552737776      17.612266339273251      2.7205055039464838
   220   1      19.196958828176939      17.507032393862158      3.8775663031664624
   221   1      19.181601557547058      19.300935530115353      53.841020098961572
   222   1      20.916547953368759      19.390869235398323      1.2275922148937517
   223   1      21.303945575160469      21.188195063611293      2.8642851064633201
   224   1      19.304409700388057      21.361826815147566      4.2425618872191757
   225   1      19.587852621816666      22.735508378366198     0.16071884778897366
   226   1      21.655660889505768      22.862534832567668      1.3582925880301422
   227   1      20.611983613399001      24.658236002310463      3.0514487061984132
   228   1      18.667725263264522      25.070441008293429      4.2071099726721739
   229   1      19.349181283219046      26.871140974205986    0.083290021674372314
   230   1      21.029103047490533      27.023318309824418      1.5514564392034671
   231   1      20.986449877172369      29.204987513007065      2.8118430321295582
   232   1       19.08015818899246      29.308983661324653      4.4210501789546006
   233   1      19.029156417520291      30.416467451868176      54.081796504395598
   234   1      20.970547863404054      30.966000569006454      1.0690503261134956
   235   1      21.207043577573362      32.686854120017436      2.6462923738361499
   236   1      19.395080792661798      32.999550120670413      4.2017394682691362
   237   1      19.068175420103461      34.560748729821775   0.0076515123158514874
   238   1      21.081048809210483      34.376562361815736      1.2366069112559919
   239   1      21.269694926484856      36.488598757504917      2.6339310701902141
   240   1        19.1549368220738      36.766011153020791      3.5975463136617827
   241   1      23.325512795468658      38.240619846206421      53.962658779088869
   242   1      24.968539834376003     0.11861589066769337      1.1398510004104871
   243   1      24.967484436408082      1.6208191338653342      2.7274867545032504
   244   1      23.025357777982666      1.7844523887339561      4.1089547309315897
   245   1      23.088328375205911      3.3631103730052576      53.908788451875253
   246   1      24.847901627690351       3.596625896336314      1.5107455502306628
   247   1      24.647962797386104      5.5075506940308889      2.6672097982545657
   248   1      22.817529917037696       5.656619093119347      4.0010123621751754
   249   1       22.98003059626404      7.1514947115897174    0.027373900187433273
   250   1      25.225330826812549      7.6005954784186143      1.3993532218204203
   251   1      24.980318548601613      9.7547051154459261      2.3847158993738251
   252   1      23.354486905425489      9.0154899452037505       3.669749433070375
   253   1      23.267422813657749      11.139365847723477      54.264993673973272
   254   1      25.140186204270172      11.786918643722698      1.1305731975944153
   255   1      25.118981730949663       13.65090645497216       2.609032861784033
   256   1      23.168472527668627      13.091949528113512      4.0992080082320532
   257   1      23.030377569153263      15.301972257025509     0.45230631620730716
   258   1      25.072097759302462      15.646835478057717      1.4976461928568376
   259   1      25.090109225862765      17.160130073522122      3.1175022688662786
   260   1      23.097732580784342      17.566208352864869        4.36133569098706
   261   1      22.909909939513824      18.987891783345013     0.09190355960785182
   262   1      24.762809790097261      18.843154084614874      1.3208194098921213
   263   1      24.901736255490306      20.884206088834002       2.698940379235943
   264   1      23.221680573416783      21.405852429071992      4.1733412849500366
   265   1      23.194088594673655      22.547754723735597      53.899144986725567
   266   1      25.158638103011189       22.84530151399397      1.0490910530955924
   267   1      25.025080513021351      24.562017829304203      2.6688544728328472
   268   1      22.961812233258819      25.092828414425522      3.5326918569049068
   269   1      22.708358535201103      26.630986452761203     0.13869047313903612
   270   1        24.5017068399466      26.818355661220814      1.5241047162756693
   271   1      24.858761020767556      28.509132192557253      3.1326622065353473
   272   1      22.823408777300479      28.771935087685602      4.2455187882341416
   273   1      23.086161158670119      30.647371797746739     0.17460136031102144
   274   1      25.276232240203168      30.437236832477986      1.8836672485118833
   275   1       24.99730404790186      32.741745926818666      2.7875563992298016
   276   1      23.053090128414581      32.621195448984373      3.9550090750601163
   277   1      23.133515791182589      34.682083741909445     0.27619019456460608
   278   1      25.155389878888837      34.584262981101332      1.3401275673037851
   279   1      24.853324044027218      36.465052874376795      2.6067527608555885
   280   1      23.070941389932266      36.581842178631021      4.0998619385622419
   281   1      27.006636987375384      38.278442329874743      54.076043501383054
   282   1      28.921731481400172      38.388668711348785      0.9934485913991149
   283   1      29.001819302328673      1.6319644613066997      2.8419006558964583
   284   1      27.031398996030902      1.7979873230945818      4.1203156576569846
   285   1      26.957254189221484       3.909804227390909     0.18948709751649631
   286   1      29.196384256133953      3.6097061945456614      1.1938073198548167
   287   1      28.913733445446493      5.4156502205758859      2.7245391843408679
   288   1      26.803418839453311      5.6630189079856583      4.0547741410988341
   289   1      27.277758290988277      7.1805951641786878      53.955484649193586
   290   1      28.707035359784637      7.6504496253346348      1.3932736219695703
   291   1      29.108651906674773      9.5421754448725764      2.5938134878252503
   292   1      26.933676597719792      9.7916021415839509      3.5310838467421957
   293   1      26.988600657682266      11.291887149987055        54.1373763234077
   294   1      28.780681597592526      11.581943542037084      1.3590461101495268
   295   1      28.813295571562932       13.33625145749776      2.8105010420515661
   296   1      26.991257797083783      13.271683038097766      4.1484552114345883
   297   1      26.896880268194476      15.218001400983264     0.23039220588035528
   298   1      28.662338215856117      15.441816887510132      1.7901601249605266
   299   1      28.527669936608664       17.30372324583222      3.0406761912246791
   300   1      26.736123275869186      17.205052483601861      4.6227516740083603
   301   1      26.550257714220869      19.185434521988459     0.16219274743232312
   302   1      28.540394701500436      19.027056665134726      1.6864105687389603
   303   1      28.805430919877182      21.105326427259492      3.1844747866818217
   304   1      26.653995636009842      20.941991961841822       4.128013578419119
   305   1      27.014558135465535      22.851063603372523      54.276564369359342
   306   1      28.471373506154993      22.840695918848372      1.5690964534188412
   307   1      28.642207008367048      24.752012740284282      2.9597515141941018
   308   1       26.61320733726048      25.139868026770003      4.1850258376542566
   309   1      26.788425483402147      26.836428613504104      0.2414856834510147
   310   1      28.731220464144439      26.713360328952177      1.6538462530152767
   311   1      29.066603397271262      28.835851171576142      2.5848075847907941
   312   1      27.088117237244457      29.080712821335233      3.8452916532976928
   313   1       26.67040000909482      30.675933773576471     0.29574061363615578
   314   1      28.786605847390188      30.557946264467724      1.1786998131025828
   315   1      28.924384143270085      32.274107125825019      2.8459036970373517
   316   1      27.067517222328167      32.791905117351277      3.9006183370726033
   317   1      26.966007191900683      34.508300012184598     0.14488678996359547
   318   1      28.932126125932989      34.318363442369147      1.4133156979819097
   319   1      28.733980148306681      36.463053005807161      2.3650430684447969
   320   1         26.672401229054      36.628190642328974      4.0364311726661333
   321   1      31.116978377398983      38.289152577120433       54.23330561655996
   322   1      33.125407736815148      0.3801172427525269      1.5112124245641334
   323   1      32.935639366011365      2.2274709897548197      2.9854449724826062
   324   1      30.957876548055197      2.0396921337916085      3.9589786939784757
   325   1      31.088570425718679      4.0890353851474259      54.159812939166201
   326   1      33.266832620957004      4.3262530084506334       1.264247927893805
   327   1      33.024736694964815      6.3845167947814243      2.3131950946103208
   328   1      30.980369849867255      5.4441425674726531      3.7046707630256503
   329   1      31.167058995437998      7.8345438148478195      54.215268339547755
   330   1      33.704182619931217      7.6789612159377132     0.19411301395085723
   331   1      32.754760818350533      8.9229518784494974      2.6552785505176622
   332   1      31.132056233097781      9.3500248596458313      4.4982781268808028
   333   1      30.719105808766496      11.489081290426535      0.2950595756448936
   334   1      32.851146669151539      11.217188227235987      1.6930405603848289
   335   1      32.794728165660715      13.512496107430472      2.9169248904201495
   336   1      30.782849285556807      13.390730037799548      4.0426696687055701
   337   1      30.407765816451271      15.447296470295466     0.33004359647251263
   338   1      32.475079104148321      15.469433428896048      1.4452997767398874
   339   1      32.460770408621364      17.438458482970866      3.4379683855476171
   340   1      30.511743763451527      19.075152359071076     0.21496326381259204
   341   1      32.508357458061852      18.994109272210018      1.5548880557075235
   342   1      32.873966971166304      21.009893013095724      2.7457845827664737
   343   1      30.866630625126103      21.209718504719614      4.3832433174000904
   344   1      30.579045859014204      23.061663714903759     0.24361004537282732
   345   1      32.853440661500045      23.114977615901374      1.3644675537970099
   346   1      32.521756070733687      25.971821026799404      1.9413245273414281
   347   1      30.860987550162047      24.966342492757231      4.0951200359555502
   348   1      30.593930169143768      26.326175607379536     0.51865456982217217
   349   1      34.232984286170193      26.721346648776262     0.44615174270830976
   350   1      32.551848042370992      28.324302379719583      2.6782189460082231
   351   1      30.913273680551757      29.046887825518283      4.0341244898353112
   352   1      30.682906010744123      30.386843588691079       54.27869088342679
   353   1      32.645177688013938      30.597140138066738      1.4438961143235607
   354   1      32.446235067786709      32.720310827107234      2.5953778101120619
   355   1      30.500916080127059      33.028520601462837      4.1848732113764084
   356   1      30.944181889407357      34.607272384175481     0.05640860793849925
   357   1      32.867852324487316      34.669772252594207      1.2813939187912655
   358   1      32.913747879604699       36.60754852572996      2.6318009256264889
   359   1       30.61756087657912       36.69846215405483      3.8142054894747721