dump/Cu_560_0/steps_41 (written by ASE) 

2000 	 atoms 
1  atom types
0.0      25.526554800834361  xlo xhi
0.0              25.5265548  ylo yhi
0.0      36.100000000000001  zlo zhi


Atoms 

     1   1     0.11077156299761057      25.372570461303024      36.070211131049426
     2   1        1.25284210327592      1.5735567199380898      1.6961694839513706
     3   1    0.027735564913190919      2.5997104948941385      36.030630102777437
     4   1      1.2162286734704437       4.048951954395565      1.8265065724826279
     5   1      25.525383030121329      5.1534078792986016    0.058302404871380845
     6   1      1.1845866998298444      6.5774755882509535      2.0350363896891515
     7   1    0.024240094860841398      7.5891529416395604    0.020083697671771018
     8   1       1.352532484909599       9.034054580302886      1.6894483122823531
     9   1      25.416091448114344      10.233710914615722    0.056865554877208534
    10   1      1.2739080265611764      11.590236790251561      1.8014846505716395
    11   1     0.12341714862905009      12.799917917206002    0.027172343680820197
    12   1      1.3787280712149741      14.080175770741272      1.7255994154403427
    13   1    0.036909574998637541      15.179285219482479        36.0306060465578
    14   1      1.4206546407366822      16.620903410378968      1.5192555048654073
    15   1    0.096881496496273645      17.804768412120755     0.10229171870942072
    16   1      1.1062847403668477      19.282427672029907      1.7465247670678772
    17   1      25.433324788718902      20.544670676232027      36.094942150618046
    18   1      1.3852616982947825      21.761062812248241      1.6624898698508213
    19   1      25.430720944706604      22.951186409727082      36.040377028618515
    20   1      1.3907413122222276      24.323943277420184      1.7297505312003971
    21   1      2.5949791001796614     0.14143939832587848    0.052606076320671449
    22   1      3.7467103759456335      1.3857346255397209      1.8813784586196216
    23   1      2.4902262246042071      2.7360789881905032      36.022989093019348
    24   1      3.7306617407589462      3.7249249604437429      1.8411892979437214
    25   1       2.582252551655829      5.0537981101661824    0.090129992242680076
    26   1      3.8021086335772036      6.3822674067396985      1.8898371412351946
    27   1      2.6329889822535435      7.5925558180013537    0.099901479180926067
    28   1      3.8054907762780856      8.9778108227662177      1.8481296108923393
    29   1      2.5234662881771874      10.190712203753659      35.967603527104167
    30   1      3.7840947585053959      11.380071092916751      1.7785697043101101
    31   1      2.5966138265034311      12.833676675057221    0.090141342954200496
    32   1      3.9367911290145639      14.187984407335806      1.7006714003289285
    33   1      2.7262590961392847      15.251201392797835      35.931323161526898
    34   1      3.8102505844444075      16.675034527320012      1.7656368762164663
    35   1      2.6461009369456336      18.039161323147528      35.980077074550358
    36   1      3.7337235409679712      19.269038356751214      1.8088555482339748
    37   1      2.3745223890667058      20.424937627472659      36.013053126672276
    38   1      3.8319828156707461      21.806402641263055      1.6843787501420473
    39   1      2.6095594005603697      23.095216286576722      36.032245966036122
    40   1       3.803590739123202      24.428164984865504      1.8654426499536285
    41   1      5.1265859572177428     0.19800612582052771      36.061855079921401
    42   1      6.1970997609473795      1.2774966149991673      1.8639724041394274
    43   1      4.9743090281409339      2.5883143858904063    0.032114843545525677
    44   1      6.3052276991969514      3.7870252416189327      1.8618738032566531
    45   1       5.145960835054658      5.2943183314482631      36.077070643961882
    46   1      6.4610171459115042      6.5366036382221715      1.7614510806128565
    47   1      5.0558204704154299       7.667371826412495    0.027751557360204498
    48   1      6.3138314131945705      9.1690576940833672        1.81732069384267
    49   1       5.037948771810961      10.244185036205309    0.038799185358823263
    50   1      6.3439397440160743      11.693648187880495      1.6232944451463156
    51   1      5.0594859155381728       12.77101921811888      35.964587978851519
    52   1      6.4430736161180082      14.047670622709264      1.8055509815929081
    53   1       5.207433414416947      15.356198393246482    0.020940920786290462
    54   1      6.4917548885623484      16.626477896710941      1.9153114723609974
    55   1      4.9989086554943905      17.985335596206845      36.047820594165948
    56   1      6.1838760169756632      18.929343849855059      1.9105158971093468
    57   1      5.0961340274535676      20.409767432735098      36.059935107029183
    58   1      6.4838986580795517      21.688261078746059       1.772354419003783
    59   1      5.0403285868278243      23.195372384095517    0.041213342480887323
    60   1      6.1935094304757223      24.392321327108732      1.6793931527916246
    61   1      7.6010951385486711      25.468518099134513      35.968183578932063
    62   1      8.9114096153625493      1.3024121694609487        1.79471237902295
    63   1      7.5998263295360813      2.6349957201361223      35.928172539596204
    64   1      8.9918711319057323      3.8069820427948162      1.6763051281304218
    65   1      7.5904586357027126       5.142852151424238    0.041546819369318803
    66   1      8.8901737149900111      6.3022727712278046      1.8825398468899281
    67   1      7.6825971959405939       7.679465138995754      36.087764134192675
    68   1      8.8645755072175199      9.0260553138287811      1.7652594268328796
    69   1      7.4756691114894931      10.159000833501734      36.048533633535847
    70   1       8.848893706581892      11.400012147567081      1.8460544059398429
    71   1      7.7472463459429655      12.621147420612919      35.868124972694837
    72   1      9.0620933666539401      13.806912622859208      1.9467054088288029
    73   1      7.5487385645824547      14.926334225821451    0.080643427504548865
    74   1      8.8833555273524496      16.585446419512067      1.6874943397264257
    75   1       7.544278753910489      17.721315343309616    0.049614105536784199
    76   1      8.9151177354072271      19.035658595290844      1.8608606410817514
    77   1      7.6741162137541323       20.43321603934519      36.089535398280219
    78   1      8.8578254137336678      21.750794937001078       1.698613556198314
    79   1      7.4954976102394362      23.013895805283905    0.012027323311610863
    80   1        8.65566058684335      24.405483581753867       1.755310135197818
    81   1      10.004139378338257      25.520876300832068   0.0023798114790565712
    82   1      11.478530925338783      1.4111102587801838      1.5136338401832306
    83   1      10.253278013184778      2.5319238002346371      36.005617072176555
    84   1      11.617223256582932        3.93364061467422      1.6955605650961847
    85   1      10.211936346189411      5.1396201063226217      36.082968773061914
    86   1      11.475313470667929       6.612439152589964      1.7608656516101631
    87   1      10.217021809274893      7.8399496867822966      36.087366960837088
    88   1      11.370968473837515      9.0502575032905259       1.637579955656814
    89   1      10.352117844352074      10.352041088761961      36.054592276947339
    90   1      11.465877814322907       11.42517372315787      1.8658201258578744
    91   1      10.273751917931689      12.727495079874284    0.039930074590051948
    92   1       11.57704028059279      14.056444707678169      2.0439190515516654
    93   1       10.37767070186165      15.174862532372167    0.022396859824368679
    94   1      11.437613240752711      16.564767629273859      1.7486460219057345
    95   1      10.103924957204132       17.76729235943515    0.098175493603855482
    96   1      11.453516684616416      19.116607606342054      1.8203696302878829
    97   1      9.9979356155856429      20.326590090808416    0.082036731365667429
    98   1      11.330371731431068      21.750851720236238      1.8580040622977112
    99   1      10.152175851932691      22.942081262082812      35.947438656728004
   100   1      11.329992817918061      24.416709849218496       1.671475697847471
   101   1      12.600409827895877    0.057611061631727016    0.027084328428406947
   102   1      13.972586154982524      1.4985154217547494      1.6150793736591247
   103   1      12.881949184586926      2.7210459011534947       35.94022677928551
   104   1      14.207194378337503      4.0371572997512981      1.6238311700223893
   105   1      12.939439842803553      4.9908478829136946       35.99786762426465
   106   1      14.041478011835681      6.6107363661127936      1.6668447381190048
   107   1      12.704802443633412      7.6979538302645549      35.949219901705384
   108   1      13.993121027307739      9.1057758791399337      1.9193650884285818
   109   1      12.892905756138191      10.177995475835685    0.018558909257944851
   110   1      13.868918038267234      11.550143985701446       1.864760199348577
   111   1      12.839714021385493       12.76550082880145      36.053589740120081
   112   1      14.079560230165544      14.081174331095612      1.9738352864635222
   113   1      12.775035721279982      15.265651980726059     0.13650806720344244
   114   1      14.059185663507019      16.734315031487185       1.805823596930008
   115   1      12.715715626925544      17.970878796392174    0.024977650137032008
   116   1      13.883344929500883      19.225094901913934      1.8675168232064487
   117   1      12.732459044983932      20.426371755214106    0.054890954902566548
   118   1      14.007262309151082      21.621954158977637      1.8002066182581744
   119   1      12.619237624971033      22.966890839506579       36.00954109911634
   120   1      13.938137582852971      24.480772187235775      1.7888490502155026
   121   1      15.270594208984093    0.084427542196284538      36.097909019151125
   122   1      16.573911098873339       1.186020010900412      1.7136228493082752
   123   1      15.359078350078748       2.754941898570693      36.073645316983395
   124   1      16.831954702256564      3.9639755430305135      1.8318006479738982
   125   1       15.40038405755587      5.1855809527191274    0.043932966585827994
   126   1      16.461351863885767      6.3472780217016611      1.6233022957256937
   127   1      15.221048250826389       7.761987424791263      36.038948567141794
   128   1      16.453224012393523      8.9273803003662966      1.8336400550998992
   129   1      15.395812037871595      10.336484896090964    0.033246640955485428
   130   1      16.357274669966923      11.478401045505379      1.8728055960758527
   131   1       15.35257308967789      12.867922621033994   0.0040521518866057779
   132   1      16.527380480857456      13.932970237273162      1.9157411009929899
   133   1      15.341652854386824      15.384046666341101      36.087568039262713
   134   1      16.457958373886466       16.56220463003952      1.8324574296983427
   135   1      15.230779122352848      17.982754619526283      36.088815911046943
   136   1      16.449813893917565      19.252904006865929      1.6805402532262075
   137   1      15.256680199201936      20.419739546527875      35.933226813714406
   138   1      16.335609626574751      21.782121627954123      1.7294519570037652
   139   1      14.970690680728174      23.079287808630937    0.014197170730892585
   140   1      16.546957982863955         24.250013136379      1.6510213152638349
   141   1      18.014013244431546     0.11054179791789301      35.839611515773747
   142   1      19.330575413608294      1.2722525936920319      1.6027826915809433
   143   1      17.974261362796913      2.5212467959594496     0.11112171817717358
   144   1      19.135501336822294      3.9625199892261112      1.9223693359144929
   145   1      17.909344529809452      4.9960513562019884    0.008755539868229795
   146   1      19.032081385420717      6.2791065905703478      1.8086854955443872
   147   1      17.773978175241265       7.562935307816181      36.095387371761092
   148   1      19.224804468988903       9.063813042395882       1.848332058577387
   149   1      17.744103919247454       10.05447171001023      0.2271029373853479
   150   1      19.036623520952833      11.376504466821945      1.8529445220615117
   151   1      17.855182287398769      12.630735264902949      0.2081211495289266
   152   1      19.199298822610139      14.019300820141684      2.0287001153139368
   153   1      17.888997642898275      15.352231813871175     0.31334704912322858
   154   1       18.94549789390868      16.564804404211223      1.7237173556468408
   155   1      17.851755893469814       17.82626139257982    0.068981994167677391
   156   1      19.105533887810122      19.175183484573239      1.8364419061321782
   157   1      17.910428435155527      20.443431284471551   0.0048689778497532704
   158   1      19.205193495748798      21.605821327813437      1.9602592116506243
   159   1      17.602635307845492      22.887270504714163      35.943309429339017
   160   1      19.039704139602794      24.113393734845378      1.8018225934539946
   161   1      20.337261952271611      25.464854824438262      36.047092399644008
   162   1      21.614866553970877      1.2171117892058396      1.7263169060027523
   163   1      20.569107261029785       2.510241037918806      35.978076081587083
   164   1      21.806896427363359      3.7222738829782855      1.7577751615863566
   165   1      20.531937002323783      4.9365230544638825    0.096257859705053614
   166   1       21.73221469468951      6.1761402609006355       1.657911787579893
   167   1      20.271145384169142      7.6127552986410043      0.1816945698276867
   168   1      21.735273257108688      8.9222126175005609       1.855379814808249
   169   1      20.144266917007311      10.325076455758657    0.049132039689402517
   170   1      21.652543540448029      11.295255478651576      1.7034300465369945
   171   1      20.655845535070345      12.865341355055548     0.17531508033519011
   172   1      21.773399799823991      14.056575444031354      1.8511687271209762
   173   1      20.401646228523873       15.21046623237771     0.19716709128109647
   174   1      21.914603202470939      16.448963074051758      1.7215096987120884
   175   1      20.536335500513683      17.939762542059349    0.044390950372144446
   176   1      21.685570997446003      19.095076414375324      1.8662027799929786
   177   1      20.624772858927912       20.29783527289522     0.18237584414169972
   178   1       21.68346847272894      21.662869482688638      1.8155418788793227
   179   1      20.379169272777716      22.832823441304516    0.076444768933072255
   180   1      21.646215820796687      24.234474257731939      1.8730899469572364
   181   1       22.91468650127835    0.044421326460914387    0.056165097613495502
   182   1      24.192973742354855      1.2751166449528755      1.7032709360085978
   183   1      23.058647978525521      2.6190526913112593      36.050717189842608
   184   1      24.180048726037661      3.7976420261988402      1.8457126921125435
   185   1      23.122141930427357      5.0564780248927095    0.036957298070854155
   186   1      24.143944181993025      6.3136584986020932      1.9755070548546445
   187   1      23.022296072679222      7.5306588362292182    0.028258671269975374
   188   1        24.2257050888709      8.9934719401805516      1.9131372097277577
   189   1      22.709701389097493      9.9752254093158754    0.049735878807905344
   190   1      24.209716151527164      11.455764821674661      2.0140335606801161
   191   1       23.16365386579869      12.827098581261975     0.14508547676007305
   192   1      24.148686258114875      14.070543810968697      2.0654402887588943
   193   1      23.091717879910821      15.406878187815927      35.954224789153166
   194   1      24.398797010214754      16.638105947071985      1.7825919779799622
   195   1      22.966905625109909      17.903584917588603    0.071602293107491666
   196   1      24.233097953894607      19.003809678855703      1.8601808753345053
   197   1      23.122299577149541      20.422349965726248     0.19213298913173257
   198   1      24.400161810217881      21.605475643661222      1.8266235371458823
   199   1      22.977160625718859      22.960833339490414    0.059228368180413167
   200   1      24.166118943112536      24.097835512721534      1.7629222114217562
   201   1      25.513376423950088     0.03031236791176407      3.2678440016724375
   202   1      1.1434195209874276      1.3056684953411768      5.3173032444456156
   203   1      25.386457476099501      2.5636634712371014      3.6195904413001152
   204   1      1.1625937327175682      3.9089916876206043      5.3021979265809858
   205   1      25.476048061820222      5.1082533178565788      3.5759266904818805
   206   1       1.171476554790579      6.3712753223254186      5.4204494132106413
   207   1      25.507522934987914      7.7058648114938944      3.7039030856308583
   208   1      1.2388495921524394      8.7594794136067708      5.5446898762336305
   209   1     0.11500419127540204      10.396606769024842       3.653070726745606
   210   1      1.4096720831575507      11.562816692066958      5.4524099604869738
   211   1     0.24450204615483803      12.820721690202967      3.8053439487042806
   212   1      1.5432784224380764      14.142266369085061       5.325929605408791
   213   1      25.481952315212101      15.384740426147363      3.6835282204142139
   214   1      1.4770213832365198      16.664121804676689      5.3579548604751306
   215   1      25.439735199363952      17.991991770119064      3.6228403955555293
   216   1      1.1982344110157992      19.139740435634362      5.6007382973282818
   217   1    0.050845504642121682      20.445647541126988      3.4943771932214984
   218   1      1.3644124484591549      21.685008926059371       5.194269485101259
   219   1    0.024877923918769126      23.021443335454432      3.4196157966342429
   220   1      1.1721880040801045      24.287647274867314      5.3146943187816174
   221   1       2.448224311562587      25.477149368646057       3.668964304706634
   222   1      3.7127008272578546      1.2578655897630653      5.3115086279987098
   223   1      2.3911889562919857      2.6673194328667131      3.5469355849506878
   224   1      3.8997198184971653      3.8505456112704737      5.2052660095634611
   225   1      2.4009812797519059      5.1036964982421891      3.6765054356387354
   226   1      3.9127374196129492      6.3311093899345758      5.4256680536042063
   227   1      2.6696863639586534      7.5889825814403551      3.7517578035241206
   228   1        3.71573393362719      8.8545886415571058      5.4895784474436793
   229   1       2.619347245297786      10.059551854591369      3.6791923709319403
   230   1      3.8638962676336028      11.407330714989579       5.609228091174332
   231   1      2.7159446094516451      12.712548510891745      3.5727915374982127
   232   1      3.9490849048238617      13.909318481042641      5.2986975364199189
   233   1      2.4851408969508109       15.25219783416871      3.5893105486995536
   234   1      3.8779673059090864      16.471549524746724      5.5837696870925804
   235   1      2.5546422434910774      17.754348330641726      3.4797790981688097
   236   1       3.774563905848118      18.920493693826515      5.3860295304929764
   237   1      2.5498935831084024      20.435573526570515      3.4281775988722423
   238   1      3.9227851411793222      21.467851390849955      5.3695241297711522
   239   1      2.4440401646413794      22.959288935635922       3.547855779125392
   240   1      3.8900755641180149       24.22159012689697      5.3300695200597907
   241   1       4.916284467237702      25.525599861715815      3.6121402416824115
   242   1      6.3106700431523963      1.1894477953704248      5.3452193094364455
   243   1       5.046994513986613      2.5267649121258895      3.4264849547482519
   244   1      6.3951673920936551      3.7895652394883226      5.2664749818204664
   245   1      5.1432680555796244      5.1851866869740553      3.6073107546644563
   246   1      6.3109237329769368      6.4463911621852636      5.5124656220464701
   247   1      5.1745303209244469      7.6735270436443734      3.4798498826498974
   248   1      6.1438442865361598      9.0809382688232816      5.3757349427139909
   249   1      5.0118298970091644      10.185831496152085      3.6554626421894563
   250   1      6.3334171160047052      11.618885174941626      5.2715701239467077
   251   1      5.1491008011822004      12.812921516332869      3.5474895746169288
   252   1      6.4122945113728314      14.052464300767186      5.6056606957509585
   253   1      5.0789347355205203      15.411985819144684       3.653687431626865
   254   1      6.2913311151409372      16.520207353865157      5.7219178075349912
   255   1      5.0615469159140432      17.686062933125399      3.7583801339295118
   256   1      6.3384394531652708      19.251778959533222      5.5929472185330349
   257   1      5.0254431780339255       20.47317278222399      3.4670141991419188
   258   1      6.4264902816568705      21.678617004827284      5.2602206603422035
   259   1      5.2046690977898304      23.066596934590947      3.6241954861813745
   260   1      6.5224022601378326       24.23687331210057       5.456000047623113
   261   1      7.6608126996053914      25.358095417947482      3.5071312189785315
   262   1      8.8397614531018789      1.3428976935469901      5.2828939271455617
   263   1      7.6564126232056013       2.615409333767198      3.4961485397705689
   264   1      8.9383116048381339      4.0846028442251843      5.4765795502974184
   265   1      7.6548202926455922      5.0753811997485787      3.6143251326490224
   266   1      8.7942899261291601      6.4856479807093299      5.2815629459345717
   267   1      7.6223727019795984       7.758043195164178      3.6426651064276965
   268   1      8.6797228849372878      9.0601658268423346      5.3818291127751374
   269   1      7.4944704026984725      10.273489841934063        3.59707239621881
   270   1      8.8477123284206538      11.531670557708656      5.5100839523399676
   271   1      7.6463109252332933      12.934374816667431      3.5809077239146756
   272   1      8.9006590183231591      14.121544445154072      5.4944694890427206
   273   1      7.4964924965645094      15.422557876856166      3.8109866653779183
   274   1      8.8425417112943787      16.620974865981037      5.5551743294457969
   275   1      7.6725210407018434      17.876811392993421       3.584935518811005
   276   1      8.7602743374133585      19.266540615231925      5.3655326876089848
   277   1      7.5251227321047107      20.368481716403203      3.6162684745035167
   278   1      8.9720900962614465      21.915027903090412       5.313907682712526
   279   1      7.6713731177840332      22.948354686049164      3.3586138402768837
   280   1      9.0861880879789361      24.330728737606325      5.4425940903157768
   281   1      10.177164845107594    0.086276952486495265      3.5342312815010595
   282   1      11.444966663992362       1.112367263410426      5.3666711654018568
   283   1      10.283275677558164      2.6276221001785935      3.5492231920620618
   284   1      11.411773444112155      3.9326871686910061      5.3946689986135743
   285   1      10.207559855023408      5.1921308697734814      3.6129723930457147
   286   1      11.316082831987869      6.4832563156633034      5.4801669057480389
   287   1        10.1106277607844      7.7749832929246274      3.6361667805502536
   288   1      11.379140978541672      8.8451843040891767      5.4755073317532075
   289   1      10.113897783768532       10.01771052297768      3.6629898269804588
   290   1      11.491562320138028      11.441169506368597      5.4664756753158654
   291   1      10.206435858409536      12.742994465113004      3.7851462488896259
   292   1      11.229365092795854      14.330700117570785      5.5244401894925312
   293   1      9.9900107817496622       15.35432264634826      3.5246338577328404
   294   1      11.466277296664373      16.639516887477455      5.3355624162463728
   295   1      10.322598250963317      17.727559059451355      3.4745420110139902
   296   1      11.366866074222495      19.197416475445678      5.1418249204630184
   297   1      9.9284226639390152      20.437484307870989      3.6129859810552811
   298   1      11.620276267955104      21.640428092226024      5.3441314326376643
   299   1      10.242359852116186      23.107409279612806      3.4596668274234852
   300   1      11.482135506163662      24.158258381649464      5.4536465613884495
   301   1      12.722786480794056     0.16325527069271015      3.5424850799166641
   302   1      14.060250338990873      1.2486908059784316      5.3681838616296815
   303   1      12.660975503098189      2.6744482123062365      3.6341497217034724
   304   1      14.018008546024742      4.0261929891944108      5.4109596061308673
   305   1      12.658187656657431      5.1959555699309385      3.6538044287863403
   306   1      13.894257409996005      6.4444060344193588      5.3841748466578307
   307   1      12.710479705599445      7.7179411093253716      3.5510544328273101
   308   1      14.068263577467054       8.903664132479495      5.4565727479726354
   309   1      12.600474594723281      10.031893864322811      3.7736524360818633
   310   1      13.959559421092521      11.657296468874121      5.5204332195737535
   311   1      12.783867907741641      12.790207060217041      3.7006919498005666
   312   1      14.148493310146266      14.214921786871448      5.4705280174929287
   313   1      12.622983903233354      15.377652493270476      3.6336273738040554
   314   1        13.9778716001075      16.662880778668775      5.5173662515621258
   315   1      12.805837850974964      17.858192678279124      3.5307064490830284
   316   1       13.88223061703596      19.134251255958215      5.4448837142203779
   317   1      12.688732997109875      20.342998632231346      3.5394241094938019
   318   1      14.094303164424272       21.57960184426307      5.4548959755448632
   319   1      12.694609451289308      23.059014514449434       3.439180094488735
   320   1      13.959877900406456      24.178812540617393      5.2924736484670323
   321   1      15.124747158443681     0.11537684739143532      3.2692485078492157
   322   1      16.652940569524059      1.1320335207846239      5.2837006480556266
   323   1       15.30159931810396      2.5328631096011054      3.5089806848387863
   324   1      16.506018906865219      3.6429850388008824      5.4030699316815962
   325   1      15.305849891182978       5.276430936457289      3.6211142353451029
   326   1      16.656744645723261      6.4136350046611916      5.5818889085810577
   327   1      15.416819034247762      7.7059202682096277      3.7287513061477995
   328   1      16.773191589359634      8.7675250322504681      5.3844685603872371
   329   1      15.182244672957745      10.336235296560451      3.8032763925738715
   330   1      16.817241282303293      11.505724958649182      5.4654808993791377
   331   1      15.519834244385336      12.948580910272817      3.8625878247404857
   332   1      16.811201954503069      14.145816982685893      5.5688059549799966
   333   1      15.410451019527521      15.527984811142995      3.8191928893600227
   334   1      16.614782226597814      16.721696824401473      5.4969183596947602
   335   1      15.207382316397819      17.958342583456702       3.503470851935151
   336   1      16.450313427083866      18.988881198975086       5.504120841511873
   337   1      15.417835983034267      20.338130134540201      3.5513709311533606
   338   1      16.547735091678266      21.655810614374566      5.4717270771717921
   339   1      15.310685078021542      23.071390679688719      3.6484299237355704
   340   1      16.545192730900748      24.125676105112035      5.4713872154322098
   341   1      17.606330553324163       25.21965176365584      3.5286745326659696
   342   1      19.128557842753487      1.3644860152777611      5.3176332151196277
   343   1      17.792053811728071      2.3383862240106978      3.4284275066670942
   344   1      19.083763310938316      3.7333663960853603      5.2620886031575438
   345   1      17.636348991113518      5.2799802190173493      3.5324871338596724
   346   1      19.261830450251232      6.3988165802665087      5.2787121372123726
   347   1      17.964686081176541      7.8220032001802107      3.6075060116839484
   348   1      19.346246825373928      8.9233255513893539       5.266206383419564
   349   1      18.015134013653558      10.126330858226266      3.7500845645906651
   350   1      19.178396017244637      11.512389807133609      5.3437530268645466
   351   1      17.929740021500717      12.871910524755972       3.701214108472485
   352   1      19.209530308745613      14.089241821966668      5.3388212087356948
   353   1      17.937649992970744      15.386645400902914      3.6509127016188798
   354   1      18.996372133564538      16.668612401179832      5.5610275373666029
   355   1      17.741965666919437      17.928283187171385      3.5639674001758879
   356   1      19.017273821394728      19.188859450808103      5.4542200143222503
   357   1      17.656730780961961      20.389815076705197      3.7249551249902244
   358   1      19.040746494083056      21.769240022401789      5.3999892143940826
   359   1      17.787334655241249      22.775038696564195      3.4711033334252428