dump/Cu_560_0/steps_11 (written by ASE) 

2000 	 atoms 
1  atom types
0.0      25.526554800834361  xlo xhi
0.0              25.5265548  ylo yhi
0.0      36.100000000000001  zlo zhi


Atoms 

     1   1     0.13059274344352739      25.257741491531032      36.083387026825683
     2   1      1.5154080418415379       1.154944251043919      1.6349843799484902
     3   1      25.524923568764731      2.4750704873871903     0.17252148723422345
     4   1      1.3441003988731464      3.7715201254419819      1.8113414722671461
     5   1       25.39922189798029      4.9252880053768706   0.0055122778812005972
     6   1      1.2173702243589255      6.2313259113634016      1.7839097105120347
     7   1       25.46251850652077      7.8464471509459486    0.065202428261579765
     8   1      1.2419816873011145      8.8632607027131911      1.8594590855932083
     9   1    0.058727789077788722      10.378366931835448      36.061328945524579
    10   1       1.242831823740209      11.441880564379856      1.8616630727941033
    11   1    0.011693325729521921      12.793990577512622    0.033318052016943503
    12   1      1.2352912407933612      13.908860618857293      1.6890451823502206
    13   1      25.487076162833201      15.278159838561702      36.086814360142235
    14   1      1.1305167459230632      16.630012672575369      1.7946326620492059
    15   1     0.02189444121016363      17.789748970061218       36.05266049892591
    16   1      1.5727596306556848      19.018453507574186      1.5968863290987994
    17   1      25.467780952120659      20.371613867494261    0.082200762617594542
    18   1      1.1312356118055822      21.608256083071076      1.8260537667917334
    19   1     0.11050667751169092       22.98720251575115      36.001419413021942
    20   1      1.4228837044975158      24.301135513887857      2.1082998432681608
    21   1      2.6892296770035382       25.41176777025645     0.16951226629947755
    22   1      3.9835181291208475      1.1960505922771654      1.7385685579400159
    23   1      2.5574540872949649      2.4327018148163626    0.083918468232570709
    24   1      3.6687974068071028      3.8566996088212768      1.7011949131017892
    25   1      2.5219228701868914      5.1598879066910008      36.089570272684547
    26   1       4.011518064905303      6.2877247232475497      1.6390647598486663
    27   1      2.5746138224798907      7.4956224135903504      36.089228984263094
    28   1      3.8165553169187931       8.737831694120695      1.7665732201931637
    29   1      2.5223656251791735      10.146324971340421     0.15746719657396399
    30   1      3.7275358243786783      11.657699321802413      1.8279237953450205
    31   1      2.5653053706903219      12.762819486860767      35.938168684755858
    32   1      3.6720238357140964      14.136376980729151      1.8339872730396007
    33   1      2.5000420975883664      15.363924600948115      35.998526880998376
    34   1       3.864701210574728      16.593467842081708      1.5765508930499199
    35   1       2.544748593527618      17.718048245058583      36.047618924305368
    36   1      4.0213870379510102      19.091768221225976      1.6100178748339555
    37   1      2.4002062875007661       20.52738272900492      36.005879706568415
    38   1      3.8052865255449717      21.349200067191219      1.6750752364226302
    39   1      2.6894647367378148      22.849686004878468     0.11340149534455576
    40   1      3.8429384282393064      24.077759487784931       1.751094333288655
    41   1      5.1865247326516695      25.464620939582012    0.043320268696527317
    42   1      6.4434806087242613      1.0804084164653796       1.617295954578742
    43   1       5.060048656759828      2.4401614936222384      35.959772583893702
    44   1      6.4614786275679013      3.8817380688505416      1.8130822814900391
    45   1      4.8801767588188687       4.936831225465351    0.045041690442155939
    46   1      6.5481111734981496      6.3911450325912229       1.785377971918398
    47   1      5.2746758685833264      7.4965319782821984      36.010368867897334
    48   1      6.3677031637557997      8.9798498683227788      1.6525820094553878
    49   1      5.0517777330557445      10.151314755894223      36.060829673766428
    50   1      6.2111592281109509      11.362505679944542      1.6938675215822052
    51   1      5.0251400029321012      12.787759421521899      36.093866680093726
    52   1      6.3351806612124815      13.840753699978327      1.8454764470423142
    53   1      5.2270148250298867       15.25188146973478      35.887471044532127
    54   1      6.2681079527920174      16.578592662291097      1.8611961609516585
    55   1      5.3237850485066494      17.895803284397136      35.877828968645012
    56   1      6.6134628778780948      19.147186115109999      1.7664035937589684
    57   1      5.4440380321017443      20.495435468218862      35.914220866750746
    58   1      6.4683156581917904      21.690674505269147      1.9569101641196527
    59   1      5.2469782025795002      22.957614629106967     0.18027154895455613
    60   1      6.3522722829394214      24.204987844126563      1.8887549856882753
    61   1       7.807957456407367     0.11641890619511798      35.924611589834363
    62   1      9.0553299275808676      1.3803029297192029      1.9738179015423958
    63   1      7.6425957107126301      2.5643043107192485    0.096818728638652304
    64   1      8.9557781770178622      4.0101961710779577      1.8873902464093353
    65   1      7.6800813233442664      5.0798691463673791    0.023320177174207396
    66   1      9.1502142816553764      6.5335981315766967      1.7875675502497059
    67   1      7.7834790572287726      7.6237730634177892      36.090726384160057
    68   1       8.888223268608467      8.8335551210790832      1.9313878355390117
    69   1      7.6965473665057091      10.306609742142268     0.13366194624815075
    70   1       9.023260068844678      11.425181653965044      1.8596221277787994
    71   1      7.7383209980631937      12.945848120813091      36.091874851945654
    72   1       8.825390884785774      14.016989524980765      1.8199716447893837
    73   1      7.6232561474895988      15.452401566884433     0.10036529398311149
    74   1      8.9028617570144952       16.68642210572143      1.7241267203310704
    75   1      7.6645146661235275      17.806136969232522      36.010823074404037
    76   1      9.0740202149571338      19.022042483443329      1.8656563391484391
    77   1      7.9362993287957195       20.32045352820349      36.012242452854004
    78   1      8.8676478593182875      21.738849175328937      1.7694077859832418
    79   1      7.7743170285011844      23.106448719367542      36.089134145318923
    80   1      8.9210037665141595      24.390360579356464      1.6916082265937236
    81   1      10.243858840313401    0.096583802972333863      36.013271455882844
    82   1      11.497384250776649      1.1357641232989826      1.7973934254079507
    83   1      10.129132733592382      2.6862861881204392      0.1496356434211292
    84   1       11.52871221647495      3.9363134374407833      1.8097637199348113
    85   1      10.435444564655169      5.3528004043320809    0.080692152278868612
    86   1       11.75011084684872      6.4484563095376162      1.6901587501178388
    87   1       10.54153863658367      7.8030115233441428       36.01821225763932
    88   1       11.57965072208467      8.9473884335602545      1.9685705912638023
    89   1      10.226139604436176      10.199224212796619     0.17018012126169438
    90   1      11.318619710177355      11.403254574417147       1.941795248361383
    91   1      10.384173462439419      12.871391986893382    0.051082229148164612
    92   1      11.255400600460639      14.140621961557953      1.6953124585680368
    93   1      9.9834834839957765      15.247898602256509      36.098367660513986
    94   1       11.58437910540934      16.707815463071828      1.7649564502106496
    95   1      10.294695733430022      17.626868241130868      36.011805447427548
    96   1      11.690638141734334      19.252484564307583      1.7454790692378759
    97   1       10.28901601351143        20.1908798485555     0.12347907806636145
    98   1      11.461061529202041      21.672886840614073       1.686500574677517
    99   1      10.327516411640817      22.897668937131346    0.066295441556667209
   100   1      11.526120033450551      24.255077257452957      1.7549037427811514
   101   1      12.829973342289515     0.12008953284302491      35.845369673861448
   102   1      14.365530999043338      1.4419051203956212      1.8763423906827013
   103   1      12.721552451437468       2.524853082227934    0.034237808649993456
   104   1      14.090672323027537       4.104114050072722      1.6167212855072193
   105   1      12.959354567773721       5.365644324347068       36.00403075012688
   106   1      14.330373666552511      6.3749428798873868      1.9187649207184094
   107   1      12.988701962716718      7.9526982616839437      36.084304483263374
   108   1      14.118386888032671      8.8001641394045791      2.0322985362866111
   109   1      12.769281818181776      10.301552499348627    0.053379434452790628
   110   1      14.143900002280448       11.33963254482137       1.851913166729674
   111   1      12.832497153389198      12.971927348783922    0.091279782484605124
   112   1      13.827642667775539      14.070226178830834      1.9475193852737556
   113   1       12.57303922138952      15.312498499023162    0.090533381898353693
   114   1      14.104814772643294      16.480050659011944      1.7854629433483522
   115   1      12.927747890586092      17.927873447393029    0.027439367615522764
   116   1      14.047405299756992      19.125086925105972      1.8620266688835285
   117   1      12.770905327218212      20.472256635677116      36.060069816255393
   118   1       14.08882392348354      21.603251369886337      1.9591513034010637
   119   1      12.728693585352417      23.206997962527819      36.059857521315998
   120   1      14.130498554241493      24.213197660022942      1.7161704226081156
   121   1      15.389187667301393     0.02730886948495715      35.993405603236944
   122   1      16.840180458644813      1.4426305408453364      2.0256638426238287
   123   1      15.269139967690966      2.6130127830900824    0.048532332618731286
   124   1      16.534280693264616      3.9422306105860367      1.8325855943091951
   125   1      15.526021013060261      5.2389601456310828      35.900717220203319
   126   1      16.752756216577442      6.2862587181242713      1.7229010983840121
   127   1      15.436344018857136       7.749696924925245     0.25916085786184345
   128   1      16.824366344929075      8.9415599066523743      1.8092620279201137
   129   1      15.487891850955222      10.222030191546564    0.022695352000664564
   130   1      16.672892752158113      11.414831717983407      1.8504147448269108
   131   1      15.397755290405717      12.610241688416425    0.012527638632320764
   132   1      16.490847699062158      13.933997951860249       1.831732159056696
   133   1      15.323940586123202      15.101438887400871     0.10108332578944318
   134   1      16.494505309321834      16.486873927981897       1.784866886623796
   135   1      15.465860859113022      17.688249655361432      36.095705915272518
   136   1       16.41147513268719      19.146162415320561      1.5581134741103819
   137   1      15.345469976911771       20.37345503444573      36.036365933089151
   138   1      16.611722974675832      21.930975383770758      1.8225290815998947
   139   1      15.266091446913482      22.911619726400783      35.896489846804904
   140   1      16.628004793243651      24.318637203113379       1.736476353584546
   141   1      17.750762769342455     0.15730454205039673       36.06302078558867
   142   1      19.131493426938285      1.5074232961087068      1.7094218444627143
   143   1      17.755866142837185      2.6351279464657567     0.03617853096745878
   144   1      19.210766766459816      3.9324439545478937      1.8393550883460321
   145   1      17.896116955040625      5.0698520757751764    0.068776114745230585
   146   1      19.109565225007966      6.4245868758845281      1.7820192171565838
   147   1      18.203323829763587      7.7233281986944284    0.075409947307355299
   148   1      19.199627412166954      9.0469422750523858       1.753201204193408
   149   1        17.9143673633106      10.227286442428294      36.068666215612758
   150   1      19.166806207556345      11.605846849289255      1.7074602680327549
   151   1       17.84242640256862      12.801387253048013     0.10451072235009627
   152   1      19.187106451679618      13.988791404009714      1.8403245283098957
   153   1      17.891260620095888      15.162988648307074    0.093481298946528402
   154   1      18.987444633519434      16.567133772347461      1.7998843578773627
   155   1      17.850800453717131      17.859890706626036    0.050696846032133105
   156   1       19.04635358677038      19.031687646550367       1.754849284582235
   157   1      17.816102549444601      20.345119402745571    0.039980993085146209
   158   1      19.099097059675941      21.594210700906267      1.9225035688851231
   159   1        18.0473602650911      23.063684988874925     0.21943048660607489
   160   1      19.237814388666354      24.626460230909778      1.9438381698595093
   161   1      20.487426431816793      25.523408963147734      36.067552303688061
   162   1      21.673524919615716      1.3607802016096671      1.6276896749053875
   163   1      20.480165768008494      2.7399966725417841    0.010396587414470573
   164   1       21.71015783503379      3.8767113703229743      1.9517134196138277
   165   1      20.542958667262461      5.0288629801084719     0.11903044698666447
   166   1      21.601383504928815      6.3412755873174094      1.8881318289072615
   167   1       20.58618094861464      7.4831716858757131     0.06782398944038745
   168   1      21.594330179384912      9.0924612288886877      1.7045983479908957
   169   1      20.515743097485341      10.249812119064144      36.052089623507285
   170   1      21.629354084649908      11.750012132394708      1.6019912699566581
   171   1      20.329852672828114      12.813751438333997      36.046311339404298
   172   1      21.705123758428854      14.127333561091675      1.9533821713803252
   173   1       20.43259212594651      15.240371038115644      36.056325391991756
   174   1      21.704507123036155      16.782149232862217      1.8312421083234312
   175   1      20.309994914133064      17.585132569928842     0.11120926258320193
   176   1      21.745576109634815      19.062143431563207      1.6922141780036541
   177   1      20.374080669837291      20.316023468915819      36.078596543895927
   178   1      21.659576498021938      21.580037311576461      1.6952641766132392
   179   1      20.588708891350741      22.920354528262987     0.27785246269238534
   180   1      21.817831046225507      24.294314880956641      1.9046832044546831
   181   1      23.033274157995788      25.462619172866042      36.005858506209854
   182   1      24.235008028741568      1.0669653186423649      1.9021697593916331
   183   1      22.965670236171025      2.5713160959779433      36.092275754704538
   184   1      24.205994920180224      3.6740228056089581      1.8144814472421322
   185   1      22.950381685551395      5.0785060510215807     0.10029310689477612
   186   1       24.25954975330475      6.3770365330943983      1.8463036792498417
   187   1       22.98587318109907      7.5866243686951007    0.086647806705377736
   188   1      24.053532859200715      8.9580316612237407      1.9431704551424218
   189   1      23.020571252697049      10.293977692058837    0.044953003550517609
   190   1      24.346180995215061      11.459400791376172      1.8572675716722769
   191   1       23.09414138146068      12.902585861640791    0.045633749302260156
   192   1       24.27033852095056      13.919075593905944      1.8192249743301661
   193   1      22.837219144268058      15.440916988943048    0.066422472497504437
   194   1      24.161755654465498      16.545903547130994      1.7269727771229455
   195   1      22.851782205099678        17.8361542285197      35.810238177916069
   196   1      24.279097156420224      19.093251560658423       1.725710388338543
   197   1      22.895197085022158       20.19132448284649      36.016265317644844
   198   1      24.244186369650272      21.662583474022114      1.8930321475090079
   199   1      22.893743422313186      22.966245280888796    0.054489879147877063
   200   1      24.388445326584794      24.271452943442103      2.0105467648448117
   201   1     0.13920341755300025     0.11119983883382038      3.6235767614451895
   202   1      1.2636881027212656      1.3128000485034834      5.4220600481582677
   203   1      25.524804215037861      2.3306847406402276      3.5709631541104967
   204   1      1.4581321920973442      3.7798900251532679      5.5311182097316181
   205   1      25.430797607976931      4.9575451035438407      3.5443505369269146
   206   1      1.2787294530780313      6.4169347083561163      5.1596535187419459
   207   1      25.348002873837334      7.5871131800265807      3.6789415389605904
   208   1      1.2728639986872439      8.7788686426999867      5.3458394191855918
   209   1        25.3594507628377      10.260793327592111      3.6671771878817103
   210   1      1.4193855058954243      11.350969822268084      5.3212820128673917
   211   1    0.010701635802576505      12.596662486375369      3.6070266801979631
   212   1      1.1272227480230401      13.913648210608459      5.2926099801363469
   213   1      25.466439522444134      15.310901744577526      3.5223729483083632
   214   1      1.3159231327888272      16.535878650759095       5.407636458380999
   215   1   0.0043783470540330587      17.835748755069829      3.6834012818934947
   216   1      1.2918243614006806        19.3014159727101      5.3601892313079516
   217   1     0.11682804447574519      20.317281938860138       3.513792254815097
   218   1      1.2156269339099204      21.616775256912138      5.5173458966758222
   219   1    0.017906660394959275      22.956174891552315      3.6415792905535112
   220   1      1.3225296929103592      24.142998346598105      5.2658728988851946
   221   1      2.8236023473936136   0.0065376653401784234      3.6973490456932621
   222   1      3.7860834925555875      1.2211186680901649      5.4670904537185674
   223   1      2.3944444736426278      2.4235307040046741      3.6195306080502569
   224   1      3.9377156507395852       3.785101641985182      5.3994230333745712
   225   1       2.575863504330322      5.0219163026196476      3.6994450811391926
   226   1      3.7751017554625199      6.5161640294935372      5.3606388853207418
   227   1       2.759132279079834      7.5214886750673182      3.4338401108388088
   228   1      3.6236205968702087       9.020151875743009      5.2723858034145428
   229   1      2.5689240593379887      10.167100466605765      3.4019200740812607
   230   1       3.791204182096978      11.534558096300289      5.3655980200093865
   231   1      2.5266846901181288      12.883565118224976      3.5491976795310491
   232   1      3.6788801329544367      14.136105368637697       5.437633274199996
   233   1       2.521425580100801      15.316559023780554      3.6276139902889151
   234   1      3.9804169486363574      16.666380665810106      5.4216986784540868
   235   1      2.4233988445683661      17.823177592352501       3.614888572555897
   236   1      3.6926808488571679      19.084666992666147      5.1755801103701877
   237   1      2.5288518223699992      20.406581002904225      3.4200520490290622
   238   1      3.8424741251941983      21.604442474081502      5.3992110971864209
   239   1      2.8067370694777187      22.892921011857084      3.7624278786872445
   240   1      3.8743179984972631       24.18332253114783      5.5501953673332576
   241   1      5.1183895435667068      0.1576436398494411      3.6638885503162171
   242   1      6.2400515547953415      1.2560106768288561      5.4215567917036331
   243   1      5.1957178903731149      2.6103393169891431      3.2682785441002467
   244   1      6.4832698790733891      3.7734852819313245      5.3139583848930751
   245   1      5.1012011524571728       5.098798442529394      3.5967179661327249
   246   1      6.2398361084617644      6.3025669921407079      5.5444425611391548
   247   1      5.2320781498557398      7.6147007362058829      3.4648399280378288
   248   1       6.176794263888465      8.9821001349830496      5.4398159871275835
   249   1      5.0932864191016449       10.19745294014459      3.6943600753761814
   250   1      6.1693859956700878      11.497503911857873      5.5549325918736665
   251   1      5.1175978765398931      12.637707205270665      3.5766384270089242
   252   1       6.331976481486671      13.957017199289899      5.4777711090124726
   253   1      5.1758678373948079      15.340738530694702      3.7675541854546553
   254   1      6.4071990831983436      16.458480876433335      5.5919903648389653
   255   1      5.2939039677053721      17.846018053427684      3.5344052844517031
   256   1      6.3355445815852418      18.996014765739314      5.4522086603766278
   257   1      5.3251257964201075      20.376585758421282      3.4993927689983604
   258   1      6.3216591988640767      21.685108789679859      5.4687218993245246
   259   1      5.1730901633120698      22.890647434240034      3.6577188358612185
   260   1      6.4980764841863294      24.165256358189275      5.3946604031574035
   261   1      7.7372292523227992     0.28468010202553246      3.7300440551461516
   262   1       9.042989370577013      1.1569674789664692      5.4881023889465803
   263   1      7.6825194908098275      2.6556114740177548      3.6140817780963412
   264   1      8.9370842584695183      3.8022369658923352      5.2207242154292572
   265   1      7.4267140291277558      5.2100451577502946      3.7691524820238858
   266   1      8.9317461040794992      6.0343848753819289      5.3517617505535693
   267   1      7.7507493652953743       7.605279988369432      3.6319005417491987
   268   1      8.7401276535198935      8.9964539687585141       5.405271019187639
   269   1      7.4786147242075067      10.261390669147278      3.5239782094608931
   270   1      8.7298165977611237       11.56684523030869       5.301286725947354
   271   1       7.480649966547956      12.644630612036471      3.5321605001266674
   272   1      8.9242448645842156      13.886563779621961      5.4207864701912998
   273   1      7.7422160388442149      15.412030504987063       3.590649102010663
   274   1      8.9297085095714284       16.51851158059835       5.478277496546708
   275   1       7.634678739753042       17.79580040415453      3.6897108478003688
   276   1      8.9530589579358644       19.04338717265648      5.2102988005571147
   277   1      7.7249046235639875      20.465506487522052      3.5576463545986372
   278   1      8.9288500610705288      21.584211206307479      5.4857491503325004
   279   1      7.8315364835170307      22.941256455173622      3.5363978441218484
   280   1      8.9623440307420736      24.007748782962551      5.4383901366205896
   281   1      10.238478298131509      25.456319252887344      3.5994258009625719
   282   1      11.443518455234175      1.3419564125942367      5.5137956705526268
   283   1      10.324493406724086      2.5303925858980105      3.5720168148653682
   284   1      11.676593164690004      3.7878232065716433      5.4305620013907898
   285   1      10.482976659539863      5.1357929618957154       3.532523130969925
   286   1      11.345784236659686      6.4880115178760196      5.2979436096665582
   287   1      10.218526041945418      7.5559826454728096      3.6344102041255169
   288   1       11.42558358018036      8.9113412175419437      5.5848463709494363
   289   1      10.163325113299985      10.187960621071671      3.7876126194184563
   290   1      11.333473838407096      11.675105519529561      5.4771970683065918
   291   1      10.016742897592545      12.627484370357964      3.6357025759534514
   292   1      11.333203588947935      14.062553860343575      5.5376215376798603
   293   1      10.174868163236814      15.145966731934568      3.5935568461511047
   294   1      11.315405932124404      16.445051940245477      5.4506723884263497
   295   1      10.305184979932816      17.853333566933166      3.6150509958932306
   296   1      11.418902287721661      19.036103053654774      5.3116923750801028
   297   1      10.165147123479912      20.445144403705019      3.5922860945100972
   298   1      11.675154534678892       21.78491499143869       5.410886932387176
   299   1      10.293929117715146      23.037931737342447      3.5735897575473938
   300   1      11.510615191663241      24.088706024833108      5.3373384605270919
   301   1      12.959953960782046      25.485504836135135      3.5685115304603774
   302   1      14.009607021210936      1.3037555142356325      5.3269818984001729
   303   1      12.786113994231956      2.4750851020442641      3.5289760586179018
   304   1      14.041900425919437      3.8835387461401525       5.521159513887449
   305   1      12.838502883342974      5.1115290439599708       3.633835387688253
   306   1      13.981549322084742       6.317961243817404      5.4786217218419875
   307   1      13.004872438906414      7.7365005298172935      3.7607020745727402
   308   1      14.042011886929764      9.0245251513457347      5.4641018301810815
   309   1      12.764112188956965      10.237294977150988      3.8194868386111356
   310   1      14.085345576524597      11.591311314003034      5.4380899882819893
   311   1      12.689423180508369      12.715487008160679      3.5148818352810958
   312   1      13.680981737935188      13.985125376411288      5.3807819651982669
   313   1      12.649801826913183      15.322507742062518      3.6456802988696784
   314   1      14.208904795093154      16.754862061148881       5.379945409184943
   315   1       12.84258353799351      17.861869086758251      3.5326713762273472
   316   1      14.106239364500734      19.231126764755668      5.5036905840012134
   317   1      12.694300834445565      20.443964319302196      3.7321990030020578
   318   1      14.166807450108683      21.805776953314147      5.2541184517341346
   319   1      12.573305369326683      23.079720093690703      3.4704972946309232
   320   1      14.172535095418116      24.168546742744329      5.5245612667214772
   321   1       15.38493504359341      25.488980748058776      3.7571347057192552
   322   1      16.611350456716043      1.2826089569374008      5.3447835756801867
   323   1      15.332937622885009      2.6737494092449365      3.7305133684504455
   324   1      16.576893560695975       3.844097951793469      5.6244882565948044
   325   1      15.460615389325444      5.2294623477340245      3.7380434858880869
   326   1      16.646241271086346      6.3846385415804585      5.4992635778733225
   327   1      15.412062887086403      7.6814566239470663      3.7935982355513369
   328   1      16.575280437029697      8.7916361801452609      5.5976811124240147
   329   1      15.260713476202998      10.200267959434473       3.713086993406514
   330   1      16.679926029016606      11.341443896601989      5.5300104899338844
   331   1      15.136289671840998      12.734032793875768      3.5219464651983019
   332   1      16.358725973639153      13.887839449078927      5.4343452381470696
   333   1      15.183802454529889      15.396358703026161      3.8221370842199014
   334   1      16.700882050461157      16.585714990208789      5.4503920466341134
   335   1      15.280168347763448      17.931459017131182      3.4440138643800093
   336   1      16.494371163259444      19.044976896029731      5.2731649266999998
   337   1      15.251197257498404      20.259071021014964      3.5872842640076219
   338   1      16.602419487580363      21.472277377740433      5.3901315645497059
   339   1      15.260624365959508      22.942623664026854      3.6038191536851398
   340   1      16.763787517534848      24.304018316262443       5.324003796891783
   341   1      17.974747410420512    0.080898917824063221      3.7142451043847053
   342   1      19.260482121222712      1.1812506793028246      5.3273481074518756
   343   1       17.99404150265606       2.488331491277826      3.6879134739477513
   344   1       19.10195921431303       3.835052636910584      5.5582001592501653
   345   1      17.925902902039432      5.0038978559637783      3.5869037107463568
   346   1      19.248430687794457      6.4107516426062432      5.5743385584483569
   347   1      17.885072348280868      7.7442407763284269      3.6552105858558135
   348   1       19.03008386091728      8.9312505608154815      5.5356079252097947
   349   1       17.84449045869556        10.2420307511359      3.5394996348159458
   350   1      19.102422620803964      11.497488857975142      5.4206052361128165
   351   1      17.708597825659751      12.705341556665115      3.5963639326212151
   352   1      19.073958133690958      14.107543572071704      5.4944248264891717
   353   1      17.792950282747523      15.094788932519853      3.7432580043257828
   354   1      19.161202982031522      16.659768434857479      5.4006552985296583
   355   1      17.791818211420452      17.802206751257724      3.3609493540769346
   356   1      19.130144549068508      19.061236711310933      5.1643112108163782
   357   1       17.77398499690003      20.376500614441863       3.446824029746177
   358   1      19.140951973593268      21.654904144530036      5.4644503744534303
   359   1      17.944922754322715      23.024070069875286      3.5020582974806409