dump/Cu_560_0/steps_51 (written by ASE) 

2000 	 atoms 
1  atom types
0.0      25.526554800834361  xlo xhi
0.0              25.5265548  ylo yhi
0.0      36.100000000000001  zlo zhi


Atoms 

     1   1    0.015648618688292915      0.1471370106260691      36.087988742850982
     2   1      1.2525637186164804      1.1249943153683408      1.8369754860444809
     3   1    0.056729595072345332      2.5338063862821567      35.894368579289498
     4   1      1.3346760420764909      3.6492135183478838      1.7165503938635891
     5   1    0.015680549621318877      5.0119085820275693     0.10718980618156611
     6   1      1.2410190424411296      6.3608542684367988      1.8104625089742625
     7   1    0.085983319325199981      7.4537692391154602      36.051518923130359
     8   1      1.3236472389571847      8.7433449794783602      1.8231395502310661
     9   1    0.044295151757272555      10.003845597017568       0.184797769174361
    10   1      1.5297493045432422      11.400195997693931       1.657598991393638
    11   1     0.15010478592177048      12.448977980298617     0.19976700417222462
    12   1      1.4897149339557305      13.878680654406567      2.0027399711092708
    13   1     0.14123058605376249       15.37987326431147      36.072686838203204
    14   1      1.4704315639090311      16.626641201872786      1.8535765727033333
    15   1    0.086124498421734877      17.911239194262564    0.095097615422457746
    16   1      1.4118518017425634      19.343662741654938      1.6862833417240368
    17   1      25.474277890457849      20.658173938565934    0.013564937608703075
    18   1      1.1893598584433682       21.72787046656601      1.9268767980404966
    19   1    0.058149306676162443      22.933882107783724      36.057158473326524
    20   1      1.1853061720457896      24.201506010435679      1.6978193132468624
    21   1      2.6395106377872528     0.11839322274939276     0.10268117033779174
    22   1      3.8062917547515287      1.3722699054037553      1.7906158769290319
    23   1      2.5864751534202104      2.5633210612545869      36.071673907160665
    24   1      3.6503177872096177      3.7124910289752098      1.8923624835725936
    25   1      2.6144273728414587      4.9893909967945174      36.084042236731051
    26   1      3.9121694372466185      6.1441325030458458      1.8135619036772705
    27   1      2.4457310205318104      7.5325001941025507    0.054845245414935642
    28   1      3.8171605104880544      8.6519284365223044      1.7459491739676072
    29   1       2.699996032574159      10.183854493539652      36.088482489479659
    30   1      3.8906425063317602       11.39747803305074      1.8529127759029289
    31   1      2.6333396931975894      12.875682786802757    0.030202012578627091
    32   1      4.0508932609381736      14.065176887646135      1.7830275508721125
    33   1       2.859087239895612      15.355419216266259    0.040723017737730134
    34   1      3.9302028372796709      16.666664480043256      2.0801017653264013
    35   1      2.5958614301828939      17.860042108393134    0.037614284954895667
    36   1      3.8657668240276792      19.385713607283936        1.90007765353854
    37   1      2.7097902461544803      20.407313539989886    0.044478989202582253
    38   1      3.6737027487101996      21.755144463019185      1.7953854973718875
    39   1      2.4651235056692786      22.937137203996997    0.097807212924101203
    40   1      3.7732692396434606      24.193383669344847      1.7903566546077505
    41   1      5.0574393514429818      25.333245545582489   0.0028776041563105554
    42   1      6.4771353537536784      1.2285854180774221      1.8746554318422808
    43   1      5.1121199132164241      2.6622244969614322    0.076789769356457704
    44   1      6.2456588512518287      3.9478369023236008      1.8292608403561306
    45   1      5.1890042866350692      5.0639525671788919      35.941959137551251
    46   1      6.5894021817906818      6.4374373537547331      1.7673785854427375
    47   1      5.1040157066933984      7.6530269095202668      36.051573109028737
    48   1      6.5153934021250679      8.8621393570487115       1.864332855273291
    49   1      5.2268499123795751      10.159256159205356    0.093280408909117915
    50   1      6.4017847926444515      11.361656134826672      1.8306474570215312
    51   1      5.1924871930452765      12.574624679813905     0.14724109685440698
    52   1      6.4621131437691055      14.156570355371768      1.9713989447060398
    53   1      5.3940609977378129      15.158672571055048    0.026260345445075457
    54   1      6.5409617521480827      16.727580679975748      1.9132668714467391
    55   1      5.1171168413255925      17.770508103618454    0.077717738866067559
    56   1      6.4800700998950704      19.160090300965507      1.9274372047257877
    57   1      5.4283547968459578      20.338083060446298     0.08763750077948787
    58   1      6.3052460571867766      21.678569111477774      1.8681731608924566
    59   1      5.2843405320514121      22.794844845954138    0.090361300878908132
    60   1      6.3638005631548253      24.254317674139621      1.5546436295329145
    61   1      7.5868579584144262      25.360545334753276      36.006390700216528
    62   1      9.0041204201047051      1.3600201100371256      1.8980121519385191
    63   1      7.5607416116753905      2.5610360127821692      35.910868074799602
    64   1      8.8973130284797719      3.8303201334765498      1.9689383138974674
    65   1      7.6936543126867853      5.0598447034212857      35.933634271909099
    66   1      9.0710641434736523      6.4551340718554444      1.8946597024371516
    67   1       7.513344412279964      7.7524324974842385      35.964907028492227
    68   1      9.0445718138254314      9.0363495924713302      1.9348573050186242
    69   1      7.6530400868820987      10.246620791883783     0.10781016264016888
    70   1      8.8747996282739976      11.583858043528013      1.6876591850871259
    71   1      7.6707280067265255      12.864109079185869     0.09875226684480376
    72   1      9.0401824918415734      14.087708375206093      1.8728712749152117
    73   1      7.8296809359138964      15.542047608647584      35.953002161079681
    74   1      9.0834013410257288      16.629432981041603      1.7694310024824986
    75   1      7.7193339358134621      18.041495615204269    0.049506436730427976
    76   1       8.976832337308732      19.129683056095722      1.9287876813394182
    77   1      7.5969158050269323      20.540734076088185     0.15544239632903348
    78   1      9.0092590807891018      21.604501117369097       2.020648083069704
    79   1      7.7547623822820757      22.863630447871234     0.14080315848070771
    80   1      8.9649427183723027      24.220811253922136       1.627163416443828
    81   1       10.27678514225418      25.497709281460867      35.930197304628003
    82   1      11.491558694523365      1.3665206967740922      1.8665242938184183
    83   1      10.271287436874164      2.4976898781885488      36.098198329925523
    84   1      11.367737128735209      3.9749820110100735      1.6837687569415367
    85   1      10.248873717504271      5.3720272799069173      35.973272635832721
    86   1      11.408101289439115      6.4110871012816455      1.7641933204883797
    87   1      10.380148621457627      7.8114709479588287    0.033947084511521536
    88   1       11.53533869639387      9.1906592550554205      1.8438785820063242
    89   1      10.188877503872408      10.466229781393329      35.860499336941693
    90   1      11.487309950593019      11.634359666802858      1.6500659107543822
    91   1      10.115955862995415      12.885598109588727    0.023615331432711172
    92   1      11.518050942749252      14.111776318850971      1.8383559833033714
    93   1      10.340077267108235      15.403987247121346    0.041704735343455569
    94   1      11.636228422444749      16.607606309315063      1.7936066665215873
    95   1      10.386537592520613      17.951664850800547    0.033898883912195289
    96   1      11.471649139078604       19.13881548128877      1.8397578758201789
    97   1      10.251112550681604      20.415777268555019      36.018933152811059
    98   1       11.55862068632111      21.748894249137841      1.8925930154308961
    99   1      10.223262206564508      22.885281353586709      36.016792452367589
   100   1      11.444190238099038      24.305873881280654      1.8413642254197036
   101   1      12.698647026648585    0.025086783515244619    0.033361609555277026
   102   1      14.147535046848706      1.3304866117019063      1.7533696335534261
   103   1      12.744355701943118      2.6801867923318223    0.054690755095930466
   104   1       14.01209866156808      4.0295839752815406      1.7530546948778118
   105   1      12.720994618032952      5.3710839004967967    0.054555540093383467
   106   1      13.986703647051014        6.55373164459722      1.7222907327245816
   107   1      12.725503783344237      7.8893741033265581    0.023922647375979968
   108   1      13.925654581538604      9.0541841615151935      1.9460144060493567
   109   1      12.614049405158426      10.418253105967745    0.043228896688526836
   110   1       13.99759148730138      11.458903364177747      1.7409100257884904
   111   1      12.808217433823343      12.875710156206672    0.089824702523867372
   112   1      14.232228982383726      14.117235014307029      1.8398074590603302
   113   1      12.794776581294327      15.411487862708254      35.925941888955037
   114   1      14.042173528294976      16.702486841045875      1.7565890371361432
   115   1      12.830003641548531       17.96257586694383    0.027768572756838226
   116   1      14.187622298249153      19.296962466818801      1.7588557338596742
   117   1        12.5748721028764      20.398914658821315     0.14716703084168326
   118   1      14.045107854430913      21.764232043396436      1.7535784167625144
   119   1      12.676231705750993      23.104776251128651     0.10285962584965781
   120   1      13.933698507246602       24.37307873295206       1.717624815399734
   121   1      15.176663505390396     0.12665557416607209    0.022478671023316122
   122   1      16.652059386517564      1.3608221977344148      1.8614732316694933
   123   1      15.216477554092037      2.8066839937740502    0.010609037554320366
   124   1      16.510665167322859      3.9362759414961812      1.8752819888658689
   125   1        15.3002483484486      5.3706533430377359    0.041498054288683708
   126   1      16.478728016131491      6.5259601153986768      1.7565676125093199
   127   1      15.280113604797013       7.921788170878223         36.034793481144
   128   1      16.542349698997299      8.9935265553791783      1.8142295962199333
   129   1      15.113771431992623      10.354252193826582    0.022205344992426053
   130   1      16.655590715689399      11.529065999511866      1.7582758499405586
   131   1      15.259673594278292      12.864293120246192      36.081838576848142
   132   1      16.631383560322625      14.135218290014196      1.6365586107827659
   133   1      15.235595154761768      15.571690795117767      36.009319371700876
   134   1       16.64761083019479      16.649769886193859      1.6325365022575837
   135   1      15.457852802313068      17.971483292451904     0.10360862937187659
   136   1      16.723739995794343      19.168247055400244      1.8229563338050196
   137   1      15.309074054992056       20.50078563643741      35.985916539361661
   138   1      16.372268159674309      21.789344813903035      1.7610776983626346
   139   1       15.21800630381891      22.896980892603953      35.843007570199333
   140   1      16.415595007757581      24.297363435844495      1.8102064285263753
   141   1       17.69846970365569    0.070411505261535445      36.095176564242109
   142   1       19.09040503924874      1.0744467673469968      1.9234043013312774
   143   1      17.557919493007187      2.6623708799376318    0.073340494641877238
   144   1      19.120448344146396      3.8723882102408433      1.8201053659137199
   145   1      17.816789789972415       5.094451327578601      0.1187008155201853
   146   1      18.860787431961519      6.4831700197855842      1.7524617598632299
   147   1      17.898378061567247      7.8964932036869833      35.922534846123327
   148   1      19.100926735840918      8.9843208027784218      1.7979573052943134
   149   1      17.839663422176898      10.259122297670595    0.010353749287025949
   150   1      19.269536125797671       11.56831280809603      1.9195113243950459
   151   1      17.910137734983586      12.715260295594105      35.972849899350841
   152   1      19.157485372346688      13.995647546960312      1.8184605988181157
   153   1      17.954357213982366      15.320384378384221    0.084900452977933694
   154   1      19.304893694165941      16.572906494582902      1.8032984443823696
   155   1      18.065475471547668      17.906946713962732      36.031788025069879
   156   1      19.239993096406412       19.10105418648838      1.6320501749028022
   157   1      17.932507564289235      20.474842051554464    0.010539303438326897
   158   1      19.106898456489262      21.548426171550179      1.8172159417672689
   159   1       17.77153493767398      22.971562858002407      36.076083385627022
   160   1      19.077102627353177       24.01943858513863      1.8128162127916212
   161   1      20.300658084810941     0.10670349795893107    0.090838637524450247
   162   1      21.731174213303419      1.1601949426803835      2.0062639103244138
   163   1      20.356188701534361      2.5768649282456559     0.11809216701814196
   164   1      21.632627878657996       3.854253864245532      1.6604867717516065
   165   1      20.421561880397661      5.2464333525118105      36.009568338638147
   166   1       21.40290921785278      6.3306964833124075      1.7108174649745578
   167   1      20.372201277175549       7.683876324387529    0.074690273666089851
   168   1      21.672690520871249      8.8528000498286747      1.8903997000339456
   169   1      20.495563333561037      10.184877343488944    0.043130172994915665
   170   1      21.626760216980671      11.473742625130811      1.7619682074551852
   171   1      20.340950918501857      12.797850709453556     0.14235259829615632
   172   1        21.7228859138317      14.051390585197158      1.7306302911186093
   173   1      20.553028338038413      15.240680044542843      36.001021113449376
   174   1       21.94599290420015      16.527307090736361      1.5876538736856773
   175   1      20.583990673343749      17.795361325870115    0.052503168892258027
   176   1       21.75931650320025       19.06584669263184      1.7455268950512608
   177   1      20.376846044801145      20.163203128642429      36.001442517789272
   178   1      21.616763679460625      21.804567924852527      1.7439801003126252
   179   1      20.407127179571887      23.195036095357338      36.093424689419166
   180   1      21.481584877189594      24.329954635092481      1.9354609597606662
   181   1      22.818995897897903  0.00091433674024243763    0.023241791720681693
   182   1      24.265486670335033       1.236930881124495      1.9594410204808468
   183   1      23.040779747737638      2.4627477403071576     0.21228343283885368
   184   1      24.223530031488227      3.8236920103018059      1.8990422992300395
   185   1      22.932311289405398      5.0395230995878224    0.069812164562370008
   186   1      24.070905400472526      6.4417589770361348      1.6834519258636857
   187   1      22.880902786285077      7.5614248413373311      36.017318338526188
   188   1      24.246260210600628      8.7082041477468728      1.6677363253901043
   189   1      22.978883496524244       10.08852575075311      35.987473874082767
   190   1      24.131344685638876      11.372284494125745      1.6638129750329331
   191   1      22.974887670941939       12.74689936451017     0.13268244668817039
   192   1      24.280319466603139      14.038492662933617      1.7240820583972316
   193   1      23.010284415212848      15.296415051747914      35.992590688405066
   194   1      24.413115626000017      16.697636254097691      1.8121017665728927
   195   1      22.986299263323879      18.109962016646364   0.0021389573051123988
   196   1      24.362537859202998      19.190227981874102       1.914424465760441
   197   1      22.858864204914827      20.458234689212983    0.057616895065825562
   198   1      24.209929509383429      21.853873224660113      1.9385532460195587
   199   1      22.979427805176723      22.858689084166613    0.053233389339050224
   200   1      24.089338269941685      24.332755271380098       1.718109867366002
   201   1     0.11842298645653354     0.02981369983000581      3.6227230295240882
   202   1      1.4194730513509537      1.2193990834515585      5.4588168735083666
   203   1   0.0037359741026522569       2.598638923833847      3.5433244984089027
   204   1      1.2963769677271864      3.8793811509112923      5.4616820510893422
   205   1     0.18208013360280634      5.1054438938813185       3.732025552072709
   206   1      1.0262302124599663       6.437805017225176      5.4092034231164581
   207   1      25.514543863385683      7.6204324525890037      3.6240954173993769
   208   1      1.2700079706806535      8.8298484272010747      5.3692453602494341
   209   1    0.015468419185828012       10.08534392550593      3.2982402666784303
   210   1      1.1893844342571727      11.284110363805574      5.2786888988793272
   211   1    0.020263717103727468      12.540173829815668       3.422363139278628
   212   1      1.1365481116205709      13.997979327649713      5.3274851358035731
   213   1     0.18183254342564781      15.276148723406887      3.5042767602221381
   214   1      1.5086820639844478      16.677675088855768      5.5568900161005841
   215   1     0.22184694694744883      17.750393162264473      3.4405268742281234
   216   1       1.272386244523388      19.205824835885462       5.551041493049194
   217   1      25.486817206706256      20.509394018126031      3.6272674210137059
   218   1      1.0059728839619813      21.746329695867551      5.4261525845392118
   219   1      25.452803765432698      23.096642051032578       3.787237849828236
   220   1      1.2312357927048654      24.315008456639482      5.6154100429033562
   221   1      2.6545584986322441    0.057696828033469316      3.4915332892736166
   222   1      3.7766580133133854      1.3433745503324883       5.414769344106924
   223   1       2.628789245702337      2.4182544169134013      3.6138100875677708
   224   1      3.7578019465597259      3.7542001450432072      5.5162000495661312
   225   1      2.6156115261329735      4.9453946646180436      3.6412232876674566
   226   1      3.6918163258578995      6.2677405724422028      5.2944417003952902
   227   1      2.5433045170094575      7.5916218295651534      3.4576432185111012
   228   1      3.6635349395174175       8.988252521185677      5.3558659802312523
   229   1      2.5024662872219392       10.12565288699599      3.6044388169703336
   230   1      3.8863925351141506      11.533199860249605      5.3036338608407965
   231   1      2.5578918042790955      12.649044039457921      3.6731912097231518
   232   1      3.8193560574823495      14.071240301985855      5.3270066770246256
   233   1      2.5860976034159351      15.333009505263847      3.5980475468172375
   234   1      3.9557583163816656      16.669541465161526      5.2417836873248831
   235   1      2.6256278555258903      17.926456681477831      3.7682495143235144
   236   1      3.9647982526537504      19.211376411033132      5.6047640556250116
   237   1      2.5230083953579703      20.445926311205469       3.673100288652563
   238   1      3.7141251610925963      21.869416333702663      5.5025293555115304
   239   1      2.2770893605916673      23.077072903731001      3.7016512178310483
   240   1      3.7247309637665378      24.340218212425455      5.3431368754697504
   241   1      5.1069256688523428      25.396502516469909      3.5820538353198583
   242   1      6.3778587199632701      1.3630072345913742      5.5068125016524965
   243   1      5.1626207390751038      2.4105396907611505      3.7371064233008084
   244   1      6.4673136993387903      3.8583778327440346      5.3150392497719325
   245   1      5.0522497950728305       4.843183229733774      3.6868310911899558
   246   1       6.445581739736947      6.3968876872021418      5.2864442890937458
   247   1      5.0936180247387624      7.6823895370464381      3.6922758932579605
   248   1      6.4124491644416208      9.1584803043152245      5.4191254443751227
   249   1       4.996908570233856       10.07120723113341      3.4804366479376672
   250   1      6.4154953965740642       11.62795041008623      5.5038879847207838
   251   1       5.242035004955123      12.823325087171456        3.68205191071783
   252   1      6.5349443344148312      14.114820819046948       5.435749128200694
   253   1      5.3507949985251475      15.307646413116727      3.4320912308887848
   254   1      6.3118107301374922      16.522838165793679      5.4067777792444556
   255   1      5.1150839009620945      18.029946830199982      3.6647815088639137
   256   1      6.3557098312134856      19.188881620778265      5.5436620921825179
   257   1      5.1020925501681553      20.673209632699699      3.7124971953773391
   258   1      6.4571961027105536       21.85910747750264       5.446130404205884
   259   1      5.1354895380833927      22.935862567573924      3.7230180825314005
   260   1      6.4581517380051379      24.382838699773554       5.351002201781295
   261   1      7.6860204466453537    0.050726249653829547       3.506653914570653
   262   1      8.8796215289279488      1.3225702666124937      5.4133594498158866
   263   1      7.7008109212618692      2.5622774884108082      3.5400338660480988
   264   1      9.0050709553282431      3.7320804253824038      5.3739700284758207
   265   1      7.7758369293597402      5.0209107758386367      3.6063780357280293
   266   1      8.8223127953536018      6.3364924463160417      5.4335904653222329
   267   1      7.7309047078325364      7.6661824383927488      3.6191514964631151
   268   1      8.9850588713345267      8.7656417701133549      5.3337207828500306
   269   1      7.8509450765905404      10.267877457197681       3.696130891791106
   270   1      8.9692352130808697      11.488576100706389      5.3605683429074045
   271   1      7.7027679600966623      12.863917141173477      3.6258036486785907
   272   1      9.1202099809702872      13.952271675430765       5.432446615486735
   273   1      7.7933854512886098      15.375122273268312      3.4646012263138788
   274   1      8.9591283258260859      16.430605214909043      5.5125135000598329
   275   1      7.6720475044634471      17.956993383617998      3.8013949905313447
   276   1      9.0167815770862383      19.147182416100009      5.5123545666477254
   277   1      7.7737358511959824      20.362924232376187      3.8152554824985518
   278   1      9.2207462105111269       21.61558667153966      5.2994620968419488
   279   1      7.5849722352688413      23.064534826436464      3.6338401011631984
   280   1      9.1832723735615449      24.279154253683068      5.3934104616001326
   281   1       10.22237748136229      25.458064403046286      3.5275939620917489
   282   1      11.330471314587445      1.3790882829211253      5.3225854309692355
   283   1       10.17426873578135      2.6432424701608848      3.6143035185648658
   284   1      11.626572597473128      3.9363653530548666      5.3464976078553326
   285   1      10.180485389830203      5.2529820571837442      3.7606175444971317
   286   1      11.502899578576816      6.5369773180806217      5.4737581785566691
   287   1      10.241945208142438      7.7827575402208451      3.4936244154669565
   288   1       11.48307821465564      9.1233118972428109      5.2663730768008152
   289   1      10.217300151164165      10.391090584022271      3.6788953125293746
   290   1      11.571961017393827      11.565766440812045      5.5365997867220447
   291   1      10.278329093609157      12.760729831663124      3.6622365440898039
   292   1      11.524276145131822      14.063760806262573      5.0841363417130223
   293   1      10.270008890146912      15.408140624410242      3.5761704342751268
   294   1      11.560259344601072      16.507876106720914       5.524966851435881
   295   1       10.20586134288717      17.833098760236915      3.8748344928948337
   296   1       11.54008148356901      19.079198843955616      5.4173435697228935
   297   1      10.337833771353019      20.378765625642586      3.6631407115155921
   298   1       11.51853710686337      21.702741644106521      5.3381782859074969
   299   1      10.226843924413689      22.887263325521996      3.6097997321852291
   300   1      11.493328634904197      24.200183144970424       5.290872011882807
   301   1      12.786454788373943      25.508324001518318      3.6048660254216993
   302   1      13.916887934448837      1.2092282266656347       5.423804519998499
   303   1      12.700809685372594      2.7302981552044119      3.7500478496373093
   304   1      14.041797085996807      3.8028078103773741      5.4866532513704618
   305   1      12.813694032932874      5.1593099188509841      3.4921110589067115
   306   1      13.925804231673212      6.4341665213965298      5.4617352054419559
   307   1      12.614840184122446      7.7745985469776739      3.5424452637368531
   308   1      13.977503014814898       8.878504774561609       5.338554188465964
   309   1      12.828280014650264      10.526769387863641      3.6118444069567808
   310   1      14.076101044496662      11.698559354582162      5.4665795017619168
   311   1      13.006477953180221      12.873783855366138      3.5709732116668769
   312   1      14.191632187000645       14.16101435992481      5.3461321713830516
   313   1      12.948323870732338      15.458263014736557      3.7068746531165742
   314   1      14.050099743536512      16.752579148099919      5.3872379807389583
   315   1      12.904686188059875      17.961681979352175      3.4810232458604435
   316   1      13.998830731463789       19.29935565813409      5.5291780510582313
   317   1      12.844928666042419      20.349225130960708      3.6398121783796582
   318   1      14.103548353127216      21.554287349585781      5.4305653278130164
   319   1      12.805746317156402      22.883833981545706      3.4930322156886526
   320   1       13.98722668746761      24.367472034340739      5.3273927578654989
   321   1      15.389046660243178    0.071473881545641271      3.5006508405417534
   322   1      16.491651660071305      1.1206348696548702      5.3188560472015061
   323   1      15.159376926610742       2.691890146927935      3.4627900026679188
   324   1      16.476126786192413      3.7344829843712071      5.2892648334531094
   325   1      15.228900929722496      5.2375210432473676      3.7612005283662957
   326   1      16.430443423993548      6.5601908291395734      5.4958226571751236
   327   1      15.218377673702415       7.603004809407528      3.4922696302309202
   328   1      16.639526982108585      8.8562662876182916      5.4734782036458798
   329   1      15.334864894017516      10.193178355900528      3.6245090309463022
   330   1      16.703921989650485      11.749933745550216      5.4728364667533302
   331   1      15.383076902295084      12.839989314057252      3.6499227035421318
   332   1      16.626851818460484      14.324158855552113       5.373646976878887
   333   1       15.63560583631758      15.641285397273876      3.5350130825729806
   334   1      16.648161067683894      16.538351395878706      5.4303659131402213
   335   1      15.287243066815289      18.034515984599242      3.5474911160205589
   336   1      16.745110415578754      19.091410932875728      5.3717840013808402
   337   1      15.478099090527436      20.453294330203914      3.7065148140838384
   338   1      16.645256460176842      21.775380118197408      5.5186179990729425
   339   1       15.24140907533868      23.051136691222766      3.7175584808265318
   340   1      16.579782959929229      24.214245374477432      5.4906722479164776
   341   1      17.864275054023231      25.406631299504596      3.7193746572366804
   342   1       19.06104917221711      1.1572624775981817      5.3268089020772944
   343   1        17.8989443906394       2.607720809745627      3.6137987069620152
   344   1      19.009825202164933      3.6836127088973969      5.3775421290879635
   345   1      17.803270084938642      5.1905361741289582      3.7587856955501695
   346   1      18.958176263850863      6.3859066031104632      5.5239698652635116
   347   1      17.714374909375731      7.5723984539643521      3.6064436277165326
   348   1      19.078617750246085       8.949683547221488      5.4067258995251919
   349   1      17.869625607942506       10.32368405808354      3.6659983363390043
   350   1       19.26247724271493       11.52722376715143      5.4456458450059841
   351   1      17.720905195768289      12.836837144807287      3.5525265772368266
   352   1      19.176757486636724       14.34416216323058      5.3228784183231062
   353   1      17.804168752118237      15.438025813665501      3.5119587841268531
   354   1      19.300100782845394      16.830608187679179      5.1636999853819221
   355   1      17.895872572469262      17.963786277684548      3.5397958585646276
   356   1      19.260928774249326      19.154811208005604      5.4380347958481723
   357   1      17.954952662372918      20.394260033496629      3.5987496114086537
   358   1      19.325183329183908      21.622111960282425      5.4518153365675994
   359   1      17.682198889081544      22.890200184468334      3.6661957957019768