dump/Cu_560_0/steps_21 (written by ASE) 

2000 	 atoms 
1  atom types
0.0      25.526554800834361  xlo xhi
0.0              25.5265548  ylo yhi
0.0      36.100000000000001  zlo zhi


Atoms 

     1   1    0.072734242120594678      25.390674003974993    0.096798902322836861
     2   1       1.420591285710739        1.12004354131873      1.7417206704964194
     3   1      25.454117838977755      2.3663234956872787     0.22080858914614501
     4   1      1.2498210128073488      3.8469383070151313      1.6356397773412241
     5   1     0.25455503145240266      4.9861050272913472      35.922189174333639
     6   1      1.2045236905953092      6.3207942144496734      1.9667597384843694
     7   1    0.035188004376705204      7.6166573948046112        35.9530388349839
     8   1      1.3626776258908191      9.0168144157446406       1.648024724311596
     9   1    0.091179464811283917      10.205969799434166      35.996733338490685
    10   1      1.2092825300948238      11.474772568813194      1.7666918997811785
    11   1      25.484656413576097      12.801114417645044    0.033337662678991374
    12   1       1.186023276240294      14.077729913607255      1.9768535917260122
    13   1      25.523235111686319      15.371315096827063    0.053295155219473089
    14   1      1.4840542978255011      16.582907159322126      1.8921239332117703
    15   1     0.04135022085747507      17.774369230257399      36.088950134290869
    16   1      1.5109906355610803      19.115633474659717      2.0089920364599143
    17   1     0.21559782333368777      20.151792352083376     0.13415725877164258
    18   1      1.3597603831774923      21.534526167192997       1.819786432427098
    19   1    0.061015625812272066      22.831522201321214     0.11625586835820069
    20   1      1.2919058953929128        24.1679435480753      1.9366238254886983
    21   1      2.8341466894918632       25.49036563119293      35.941066616563688
    22   1      3.8040688027395659      1.1351454648292387      1.7741161856433463
    23   1      2.6036094653482822       2.410942903027935     0.10195792612170165
    24   1      3.9125085067363234       3.725045138828361       1.809873290943983
    25   1       2.729525542460236      4.9566764310113633     0.12544343520936543
    26   1      3.9134190930454928       6.474469055799899      1.6154609300596705
    27   1      2.4866515356973151      7.5798243476439904    0.032410235636325516
    28   1      3.8378410192646122      8.9824413305545789      1.8255420134120515
    29   1      2.6100599856121511      10.358368228084794      35.914253820344292
    30   1      3.7340666045754451      11.505608948211231      1.6478264178511379
    31   1      2.5153557487819733      12.827488200126211       0.022574922902686
    32   1      3.8711786449367351      13.922327878292709      1.7720135634083818
    33   1      2.4475497453749981      15.217870321943593     0.11476537952302129
    34   1      3.7610661854577643      16.484807882900053      1.7605837200516485
    35   1      2.8342390663655839      17.873342191403623       36.04026317680654
    36   1      3.9721125981026635       18.97823902352502      1.8426030657082031
    37   1       2.775993570469685      20.449635660351056    0.097724547650704929
    38   1      3.9158999467189952      21.481681147985618      1.8603882805650176
    39   1      2.7306003230968257      22.946290389700668      36.083402344290562
    40   1      3.9266063127690956      24.412276217539436       1.859389022685866
    41   1      5.2651527861695335      25.252159039933133      35.892597665605471
    42   1      6.1609750500929765       1.297637664283823      1.8326658414211825
    43   1      5.2627492484205805      2.4464881061360524      36.061166611266621
    44   1       6.380299912813058      3.8839186961259538      1.8015469322752227
    45   1      5.0488774596977128      5.0252926652333381      36.056629007057239
    46   1      6.5107247830883059      6.5255012445507115      1.6699012235664992
    47   1      5.1444926157786188      7.8780504868184789   0.0024351555591579192
    48   1      6.6166570993898342      8.8729504724196726      1.8083201538438876
    49   1       5.185483491124395      10.241566367826387   0.0036266895429093774
    50   1      6.5203349316694208       11.42151174907894      1.7658134294926875
    51   1      5.0097208288512904      12.858122359808156   0.0037535765449320108
    52   1       6.206438771463846      14.199918194046186      1.8738233775079955
    53   1      5.0262161262814509      15.585082310973489      35.973708706325851
    54   1       6.308225110127295      16.690910280881162      1.7758145804086098
    55   1      5.2696582534517349      17.929308916805404      35.957710862856565
    56   1      6.4537210781212178      19.179628398742494      1.8733880681767103
    57   1      5.3760514197473279      20.437050583086382       36.09366696505662
    58   1      6.4515544699620353       21.65773419481717       1.776602322042901
    59   1       5.086889049342477      22.988563879947037      36.053119428621947
    60   1      6.4796654967475718      24.430371721110507      1.6604516237498508
    61   1      7.6286446553291745     0.11999519615656151      36.072107194320289
    62   1      8.6547918892343727      1.4821270524929324       1.844488341663318
    63   1      7.8096994592909645      2.6039761396858179      35.995590748045927
    64   1      8.8355450190259681      3.9582951673309661      1.7021368206099721
    65   1      7.5000882426714126      5.0598752280289796    0.035244763467630946
    66   1      8.9766586902811198      6.4927372685920064      1.6063880065054275
    67   1      7.7274892630227248      7.6967011538321177      35.975140718936295
    68   1      8.9191313875677452      8.9130670478379415      1.7810011912804495
    69   1       7.854313216095651      10.303506469596586      36.060087960653632
    70   1      9.1244635673059165      11.286609930677699      1.8871411033058525
    71   1      7.6635290546852346      12.896683930975604     0.24329681060336272
    72   1      8.9665475363351188      14.051703953490673      1.8916887601528523
    73   1      7.4550084754625576       15.47228688817402     0.10871084484809887
    74   1      8.9742216152105581      16.633456842154619      1.7116464989535973
    75   1      7.7267199184243651      17.994059641554944      36.090602153404141
    76   1      8.9900445557942916      19.199355888502627       1.830895378926972
    77   1      7.7164292653032778      20.444182607289321    0.075335443666790403
    78   1      9.0005682981196991      21.490469179482258      1.9274016949932165
    79   1       7.795809500553716      22.871477616943448     0.12823762898975705
    80   1      8.9894401015644476      24.342004170518038      1.9520983124998357
    81   1      10.185480890974761       25.34140008572086      36.096149106206035
    82   1      11.450007204719734      1.0794191028219957      1.7471526556527233
    83   1      10.244976488169355      2.2471304873771771      35.967457158232747
    84   1      11.518454853570281      3.6040650845346387      1.7494467988429403
    85   1       10.31017899458047      4.9367641904232133      36.074348033385107
    86   1      11.569141671114169      6.1324524538520313      1.6543375146416124
    87   1      10.267106688982667      7.4639238578120368      35.941085506774463
    88   1      11.454873150345559      8.9595218154458358      1.7687615795754701
    89   1      10.141518043040282      9.9670959847070986      35.771319406151001
    90   1       11.64951605642935      11.318060242810628      1.7046014733617201
    91   1      10.137380897647622      12.456008598818936      36.039721852707359
    92   1      11.626507976400333      13.974897022754108      1.7445496254963571
    93   1      10.380103295827178      15.163362431759408      36.022323970077139
    94   1      11.318792882902434      16.670730006530494      1.7687205215745396
    95   1      10.153287572011275      17.917741762008728    0.010481699504066445
    96   1       11.56169023690048      19.289526192815657      1.9373265285048993
    97   1      10.188313009372816      20.374943655564255     0.13245863779277442
    98   1      11.589151460281535       21.68471843237872      1.8092832162167378
    99   1       10.26939952801577      22.838478276426706      36.083045267919005
   100   1      11.610222894931388      24.232604230735546       1.899555453727181
   101   1      12.639769952723805      25.409650055972168       35.96576713433938
   102   1      14.034646002077647      1.1065963453023389      1.7706168098421344
   103   1      12.701254219853972      2.7260737613707797      35.966271462003789
   104   1      14.058504244144588      3.7401529777854838      1.6876265591214181
   105   1      12.808058226222229      5.0956078332511217      36.003654317167523
   106   1      13.828764694991282      6.3409504434201809      1.7253149549303777
   107   1      12.649434335733568      7.5818589128819687      35.982863033095079
   108   1      13.938687604059295      8.9874935186620633      1.7086738402916932
   109   1      12.814880084885479        10.0862760406477      36.079461059484224
   110   1      14.047148332387646      11.643432406898645      1.7825027381313141
   111   1      12.628077479405622      12.747002191759613      35.968697497494695
   112   1      14.200975664364494        14.0476851736551      1.7139862568843129
   113   1      12.846776396212125      15.189771786932292      35.925767833812621
   114   1      13.769501909891648      16.541205745880216      1.6805094367846454
   115   1      12.424986597184686      18.010750234179344    0.038100830725500176
   116   1      14.067361694492137      19.095511560758659      1.6573426584618349
   117   1       12.67499884206282       20.46513833121675      36.071313176343004
   118   1      14.080587188683047      21.635595702373124      1.7340287376815362
   119   1      12.654621600864287      22.846677110225219    0.014222165292301263
   120   1      14.078882886444791        24.2045904181137      1.5663738358806429
   121   1      15.290624229261573    0.027840082137584224      36.061066097851118
   122   1      16.534890018420949      1.0595178793882636      1.6682269748164114
   123   1      15.347652052243813      2.5774839973153845      36.078030215791813
   124   1      16.528666745919512      3.6845685344637511      1.9641976143953475
   125   1      15.041914943336845      5.1398030923922606      36.089521139942683
   126   1      16.502893347205784      6.0829729615564645      1.7724210301867847
   127   1      15.105620881213873      7.6742565460418932    0.057378562193298448
   128   1       16.57597163652871      8.9187995376506528      1.6861280760758501
   129   1      15.245550426604636      10.194969160577354    0.045782959157406738
   130   1       16.64650276290261      11.470321990397325      1.7163924599586615
   131   1      15.375733075841589      12.721996604770744      36.077475000203712
   132   1      16.775786152649168      13.992842217771459      1.7409699770269647
   133   1      15.390312326144755      15.133146846420019  0.00045933258887771597
   134   1      16.623182352384898      16.545233282276225      1.6879543977222757
   135   1      15.488753331033266      17.634529465939988    0.016846582707705702
   136   1      16.633113008708364      19.129422748648604       1.680868610601068
   137   1      15.548671443865365       20.38748279481435      36.078004060389233
   138   1      16.636407711941764      21.838142170219704      1.7793955040613127
   139   1      15.300780757679231      22.742737057763886      35.950811871176306
   140   1      16.781613348243638      24.237170801364627      1.8059323824154248
   141   1      17.955340829785243      25.420209160330348      36.078337624676415
   142   1      19.328921720210143      1.4262302138017704      1.8054973708813682
   143   1      17.927522670308537      2.3968077461991122      36.036061498007044
   144   1      19.333625968682064      3.7032277399368581      1.9485087226404625
   145   1      17.632119046952443       4.769481421029039     0.12716751638382684
   146   1      19.059900296599491      6.3646612179622659      1.8890236749005014
   147   1      17.708464005635008      7.5813457990559669     0.15772880035783596
   148   1      19.205960724056769       8.969489408514983      1.8444896789128489
   149   1      17.826131984567869      10.113707166654581      35.926948209222154
   150   1      19.235077131143214      11.515971999914923      1.8422695548255557
   151   1      17.954981166289038      12.729406369936019      35.970711278983707
   152   1      19.124677480822516      13.974300499325661      1.7984309370790457
   153   1      17.889140717835122      15.311270351438036      36.018213526892211
   154   1      19.502218818395598      16.584080640545775      1.9077555620293205
   155   1      18.142319146863027      17.738927289146499      36.098439210416984
   156   1      19.096999033154017      19.084665833930668       2.083562760268785
   157   1      17.856373790617749      20.517427820070328     0.11670860345866474
   158   1      19.120950146290649      21.496586049362286       1.805883247408097
   159   1      17.954116874285823      22.872293162489314    0.043117947282167009
   160   1      19.224841412363158      24.120411731517486      1.8248250703071669
   161   1       20.37497987461856      25.482373496845803    0.082897043870411857
   162   1      21.771601219058933      1.2767135548081934       1.819020992489321
   163   1      20.529075015160135      2.5421012120143778     0.18708148800471899
   164   1      21.800354505065165      3.8502694400701887       1.772146830714225
   165   1      20.245424356566843      4.8773331679375556    0.071006825694018963
   166   1      21.696430596681274      6.4287549451435719      1.8292416767244037
   167   1      20.526762758572932      7.5878460653620223     0.10712697348272962
   168   1       21.65399109869513      9.0478002384870937      1.8125095966703955
   169   1       20.49068740699531      10.116290588144382      36.096385856418514
   170   1      21.555547800553157      11.559108316509988      1.9943741556521775
   171   1      20.419148485213576      12.631464868453733    0.016179377111791383
   172   1        21.7808701662325      13.923291624897988      1.7303300580468426
   173   1      20.316481098975736      15.311739296906422     0.01650535403776985
   174   1        21.8821692482156      16.629776896369723      1.6539536777022716
   175   1      20.497123557928422      17.953703421590305     0.10385101933915183
   176   1      21.805343046332911       19.09855214824762      1.8100210158021803
   177   1      20.529840593580932      20.432287236143107     0.13503328414412877
   178   1      21.668717964192354      21.566527814224703      1.7221619404334663
   179   1      20.587449957507655      22.950215137969529     0.10127368472359408
   180   1      21.680798697152365      24.178735072597259      1.9172110659886012
   181   1      22.981101274466234      25.423309777463327     0.24161439416279795
   182   1      24.165567650452871      1.1618373759774396       1.868592381347036
   183   1      22.936333768816972      2.4995067740484078     0.12588031445952758
   184   1      24.333339614034784      3.8821822112207895      1.6501206467799994
   185   1      22.791223136172984      5.2541802860970312      35.984496594936495
   186   1      24.386386695742317       6.406693517418292      1.7164025260187252
   187   1      23.137335950153542       7.686890443022822     0.15887099963310908
   188   1      24.439234196065112       8.975427065482295      1.7792392959159544
   189   1      23.091610591873458      10.216803338186661     0.14037567726709319
   190   1      24.070929263178382      11.557224039970027      1.9477379875625838
   191   1      22.874004177834639      12.672086734469174    0.048178726926278073
   192   1       24.24076244215652      14.026563969787924      1.8414639953414835
   193   1      23.133751779462294      15.106603031341475    0.018962925592484213
   194   1      24.508720800061475      16.441391426542253      1.7026201920314847
   195   1      23.158013754557206      17.863645609530934      36.012077530923207
   196   1      24.477272249615574      19.152989892450616      1.7897511485741915
   197   1      23.165970032562342      20.408293411151138      35.973054071982858
   198   1      24.407430571880155      21.517359722855915       1.849457302507143
   199   1      22.985408097447625      22.802408679541671      0.1304560383410831
   200   1      24.476795429360855      24.034445115953382      1.8699314916125447
   201   1      25.518688191499365    0.094571122843834635      3.6213664959723997
   202   1      1.3441721721201663      1.2631068332439344      5.4297638158857735
   203   1     0.13380370029640554      2.3660650299401196      3.6068155136260898
   204   1      1.3587009722315968      3.8777804720605493      5.4633010337453358
   205   1     0.16052024125161429      4.9710941148967542      3.4228507107117823
   206   1      1.2682057043623391       6.273651639912563      5.2585741116179809
   207   1    0.088917043907354887      7.7997279866183895      3.5144336150420168
   208   1       1.262721950208467      8.7448405650676122      5.4226542970905864
   209   1      25.419716885604394      10.253219834676729      3.5536037057723657
   210   1      1.1588876921016462      11.211015316937551      5.2331737782496868
   211   1      25.468006466530554      12.720790935778314      3.5805787575578041
   212   1      1.4103239468518658      13.904124359098109      5.4407573924915775
   213   1      25.391695378413011      15.406765645165548      3.6492501063680898
   214   1      1.3888197320031028      16.540375633052982       5.519223931562979
   215   1     0.12185404083040088      17.816260743935246      3.6707210704778923
   216   1      1.4104692411622033      19.003272412346853       5.612371741805414
   217   1      25.445577176927891      20.202525182080276      3.7896658064397712
   218   1      1.2665272232323173       21.71593604035489       5.375364393138752
   219   1    0.011899442388795794      22.936284475122264       3.454882196606694
   220   1      1.3328013469505429      24.345062631064135      5.2927871746034931
   221   1      2.4900898413759656     0.17043054505282579      3.6785580607560764
   222   1      3.8303267491871114      1.2287343159788933      5.3405338805347213
   223   1      2.4831618561648612      2.7577830211393022       3.640442723783162
   224   1      3.8595109146678146       3.851172590473289      5.3698704873366108
   225   1      2.7327554451184968      5.0845417881735031      3.4979393932260683
   226   1      3.8200614836540079      6.5442531269939188      5.4284352188214511
   227   1      2.5637662881665348      7.5862978648934627      3.5165957542816941
   228   1      3.8149595730829895      9.0782079852432016      5.3796404437716889
   229   1       2.615122321189991      10.249101343710926      3.6142678156607504
   230   1      3.7454629042605387      11.456248495672989         5.3830064627978
   231   1      2.4425869413089614      12.686352545445301       3.898253492104971
   232   1      3.9867068502260805      13.953539042930784       5.382876482670822
   233   1      2.5260661597934497      15.331396947845251      3.6275834849664488
   234   1      3.8662280534973883      16.685713708343641      5.3555950347723886
   235   1      2.6097529802239738      17.864602507871606      3.8456082434466716
   236   1      3.8006892615577348      19.185148441879356      5.4889045154743377
   237   1       2.696819457633262       20.46316903189496      3.7981125352840222
   238   1       3.928633337160691      21.660490106279383      5.3610307225363556
   239   1       2.540015732472952      22.792498975745097      3.5789856628425811
   240   1      3.7082865233902731      24.183089079270594      5.1493890490476222
   241   1      5.0481109355129519      25.452070907507888      3.5419206362179603
   242   1      6.3977468430737945      1.3536434814757512      5.2356407006808041
   243   1      5.0303769855521043      2.5847517386689614      3.4893075577328081
   244   1      6.4672553867785227      3.8415660523846356      5.3208952259498314
   245   1      4.9861346424835302      5.0839885557512599       3.514682226111165
   246   1      6.4137242348144854      6.3344128408306704      5.4506207566108369
   247   1      5.2466258921188622      7.5962634498310191      3.4423980611621814
   248   1      6.3356308831654671      8.9474411024812195      5.4199868144066041
   249   1      5.1419450478769644      10.192846089905746      3.6102676773156137
   250   1      6.3958795523407064      11.411364808167029      5.4176399220487701
   251   1      5.0874565392540818      12.516567314421076      3.6100294923341565
   252   1      6.3182472353856411      13.849468833002263      5.3832852882049522
   253   1      5.1681844335783325      15.304901506411438      3.6545936746657985
   254   1      6.3824472343926972      16.585489330032665      5.3773910826585896
   255   1      5.0345075558746633      17.720983228429503      3.7691116425906226
   256   1      6.2194820425964013      19.000173696150171      5.4597978929213768
   257   1      5.1725494905793523      20.504660307272015      3.6328619991213991
   258   1       6.507980001129722      21.639423035664343      5.2323709095661455
   259   1      5.1010781740602642      22.850506178221359       3.601610986599086
   260   1      6.2787593312690788      24.268492626257895      5.4455991117641984
   261   1      7.6366327800155034    0.044381294583206964      3.6507149777551779
   262   1       8.996138400454825      1.3205247339174317      5.3855544242383235
   263   1      7.7778026748109896      2.7434498271904708      3.6912234225223446
   264   1      9.0908373926869199      3.7438184484111505      5.3465035347223226
   265   1      7.6069669984785522      5.2285938574144328      3.6622997328681275
   266   1      9.1176234914188967      6.1972243803895877      5.4740223534820869
   267   1      7.5760739759022941      7.6822198657318781      3.6679797964764496
   268   1      9.1056569321332059      8.8141046895053883       5.446836910125632
   269   1      7.5796975071583894      10.264335596715441      3.6834271009429438
   270   1      8.9798292028628524      11.416955680534006      5.3958370859445264
   271   1      7.7416667965261858      12.784830126052064      3.4704539565344374
   272   1      8.7551579997407778      14.095136536464885      5.4275079043294827
   273   1       7.670585814103557      15.428140217944634      3.6262421715777071
   274   1      8.9706522973955956      16.410996333167876      5.3978369660311953
   275   1      7.6541436737308892      17.920962332041224      3.5025905582137411
   276   1      8.8618268314180533      18.845810322800602      5.4120384996734519
   277   1      7.7880066165818498       20.27867031909302      3.6506768838916019
   278   1       9.101326509843199      21.888584002606589      5.3345840503523103
   279   1      7.6105042332678288      23.059779933255498      3.5760808073200452
   280   1      8.9603050127808732      24.233903822990786       5.379138354078405
   281   1      10.108748228703174    0.089010578367338181      3.4906796090764263
   282   1      11.290926891846022       1.313884147751762      5.3121407861472951
   283   1      10.233608102208061      2.5275732985703612      3.3230899198158452
   284   1      11.428284670895913      3.9312253456182744      5.3866815941089632
   285   1      10.102904179274638       5.078844901921439      3.5164881085896025
   286   1      11.437133026465569      6.3637368729507715       5.180538454581427
   287   1       10.16958919291379      7.6676155577849991      3.3603120207919801
   288   1      11.470314741168041      8.9273741954401231       5.398503681458628
   289   1      10.352676534875021      10.182476386318056       3.826215479084313
   290   1      11.554604523428777      11.512352463612482      5.5288657933743668
   291   1      10.262356366463305      12.839873133670421      3.6828660209152346
   292   1      11.679498863082951      14.078171582342362      5.4065816477572426
   293   1      10.372144680576653       15.36745513913583      3.6108599879824741
   294   1      11.421045819800101      16.495313328926716      5.2793289679744406
   295   1      10.127529264131855      17.809877866756413      3.5293015572034165
   296   1      11.466300778742434      19.248295619849557      5.4527092932639771
   297   1      10.263202988197648       20.25804426151316      3.6227163852284781
   298   1      11.584999884444178      21.843013442330136      5.2733505149111766
   299   1      10.236387825909853      22.985103993463316      3.4720775123956287
   300   1      11.499721594124169      24.310213619808383      5.1896560571466246
   301   1      12.735332699873997       0.101051016777505      3.4947630263269049
   302   1      14.122562336692384      1.0717688410849746      5.3266699317787305
   303   1      12.818964203324597      2.5853634896233015      3.5916558530764062
   304   1      13.954931123895914      3.6979155215467308      5.4069767552059016
   305   1        12.8519935952997      5.0354710737309336      3.5922481637596673
   306   1      13.951387919836007      6.3028496657964164      5.2779690101260597
   307   1      12.708155188998221      7.6019043865876244       3.519952938377684
   308   1      14.058650569625698      8.7013138988560286      5.3890928522092301
   309   1      12.821616613635994       10.19263702561935      3.3641016009234246
   310   1      13.987833796581988      11.324184844923286      5.4855912842928838
   311   1      12.752641498236997      12.612789821047866      3.8035119972452671
   312   1      14.208617269516376      13.923802198533609      5.3988876734711928
   313   1      12.902658039780452      15.202130658226732      3.4916300991087832
   314   1      14.107941377742772      16.554043577075319      5.2169857244247524
   315   1      12.734840300877737      17.890018910907198      3.5306031975590964
   316   1      14.010563140564662      19.121863135934984      5.3424092392072913
   317   1      12.783782271078186      20.343035711130579      3.6029715127127604
   318   1        13.9649574341736      21.511615916575959        5.46133172584093
   319   1      12.927121960616303       22.94773241589742      3.5044419147607178
   320   1      13.875498164350807      24.150956319808341      5.3761424820199348
   321   1      15.294805771706573      25.257524427168814      3.5799836547644306
   322   1      16.615403752883001     0.95581218808083002      5.2337162992486226
   323   1      15.270580650078029      2.2027816300418417      3.5050463279025519
   324   1      16.589918086887369       3.702521628569059      5.5611478259444809
   325   1       15.23912592570427      4.9871314788932457      3.5445469720309362
   326   1      16.569049327587354      6.5381547401291069      5.4215792773744216
   327   1      15.254002824392918      7.5225561071083993      3.4615341113879716
   328   1      16.670212904813816      8.9058401553337454      5.3382338954773907
   329   1       15.33748692873195       10.07217951123436      3.5028068880939816
   330   1      16.597153330607835      11.331405158161045      5.3584708265850347
   331   1       15.31968113131906      12.499739778586283      3.5087499503284918
   332   1      16.700314198172663      14.043886963721906      5.4911425914142331
   333   1      15.379346524403807      15.226905336700641      3.6502955996048794
   334   1      16.618199559511137      16.447947118152442      5.4736115360262581
   335   1      15.310138257296494      17.505504790112198      3.5854122390132948
   336   1        16.5120160708612      18.884985254625125      5.4279186153251118
   337   1      15.292189852185734       20.49888387157738       3.594974234556263
   338   1      16.617355952786234      21.628186152384913      5.4417163881906987
   339   1      15.423593130829161      22.837495311210422      3.6440501901110882
   340   1      16.857216878651851      23.953711794725049      5.4240088654334393
   341   1       18.06630445681602      25.510995232740196      3.2879295560941713
   342   1      18.978997785637684      1.2084559562547574      5.3204991580978565
   343   1      17.840446061372838       2.406601808870477      3.6076861134877971
   344   1      19.200301527105776      3.8851110151268045      5.3868311445629287
   345   1      17.854212464188198      5.1340616725849051      3.6465626445236063
   346   1      18.922838027507982      6.5891437237187818      5.6497589743659065
   347   1      17.745299573981786      7.5613993959466592      3.5602815249682518
   348   1      19.081479129140625      8.8889398194255218       5.365641724544095
   349   1      18.026862505807525      10.121030144169382      3.4528942134701652
   350   1      19.248331811544372       11.35875074295817      5.3310116195657429
   351   1      17.888245342376781      12.570146299724637      3.5939665770929663
   352   1      19.091909707119765      13.986034877815582      5.6332855020614003
   353   1      18.005448919374864      15.088621806988783      3.6081732487459579
   354   1      19.043507751877126      16.463811930000425       5.385209630337072
   355   1      17.868931765268673      17.760185251085957      3.6409622762276008
   356   1      19.076782556314605      19.331098783728603      5.3521431993283546
   357   1      17.683500125242926       20.40781776701218      3.6835569138895941
   358   1      19.042260559057144      21.828515819064652      5.4299217086799656
   359   1       17.91568307812523      22.911949675661759      3.5584860270153293