dump/Cu_560_0/steps_81 (written by ASE) 

2000 	 atoms 
1  atom types
0.0      25.526554800834361  xlo xhi
0.0              25.5265548  ylo yhi
0.0      36.100000000000001  zlo zhi


Atoms 

     1   1      25.397564574356146      25.409857607924863    0.068691839246639602
     2   1      1.1479128036098145      1.3034230549306101      1.7624228761547904
     3   1      25.407506935624617      2.9001738134815853      36.019426613607997
     4   1      1.0946914609320957      3.8841124977109378        1.72550419654523
     5   1      25.388586972395249      5.2812390313899842   0.0023934975272482013
     6   1      1.0680616432631698      6.6528745028478022      1.9571029349728843
     7   1      25.252236878362755      7.7540787295399785       36.02177484163326
     8   1      1.3849797676727826      9.1270948389636164      1.7045750971731992
     9   1      25.229442665739182      10.132985825145134    0.067999270065524656
    10   1      1.2428416619058626      11.469889722886151      1.5547672062623279
    11   1      25.414122408537541      12.731073765403281      35.963867484067059
    12   1      1.2837560414155562      14.246567110571798      1.7776484023458143
    13   1    0.035804620987451019      15.441673303432196      36.042349663642831
    14   1      1.3795918153433182      16.712304137181015      1.8648780951201391
    15   1     0.12469943802157218      17.877005137379321      36.047711513916227
    16   1      1.2509709614401634      19.246683252932037      1.9287916213443415
    17   1      25.366125280271888      20.349705975601371    0.024447730166218654
    18   1      1.1946605798019443      21.797338013122236      1.7837100816875917
    19   1   0.0038529834059629156        22.8998869667289      35.927388039893138
    20   1      1.0683306623298587      24.199947764050698      1.7907749979310783
    21   1       2.584204709026876      25.496335273029018      36.052058111918242
    22   1      4.0020288448756975       1.130525913200336      1.7730010783107326
    23   1      2.4976418192697176       2.505051695634716     0.15784665901196593
    24   1       3.769615142318314      3.9405654085132693      1.8085569582735161
    25   1      2.4306601560118137      5.2360154280076001     0.17126038223941586
    26   1      3.7099055614671692       6.432536953828774       2.042604445695519
    27   1      2.1145209099632236       7.559766342981761      36.083662986351634
    28   1      3.8964806752918739      8.8729102793078898      1.7478765207978431
    29   1      2.6357200342718219       10.23824981621175      36.086244527083672
    30   1      3.9208289174879321      11.593537346952772      1.7629712149174663
    31   1      2.7204804618640139      12.889505389834339   0.0023202848132996218
    32   1      3.8790989172609969      13.961007796325134      1.8693863982900909
    33   1      2.5773501129787624        15.3612140745616    0.011314243510219042
    34   1      3.9016328564100595      16.747934500044053      1.5957799607343517
    35   1      2.4245959543183515      17.645315639080636      36.090759531037996
    36   1      3.8187761562360176      19.055781522622567      1.6561244690182213
    37   1      2.4276538745814134      20.260183135381173      36.043969592056705
    38   1      3.8656953574791335      21.595187184207738      1.6197305424841264
    39   1      2.4483631656371134      22.947731449674155       36.00333206612558
    40   1      3.8444513967207312      23.891723385801505      1.8114305807806557
    41   1      5.0060653607507124      25.380887748481282    0.030208690396489147
    42   1      6.5201785828438981      1.1444744879107618      1.8446232989697482
    43   1      5.0442024190416657      2.4653612964555216     0.16990576406876681
    44   1      6.4199322131912444      3.6014567469211998       1.971086423916858
    45   1      4.9944826604113306      5.1140708026728614     0.14631765779353159
    46   1      6.3208886569796547      6.5109809126773897       1.901194966116226
    47   1      4.9784105268284184      7.6018784430861617      0.1065549185800818
    48   1      6.5347638086918973      8.9564564487975993      1.8624090069458694
    49   1      5.2538452949831962      10.106748445550581      36.005153773770054
    50   1      6.3901019563462107      11.485854282865283      1.7610966981671035
    51   1      5.1463454069637935      12.713302089578969    0.058534667886135511
    52   1       6.348698942836652      14.109098303200513      1.7361570010329042
    53   1      5.0078944468887761      15.399949143391897      35.939772816781606
    54   1       6.415289206969284      16.635413946575316      1.7074191241084922
    55   1      5.2101119346498264      17.741628368027477       35.91686282142512
    56   1      6.3555729205958293      19.120986386495375      1.8054867240590498
    57   1       5.040898968702658      20.292592706499253     0.11540258446472083
    58   1      6.1797438143087273      21.704160556348121      1.8209017201264703
    59   1       5.090918623334538      22.855060835324693      35.993434942425985
    60   1      6.3235166185369831       24.23618203897988      1.8180848342270235
    61   1      7.7400492493601885     0.28702380828410828     0.16580116347530524
    62   1      9.0423421637261789      1.2758166295654172      2.0061547275503027
    63   1      7.7528276849740179        2.78839203317336    0.063192735448319493
    64   1      8.8381312026188787      3.8260424354697413      1.9152092352954362
    65   1      7.7975602896420178       5.293221904275498      0.1780555778993288
    66   1      9.1668416176884477      6.3851477023089434      1.7764863257162025
    67   1      7.7352387040461927      7.6165500288041281    0.025575221654264617
    68   1      9.0446323778382478       8.865229917321706      1.9677094635093448
    69   1      7.7567175217273823      10.393926645160404      35.966739018517451
    70   1       9.029753908804274      11.285108936435508      1.7552387965243852
    71   1       7.661469127185252       12.79723487718406    0.070435376572186348
    72   1      8.7621614643798242       14.05172755116546       1.791401710302865
    73   1      7.5386668518633364        15.3934090326911      36.022073829516494
    74   1      9.1068022797170372      16.778383662111946      1.6360981405470054
    75   1      7.7430101736818102      17.927674013062994     0.10247938392502638
    76   1      8.9368248798297536      19.159381463581408      1.8583370844893703
    77   1      7.8013907389393848        20.4678252987867     0.17681360710167845
    78   1       8.904754918759167      21.828729978819471      1.9101824491794104
    79   1      7.6667218690794128       23.16224386376307     0.14695250846637001
    80   1      8.8040652211919213      24.348622253211861      2.0706431031389103
    81   1       10.08730146853299      25.419706272159655     0.22795872653323393
    82   1      11.514026214308297      1.3314102271654338        1.84970525988017
    83   1      10.270013083959377      2.5660371360762784    0.052347009039783676
    84   1      11.411147659824426      3.8154397106404274      1.9878807074709257
    85   1      10.165220419978109      4.9850773700919868      35.957119855420416
    86   1      11.490984224620984      6.2888341018437623      1.8907763464308573
    87   1      10.285019070126829      7.5490060412212756    0.090239951478702229
    88   1      11.570266077306517      9.0352050112100546      1.8545554946817315
    89   1      10.235561187655151      10.176727653517373      36.047869568362522
    90   1      11.428351014902974      11.433858445696574      1.6852085495511921
    91   1      10.018653940131202      12.863531383688011      36.023761452493858
    92   1      11.543251297117681      14.138752520104834      1.7071550141714178
    93   1      10.229024461940899      15.235470842295495      36.093189813396997
    94   1      11.540777164083158      16.632912279458161      1.7134602606456844
    95   1      10.390317483690891      18.089390544409021   0.0017267048237954437
    96   1      11.541778492896015      19.118990197023059      1.9826556287621775
    97   1      10.235093382735176      20.477768708431785      36.059756447584839
    98   1      11.289400403615659      21.690186140438712      1.9310459807401585
    99   1      10.073717522520253      22.895082852460128      36.095588263836184
   100   1      11.513740327709948      23.961953817413004      1.7409649590404903
   101   1      12.754185106005773      25.490045660242597       0.172206335112844
   102   1      14.048232439094207      1.4656040945535227      1.7807455807391082
   103   1      12.659263758795818      2.5959180382941516     0.15389989516719407
   104   1      14.062582225552323      3.9494962153263158      1.8271409369638734
   105   1      12.868184470952272      5.2768400317201554    0.049522247899449055
   106   1      14.312182428654822      6.3344527059720681       1.760673455859638
   107   1      12.597291627647778       7.636368871107293    0.073382724349573991
   108   1      13.997086910459259      8.9339979266486651      1.9247087109454688
   109   1      12.745038897114858       10.24122036292111    0.027381399483886071
   110   1      13.968189643179263      11.507735604736759      1.7462607677813029
   111   1      12.780701985613579      12.907197066276138    0.014790772701928762
   112   1      14.147271518327411      13.950532970798045      1.6631861043949341
   113   1      12.646225956376693      15.465565456004061      35.831390769070339
   114   1       13.91404164520165       16.60621927251961      1.7527950353103745
   115   1      12.980688797621371      17.782318960157895      36.037886425611468
   116   1      14.078060280292545      19.152360304528806      1.7882712606447175
   117   1       12.69696017486471      20.352751884188919     0.16146036816885503
   118   1      14.006168826581483      21.567820162026837      1.7494076697747898
   119   1      12.816489218131203      23.053676174375909      35.993356699339408
   120   1      13.930916747988988      24.344416423531406      1.9857495473139806
   121   1       15.21902980156011     0.11077200377801902     0.12958064577077263
   122   1      16.732793683719756      1.3676312515643954      1.9586508557479185
   123   1      15.543776665848092      2.5411943435204201     0.13073430913318579
   124   1      16.552017047728391      3.6464971470747711      2.0965446693598677
   125   1      15.404057443735747      5.1141127039997896      36.022114644747909
   126   1      16.579034622804546      6.1852019806265934      1.8744251739323083
   127   1      15.170044699245567      7.5217217958602607      35.983432183269194
   128   1      16.443171274587172      8.7074993808446415      1.4675764762336019
   129   1      15.228536583807189      10.095388047346317      36.026815382504132
   130   1      16.414411933540698      11.420921581573539      1.5708106872888259
   131   1      15.129215886527078      12.829567628613665      36.084224959233389
   132   1      16.790857243771523      14.160675332880238      1.8353110026474271
   133   1      15.438612490546911      15.321608043706402      36.063745896950394
   134   1       16.59190471761929      16.606023263540731      1.6837377507307332
   135   1      15.388962748275533      17.827384828224822    0.087903827572119828
   136   1      16.766766368772437      19.189801101839723       1.811818917170503
   137   1      15.258696507780462      20.241141431252164     0.06970648950887158
   138   1      16.706008336437375      21.543355889297029      1.7606887778164493
   139   1      15.461866546285201      22.961521843020805      36.095569485234229
   140   1      16.437068643219874      24.038524514316482      1.9051986426630843
   141   1      17.807820833032277    0.016257431315988332     0.23400997483369099
   142   1      19.268416400561815      1.2315964466305735      1.8367299293206889
   143   1      17.814545418319678      2.4460277330534677      36.071328586494758
   144   1       19.09524020810338       3.621602461859907      1.8315254296310644
   145   1      17.883738463284395      5.0171923790499378      36.011207211800055
   146   1      19.170254948615884      6.3454232665132739      1.6087125682328987
   147   1      17.787642471324027      7.5663807633705256    0.018960968292196869
   148   1      19.016948988903074      8.8141521775859406      1.7116212394482426
   149   1       18.03567269505708      10.180649951123618      36.070386144032177
   150   1       19.05223031758614      11.521829004115649      1.8413719556382955
   151   1      17.851936457264507      13.004786949984117      35.986387993310522
   152   1      19.277652269442875      14.083025911462473       1.837961347300312
   153   1      17.888557513674421      15.398027982925829       36.06602170099486
   154   1      19.092758477928754      16.499256752461804      2.0124136587561225
   155   1       18.02952377912597      18.033573380548585      35.934569994018979
   156   1      19.289767559136266      19.070984571218084      1.8788109054123192
   157   1      18.013793644411912      20.258178194781028    0.021315287703259838
   158   1      19.179856597553574      21.559253911628055      1.8069437797228374
   159   1      17.972811936708311       22.69521640119563    0.093968655243031565
   160   1      18.942743343311356      23.923603370276187      1.9810996557243357
   161   1      20.350509276738055      25.319308847768344    0.094799133239632669
   162   1      21.671717520871592       1.329829991604065      1.8073364658129769
   163   1      20.332407956333771      2.5572685269104976      36.051832648563717
   164   1      21.587360402462487       3.968827938647729      1.7154243279082597
   165   1      20.338226494779878      5.0520977947094226      35.949122847118417
   166   1      21.593533168170907      6.4705508492509409      1.7842549661157237
   167   1      20.345819896114019      7.6326388891782573      35.843454056885172
   168   1      21.487033251317751      8.7704791998636313      1.8085004690483522
   169   1      20.476569773641348      10.156330124312133      35.989988120289752
   170   1      21.668159954419664      11.358908833589863      1.8427796943027714
   171   1      20.288231985056321      12.721880892182991      36.018479273907573
   172   1      21.731374903131407      13.917461394336966       1.694426188361114
   173   1      20.321545067249112      15.222381252410717      36.089716697541981
   174   1      21.827237058190143      16.528885392539454      1.7630299248560395
   175   1      20.420399177284999      17.964349561862107      36.095591825336861
   176   1      21.899383752908978       19.11886346152906      1.8837061648347915
   177   1       20.51735236855442      20.398143867626132      36.030908137448655
   178   1      21.710622242369269      21.596051805971872      1.7999314238709432
   179   1      20.385595162591198       22.86105494639596   0.0065810950460104397
   180   1      21.502810777518167      24.416868725067847      1.8760024243051141
   181   1      22.817807146624858    0.085010368462896946      36.035200019260138
   182   1      24.260053087963453      1.3325580346258099      1.6181905841866189
   183   1      22.829748376676623       2.613895722334548    0.001887111207827274
   184   1      24.062039724746899      3.8082216080381515      1.7960687194195424
   185   1      22.928354395304897      5.1065071043403849      35.971253969338115
   186   1      23.970538750663867      6.4284615634377547      1.7687775484566493
   187   1      22.786418143333805      7.6226406247252569      36.036264028416277
   188   1      24.018239188071401      8.9497430304271557      1.6169263374743783
   189   1      22.809314107439032      10.103565516134866      36.002872146066309
   190   1       24.15724976153917      11.517242885407736       1.825271573011287
   191   1      22.938751519099863      12.773195346482366       36.09104083754287
   192   1      24.349403292395674      13.890640766758127      1.5322164093468351
   193   1      22.878439218688953      15.290684924274435      36.051332252345141
   194   1      24.492689031724463      16.417040459343539      1.7531866584933011
   195   1      23.031688500890585      17.841457619417909    0.050680289822150913
   196   1      24.295528968334519      19.063509900548855      1.8328935210813133
   197   1      23.054692320688286      20.384019531455039    0.088239719346893161
   198   1      24.165043625358955      21.697839845899651        1.80729095095794
   199   1      22.910177477435358      22.973616520816289    0.050190463902993178
   200   1      24.166227842489398      24.151241000687282      1.8505817618406692
   201   1      25.510970145229248   0.0066166898310389757      3.4912857727993911
   202   1      1.2554064056219736       1.400806002546696      5.1744346332610567
   203   1      25.398801193558356      2.7014278915105869      3.5837181645301697
   204   1      1.2003709898660004       3.895776932691656      5.3290687700384627
   205   1      25.420075421322569      5.2180333138102357      3.5257228305301385
   206   1      1.2674134399142274      6.4182597459730015      5.1503260915494753
   207   1      25.285625530554459       7.714982392763412      3.6072909627491621
   208   1      1.1733545798430234      8.8937772941224686      5.4777207301894055
   209   1      25.524737576694982      10.135175580046573      3.2765881453927146
   210   1      1.2508580063760344      11.352680398261136      5.4025470155414999
   211   1     0.15326639583729926      12.744953644780599      3.3934187300277356
   212   1      1.3867445378375325      13.972634170434006      5.4879172438914612
   213   1    0.014757766341927466      15.120274496148335      3.6195077442815333
   214   1       1.274520468576716      16.617939602109633      5.3561553987873891
   215   1       25.47043140683018      17.826792646212038      3.6222873394682518
   216   1       1.406711200970572      19.190621298131909      5.3037311340529101
   217   1      25.350784883427238      20.509344984503812      3.7047722402232726
   218   1      1.2779484423029444      21.886798331382881      5.5153599923495058
   219   1      25.224672289793972      22.902601988788657      3.5795873211805209
   220   1      1.1857571739173041      24.463854409715648      5.3809392485959426
   221   1      2.4795906465172961      25.428963167760369      3.3939719020967223
   222   1      3.7590785499752002      1.0985219403776008      5.5651639422367261
   223   1      2.4535801027842528       2.660781204685899      3.5020946900819929
   224   1      3.9071679898909704      3.8877343710323973      5.4496614352722803
   225   1      2.6115608471763427      5.2715508427692583      3.6484684734450372
   226   1       3.785406346213708      6.3658211133838023      5.3982888855412892
   227   1      2.5544097512030559       7.826253333551727      3.6668698281970027
   228   1      3.9010619554253156      8.9441580617942211      5.3711366675576837
   229   1      2.5453234215438161      10.320708659615605      3.5794126510107609
   230   1      4.0526903550815554      11.481801161160009      5.3229611216250374
   231   1      2.5836909837018229      12.840173048416201       3.491404264727668
   232   1       3.893675266627842      14.100140922131958       5.287184650270512
   233   1      2.5779682732390605      15.272780407231883      3.5540966065040043
   234   1      3.9491560921329314      16.485074710008746      5.4033832322775313
   235   1       2.604457702470425      17.871860346495101      3.4909984754487833
   236   1         3.8325288867861      19.075494875760143      5.4172698046511458
   237   1      2.5915729376800578      20.430195558373349       3.557252029415098
   238   1      3.7498382288730201      21.671723554041833      5.4430443883923862
   239   1      2.4434514840652612      22.853433540223115      3.6383294663856023
   240   1      3.6857881460212716      24.212808589332457      5.5421259202613689
   241   1      5.0187068459019777      25.398225290329925      3.6263100359501625
   242   1      6.2912619728047323      1.3792639237965074      5.3895500973857233
   243   1      4.9467095063405839      2.4849267874418244      3.4818504713126357
   244   1      6.4343331252197133      3.8924540717809322      5.2839361291485982
   245   1       5.079629215187774      5.0968755175777511      3.6088961302749807
   246   1      6.3924390897983363      6.3008752078695869       5.389686390287717
   247   1      5.1102278303200386       7.643991663105516      3.7569177848780866
   248   1      6.3005919097890839       9.012137068816779       5.764118116804049
   249   1       5.245623862694206      10.177427094166996      3.5934259490298035
   250   1      6.3926812080466382      11.404993113509191      5.4698935348342612
   251   1       5.213865511911842      12.714776780107718      3.7854777722822543
   252   1      6.6163465992338679      14.138091955882558      5.5783142372952454
   253   1      5.2190043902080721      15.285195124677555      3.5253168886527995
   254   1      6.3941030971795119      16.770791240983328      5.2969504987077833
   255   1      5.0149116105237423      17.955359689443068      3.6243028042887033
   256   1      6.3141687767762464      19.222874634671708      5.2464565991272218
   257   1      4.9173291221887991      20.439332952268192      3.5367186569925129
   258   1      6.2402946206242271      21.704281129902594      5.4669209253681448
   259   1      5.0295304345751299      22.878989459652676      3.7246786426682283
   260   1      6.2938394263560076      24.443005837177562      5.4029956702031541
   261   1      7.6208514133367791    0.060212070102034727      3.6587170714965001
   262   1      8.9537255513122496      1.2796560952305243      5.4102626014000128
   263   1      7.7750219876167099      2.4176898042894734      3.6796831514676858
   264   1      8.9600493473536389      3.6431893666932607      5.4627142519262497
   265   1      7.6184322382658465      5.1917016341615971      3.4923078413690072
   266   1      8.9268631903462623      6.2045445229051479       5.496840826694573
   267   1      7.7946886015440739      7.7911311500800968      3.7580867444071666
   268   1      8.9254568490743971       9.109662292527009      5.5581183815816919
   269   1      7.5970523981302103       10.30372951918773      3.6074884714187316
   270   1      8.8726913876454248      11.685630256070922      5.4053476724668892
   271   1      7.6712967557404008      12.799133649537019      3.7456435149109888
   272   1      9.0054125090919488      14.189290286982571      5.4986972710550948
   273   1      7.6442945512516483      15.384634503789474      3.6575613814458938
   274   1       9.097544984889101      16.627587722971906      5.4844992682887517
   275   1      7.5813032188081877      17.910109628034526      3.5220487820967139
   276   1      8.9131069358252493      19.274347639937822       5.226917668822499
   277   1      7.5943529203531579      20.458238907332877      3.5404318772546493
   278   1      8.9323652716674786       21.81918328701278      5.2796549354117293
   279   1      7.3789112803013994      23.076782932335103      3.6838502420311099
   280   1      8.7885807909457547      24.290068780387006      5.4225470266851508
   281   1      10.310844219709114    0.047470308754436197      3.7525811424190261
   282   1      11.555128633482603      1.4552844524011785      5.5532691033994928
   283   1      10.291404343305798       2.475635068268677       3.617631669612682
   284   1      11.414275326838846      3.9809812236150179      5.5163709866224861
   285   1      10.167701823673976      5.1420619988293117      3.7806707695027288
   286   1      11.389826555049185      6.5360120483896171       5.474170982234317
   287   1      10.229612733783041       7.728942452076164      3.9178058653518439
   288   1      11.386736822787128      9.0636058150762349      5.4071328989333622
   289   1      10.099336716416159      10.317947324642038      3.6899074119740609
   290   1      11.513544044187121      11.518013537804453      5.4862141324705958
   291   1      10.247515967314881      12.730245866728783      3.5406612650226403
   292   1      11.384137350020515      14.138676167823633      5.4441447899651969
   293   1      10.088821799086915      15.384786299040345      3.7126745561752728
   294   1      11.511869510318617      16.492318821907379      5.5561669717292821
   295   1      10.206556032176993      17.907987783669324      3.6517702311902722
   296   1      11.424359896955526      19.213295427648227         5.4069365846621
   297   1      10.095152935812813      20.469772299769769      3.5365459267627233
   298   1      11.485441700624744      21.728340292905973      5.3945525445489624
   299   1      10.273584410315124      22.840178608729769      3.5897107591099497
   300   1      11.351259071988842      24.313910056539697      5.3040312821698938
   301   1      12.818763673949999    0.094109302810351847       3.589245787749213
   302   1      13.914275753881558       1.368351143661003      5.5228530208850826
   303   1      12.925466183714969      2.4405473637385402      3.7709320614856949
   304   1      14.109288632531454      3.8762916935937621      5.5339579288858269
   305   1      12.766309783663685      5.0337061952681674      3.7409548862024469
   306   1      13.985345632051065      6.4675330956506301      5.5472527319760854
   307   1        12.6716028374923      7.6094157012283423      3.5759930790054213
   308   1      13.712880304234597      8.8408447869343423      5.3651738035129402
   309   1      12.649594037516126      10.330373442586174      3.5377730641755329
   310   1      13.854143862215542      11.442372736808585      5.2672679331189043
   311   1      12.622102634790982      12.948130995201165      3.5332334564065624
   312   1      13.952844781151564      14.016042850010026      5.4078819782459044
   313   1      12.621647883004911      15.272143879593729      3.7093197987936137
   314   1       14.18353398929427      16.534839018522465      5.3111897365585561
   315   1      12.529354879315008      17.678963357363489      3.6691468956932165
   316   1      13.830768796979326      19.133093413408915      5.4767050909388475
   317   1      12.833616334511248      20.428290293043027      3.5483028543958866
   318   1        14.0349655310077      21.917716756033069        5.50470198791212
   319   1      12.733661697304081      23.129875592667723      3.6808359328026299
   320   1      13.987119530248126      24.424570556911586      5.4759659549328719
   321   1      15.292710013628586     0.10021047226947084      3.4947532960761931
   322   1      16.522477990077292      1.3730176505339315       5.454634614551054
   323   1      15.236802431921776      2.5804414344811315      3.5891901945013069
   324   1      16.464644377088135      3.6777681810282572      5.3270932423249535
   325   1       15.30085190396518      5.1059596359453696      3.7493428037493199
   326   1      16.615427771819846      6.3903554198441297      5.2858204508852662
   327   1      15.204392474849625      7.5386457755362919      3.6503014718135445
   328   1      16.468974929148388      9.0134864393530787       5.176816260822612
   329   1      15.259819462663064      10.128710028042686      3.5361417740039656
   330   1      16.395213759089025      11.496697276685998      5.4502759674375305
   331   1      15.081835751171552      12.783882028002541      3.6851606276177855
   332   1      16.678956378799167      13.796877586063292      5.2635207753044133
   333   1      15.244581787847375      15.294812697608466       3.470491321830889
   334   1      16.736087845300265      16.474396121867631      5.4681712898687547
   335   1      15.195306043961651      17.864805667860999      3.5264691802994892
   336   1      16.402490560190316      19.049854336652785      5.4093239338161574
   337   1      15.326318947505776      20.379154452286567      3.6563844494375854
   338   1      16.402178350945665      21.681765544007973      5.4944477258691373
   339   1      15.237000367502526       22.80257486422283      3.5415611760506303
   340   1      16.352565728219393      24.147756697264466      5.2872380332540265
   341   1        17.8775848601197      25.430325880042137      3.8279426488035879
   342   1      19.098046743922946      1.2491662241389652      5.5029212085114372
   343   1      17.871587349899549      2.4411597103119891      3.7725411341111297
   344   1      19.024557927317197      3.8622178679535044      5.4727340699440994
   345   1      17.993943874387686      5.0886240974385171      3.4932852423780676
   346   1      19.086385852664055      6.4223752057330969       5.489407738505208
   347   1      17.932873927773532      7.6920466359639326      3.3868991147985299
   348   1      18.955169690922833      8.9397641245647499      5.1712679915727957
   349   1      17.774421248711402      10.363606586047831      3.4291447479262613
   350   1       18.87066311285405      11.358416363078804      5.4158771694742711
   351   1      17.873316665006502      12.757961092656558      3.4111123543950623
   352   1      19.242050228670813      13.732304181070536      5.4524948693212938
   353   1      17.831218235535086      15.124955940596276      3.6070521221303355
   354   1      19.115856489604369      16.463012493095789      5.2902276403173492
   355   1      17.922271431153977      17.777477057463056       3.584447801284385
   356   1        19.2586897656325      19.050342947027168      5.3871707147927728
   357   1      17.669341819787867      20.349432542089342      3.7874212998921855
   358   1      19.010333513906481      21.569896011221886      5.6145222484027553
   359   1      17.767840382002817        22.9515281719119      3.7390837469662137