dump/Mg_900_0/steps_61 (written by ASE) 

4000 	 atoms 
1  atom types
0.0      32.100000000000001  xlo xhi
0.0      55.598830921999998  ylo yhi
0.0      52.130399999999995  zlo zhi


Atoms 

     1   1      32.027672380029124      55.482835582539238      51.664380998230705
     2   1     0.88373509464088751      2.6240704564474773      51.858003096348227
     3   1     0.95020253923081477      0.4596210448320614      2.6578316595331049
     4   1      31.608319739255936      3.5426376788682341      2.4289175595987902
     5   1      31.676519132132889      5.5876178806078514       51.84702599509955
     6   1      1.6990293442052804      8.0310057319421624    0.056369212534967121
     7   1      1.4561077670037332      6.5073013807903228      2.5680283825239276
     8   1     0.47732805011348806      9.4299545462887551      2.6068447963060133
     9   1     0.14339714324339722      11.111105324873597      0.0889551725121141
    10   1      1.5074380015150037      13.959369736347679     0.10232135472953766
    11   1      1.8736532023375843      11.949286961375607      2.4619945489694119
    12   1    0.096428092653003228      14.716146585736741      2.6641204027349281
    13   1     0.13974630652316025      16.533881691227382     0.19801626554737287
    14   1      1.3975317516443511      19.064351825102719    0.039086963998679773
    15   1      1.4064912569070112      17.526777946259852      2.8155168216733268
    16   1     0.24061872396212172      20.288852270373955      2.9178416715089042
    17   1    0.018027511446929566      21.960186223112682     0.32435488450192174
    18   1      1.4751883085916475      24.892842517285878     0.44851157665951547
    19   1      1.1464257251872494      23.805495698330127      3.3448066264431167
    20   1      31.681890492182681      26.039341239714307      2.6845026235937381
    21   1    0.012892060121048786      27.928747862148413      52.102493234947914
    22   1      1.5695724598673713      30.430500785115719     0.12548149940142039
    23   1      1.5805334426889561      28.777179807764707      2.8623012780939256
    24   1      32.075534846428347      31.400799320004765      2.2219463643624504
    25   1     0.31245949234311715       33.39031078156593      52.017299745386907
    26   1      1.8870251392495474      36.004596742128392    0.098505399002383934
    27   1      1.7092302702576299      33.783954281000966      2.6716101354911777
    28   1      32.046618703699863      36.756992659244546      2.7426849519269085
    29   1       0.126938569141231      38.930811479422012      52.040716779537711
    30   1      1.5753389433186116      41.632806010797843      52.127772465451727
    31   1      1.8666977714949351      39.689597130406732       2.563688122356667
    32   1      32.092102178703762      42.198154719938479      2.3411611404329742
    33   1    0.090528589971168458      44.720816684246913     0.34816337874615488
    34   1      1.5982731727127126      46.956436933157214     0.54099075999014834
    35   1      1.5489127397562377      45.052318887832946      2.9910468626475977
    36   1     0.33038330846058256      47.876259336833208      2.8258710828653189
    37   1    0.085833673733163279        49.5026280373948      51.837963135661603
    38   1      1.4534225371596072      52.357901198562331      52.123662808061965
    39   1      1.8154577799570288      50.482068857586263      2.2855373681756648
    40   1         32.090503695094      53.162753469593341      2.5160596562398063
    41   1      2.7083041824651728       55.25836400371027    0.041836386700030655
    42   1      4.4763675859616088      2.7461501611554771      52.057419058752053
    43   1      4.9201140702190269      1.0536451140934233      2.7661331851965345
    44   1      3.1190110358661971      3.6325272684085843      2.5584640856624019
    45   1      2.6124625348667605      5.2778192621263225      51.941151403549185
    46   1      4.6266634088003133      8.7988519889428538    0.079847416597565765
    47   1      4.3705515303786822      6.5383345073246772      2.4404851885351033
    48   1      3.2771400214863373      9.3176050520897036      2.6696153683339356
    49   1      3.1738497460849358      11.386284721560946      52.004779729978274
    50   1      4.7304689461242075      13.829119307321115     0.12850341381248856
    51   1      5.0473649564268195      12.389741493550563       2.668651096896169
    52   1      3.1857022173380183      14.945766038602764      2.5501250934389863
    53   1      3.0009126977834994      16.720843498304333     0.13562511542564082
    54   1      4.5420756513128255      19.683058909045631     0.32898022586181802
    55   1      4.5950021184378684      17.760082256712639      2.5995455652426158
    56   1      3.1534300478754518      20.810092806905896        2.95492563159126
    57   1      3.5055302502798891      22.478632446364276      0.3456385447677196
    58   1      4.8379023854973742      25.456778892395199      52.126227365091779
    59   1       5.171508773192989      23.223509278930841      2.5144913080505251
    60   1      3.4199267695987472      26.281562194437797      2.6069543977897838
    61   1      3.0428168572912271      28.004635223228952    0.059817753935562511
    62   1      5.0184967082967917      30.503755555632512     0.14753916781314932
    63   1      5.1139992014724642      28.790483614339259       2.767517529113213
    64   1      3.4059434088595109      31.442987304971421      2.5749199451735918
    65   1      3.3297865777760984      33.361683746172545     0.11210563850357992
    66   1      5.1067439435061157      36.107715048069238    0.074925765995105906
    67   1      4.9970197721866336      34.519099436278765      2.7248504089258492
    68   1      3.0410421691510359      36.978404837939458      2.7164875541634337
    69   1      3.1307435864077036      39.063990055890173       51.83985073001945
    70   1      5.3436838152766057      41.704662114249153      52.057879360225186
    71   1      4.6389900058193625      39.950875231682019      2.5005094112884394
    72   1      3.1215486890391753      42.515738526210491      2.5640562992630196
    73   1      3.4112847874486789      44.096831196408601    0.051073453365296159
    74   1      4.5806736035332909      47.236087021561815    0.086167916235256214
    75   1      4.7241135606623548      45.230689986621947      2.6997175165409399
    76   1      3.4160392854226735      47.940954857693228      2.6194741756923254
    77   1      3.0388292387678653      49.638948433253283      51.909892775616882
    78   1      4.8005215909564827      52.537942095866448    0.014361507511553106
    79   1      4.6160681972969151      50.778245412692215      2.6687190879447411
    80   1      3.0393159145303597      53.474013222029107      2.5094430282731204
    81   1      6.1985058113214002     0.38019769089635796      51.943747143316884
    82   1      7.8672713980657161      2.8827004238534921     0.11536257905738001
    83   1      7.9341915151265781      1.0926726061124232      2.5921281912766303
    84   1      6.2855905138901269      3.6085368684402828      2.3201756550609285
    85   1      5.7898051547279161      5.6676297927331936      52.063656285558395
    86   1      7.8805601179799005      8.3818203833584963     0.21195455620662859
    87   1       7.496953340423901      6.5195377940359007       2.840106158585352
    88   1      6.2489159381160553      9.3653610938031857      2.7335757489171528
    89   1      6.3793585644515725      11.371811953445944     0.15852186253355141
    90   1      7.6618368559573256      14.018404447592308     0.38853893216584368
    91   1      7.9038751069528477      12.220917048783912      2.7232449554973028
    92   1       6.407509397540033      15.075873336918445      2.8936143270339438
    93   1      6.2913680694069187      16.582532169098958     0.20672877844297938
    94   1      7.6736207273638151      19.482998269498339    0.066650981897718842
    95   1      7.8872876953015361      17.685652505652619      2.8346073196662886
    96   1      6.3857800855819455      20.389523310838165      2.5883417701550053
    97   1      6.5285196609915701      22.288585752567332      51.977950275976013
    98   1      7.7676883558350296      25.228493001089991      52.109360393609862
    99   1      8.0665701250428601      23.452817007972698      2.6078001276465974
   100   1      6.4984020949203742      26.179339168388097      2.4435951005547323
   101   1      6.2306074962681883      27.847456822138113      51.907105990132521
   102   1      8.3142740037831562      30.351613773030767      0.3787673373991115
   103   1      7.9777957663310568      28.771071172241054      2.8972404868006727
   104   1      6.6625247854786638      31.521556204193914      2.6028878569854359
   105   1      6.3810140641217554      33.137069373806071     0.19070336529208434
   106   1      8.2038699349878694      36.254509155505005      51.977153183466584
   107   1      7.8853512503410856       34.41830771085894      2.6079633407682401
   108   1      6.7910216751734485      37.014130525903497      2.6920453735025265
   109   1      6.3365308312667663       38.87690357879228     0.29709615824034702
   110   1      8.1100924052462844      41.778021084520134      51.790076574530481
   111   1      7.6893288563554698      39.990539589520019      2.6614487022835678
   112   1      6.4819173717508445      42.608845073189336      2.9966104319572091
   113   1      6.6289345088454503      44.304537052091462     0.37245793994941201
   114   1      7.5746216448105423      46.756635611577025      51.772127208271726
   115   1      7.8558973221910628      45.303896173237398      2.9976572160556541
   116   1      6.2562265651247868      47.755538255270395      2.4558111549112618
   117   1      6.4214391204143855      49.847647983576771     0.11287360844723895
   118   1      8.1941388903461263      52.711217014778732     0.23422791558329464
   119   1      7.5184774557582577      51.002761372812337      2.7499769333320727
   120   1      6.2714270851493055       54.16328602355788      2.6124020421037741
   121   1      9.5637438802830772      55.544184074797379     0.12940243603851936
   122   1      11.054850354134368      2.7002059873521285      0.3371348696821459
   123   1      11.137516689342636       1.271624454780524      3.0464732900196707
   124   1       9.258395245134535       3.686317051506677      2.5948298476927545
   125   1      9.3514397558012963       5.633523287265823     0.11474209613097747
   126   1          11.30642076603      8.2987715563281501     0.17388518139830514
   127   1      10.815688865219895      6.7874022582633486      2.5543401594660007
   128   1      9.2526096155605018      9.7217809184961226       2.635287997692938
   129   1        9.49880850610338      11.250888929994369     0.25421669873031755
   130   1      11.000602393083646      13.939961948794513     0.12711251911891522
   131   1      11.327526180380909      12.116388675009027      2.8435886803501473
   132   1       9.401238548221448      14.680029793620392      2.7396287094000371
   133   1      9.4762656265704504      16.768470700937602    0.097016273224539484
   134   1      10.998274949716068      19.311050195972715    0.087160514959317481
   135   1      10.833439291586973      17.608302696613109      3.0254403425302301
   136   1       9.359515805130922      20.190639779838598      2.4468517956608644
   137   1      9.6542758088926597      22.295704350173271      52.083331145082724
   138   1      10.958816521266542      25.229550734496037      51.795226568230255
   139   1      10.834893016246983      23.227668682659516      2.2795366449659542
   140   1      9.6658632672278078      26.047155249903167      2.6019022269186252
   141   1      9.1101231847886552      27.949109888887257      52.009805630416373
   142   1      11.045354803050344       30.89708934521957  0.00065724400553917727
   143   1       11.00920219777602      29.179111294192197      2.5950190971076319
   144   1      9.5140248227263005      31.911614425529301      2.5370284793452309
   145   1      9.3795725510555634      33.421184826047444      51.966023941660438
   146   1      11.350253530856786       36.20496302967252     0.14941071832700145
   147   1      11.245178819791269      34.101151608577148      2.4023403870984814
   148   1      9.7957923244965244      36.991053562957191      2.7555868641175674
   149   1      9.6193622079195933      39.026592702729758     0.13532211650586004
   150   1      10.941694480218768      41.667181664369494     0.10464847566604955
   151   1      10.780713109421621      40.089949689266874      2.8242893963866038
   152   1      9.3527640132573886      42.526482115963454      2.6888275106176498
   153   1      9.4949212566277765      44.537265518843526      51.970674195250382
   154   1       11.49098430961994      47.096698358743062      51.862719579316689
   155   1      11.326496386460164      45.205335103462502      3.0772126831870743
   156   1      9.8122978141064099      48.174329111032755      2.6690647890395676
   157   1      9.6156571184449522      49.768653866514519      51.914848845482354
   158   1      11.346486994533974      52.746379787403349      51.840009297527622
   159   1      10.800596893751917       50.95653458527061      2.3805915398753044
   160   1      9.4972677388236839      53.891951680080467      2.7222815482143075
   161   1      12.771268927652191    0.098903444766241216      52.066075819257492
   162   1      14.770566581446039      2.9010891627094089     0.31979182203101558
   163   1      14.179478933920855     0.48281961184952915      2.3581888074955435
   164   1      12.450057898751039      4.0571168991132271      2.6120488115409701
   165   1      12.612101716209981      5.4856519189886876       52.10132377718385
   166   1      14.707005579671515      8.3205393876358986     0.32196625373985122
   167   1      14.182317263292981      6.4603994765842954      2.7714306024580941
   168   1      12.980965195751715      9.4520997983613473      2.6791149832603129
   169   1      12.692293395299748      11.117915571602765      52.050737324154341
   170   1      14.242326199272762      14.215085983360789      51.921741109472876
   171   1      14.634559974469756       12.07728082629828      2.7402531599673905
   172   1      12.665647276652884      14.726012945590846      2.4135326601204978
   173   1      12.631983855137065      16.842014090713167    0.075743858954233564
   174   1      14.392695453792676       19.67319325698822    0.039276351875317757
   175   1      14.041040905069146      17.989451956374008      2.4434882002517302
   176   1      12.648558281873532      20.439564800271324      2.5747249431504944
   177   1      12.756144022461637      21.861834288284033      51.878166695938312
   178   1      14.301381739231829      24.848520353714957      51.964820331277281
   179   1      13.965359288311877       23.20831197931054      2.3692355343711391
   180   1      12.675051986423826      25.873816995452195      2.1242407340432354
   181   1      12.352999436146776      28.200759698135275    0.014200517340361811
   182   1      14.374419433941254      30.876621783869329     0.33350973319779648
   183   1      14.328029461106386      28.853913935982643      2.5621887788914148
   184   1      12.753079730105698      31.465009929575782      3.0709370100335462
   185   1      12.957154636775465      33.740969187267808       51.69889269829801
   186   1      14.623354064242534      35.975711626625234     0.23579400210996287
   187   1      14.665829406054906      34.143951041427663      2.2680172523132152
   188   1      12.913144439655529       36.59110811633365      2.6465518928777376
   189   1      12.809631925925666       38.72679107369116      0.1732019083299115
   190   1      14.097576175653369      41.592803786135157     0.17584945425941606
   191   1      14.474458561074723      39.576756317012567      2.6241238063969452
   192   1      12.549400053630006      42.952913784191061      2.4426252228053955
   193   1      13.142414041827875      44.559265264998437      52.089249418891654
   194   1      14.172856470827869      47.171718693871092      52.020142057824728
   195   1      14.861246223117471      45.504072800769585      2.3861873954120014
   196   1      12.905776161295199       48.23550813729593      2.6514617991634188
   197   1      12.712615595476143      49.784670665633506      52.067090281720731
   198   1      14.049167670880729       53.23544659023117     0.25161091798390584
   199   1      14.337073122427839      51.119515115933325      2.5889903526818743
   200   1      12.308709634999477      53.825699097729064      2.7303490683714915
   201   1      16.032052347308159      55.590277865725874     0.11662280437642558
   202   1      17.932172347316115      2.5285296025227244     0.48976353861274508
   203   1      17.060168950429915     0.91295394197721058      2.7596812070456158
   204   1      16.197173628063364      4.3051499627243413      2.7042815534417524
   205   1      16.415785262439911      5.4677870084725715   0.0007063789363513926
   206   1      17.841841805057559       8.290032533893072  0.00094878854674307074
   207   1      18.202587757351711      6.4669216042935433       2.526292076889586
   208   1      16.054795839548646      8.9776788636959388      2.5811663127171847
   209   1      16.345253135756408      11.128192029526483    0.055523167990715584
   210   1      17.923160942325296      14.203576687450811      51.915063849021955
   211   1      17.567019999922554      11.988432014596157      2.5275003469083956
   212   1      15.984456471100389      14.936040326684411      2.4160842587936027
   213   1      16.017604191250246      16.693295111875354     0.14048657582379068
   214   1      17.556518735188291      19.299035863208434      51.761888114393841
   215   1      17.779177007047366      17.741400076322634      2.2839070984677763
   216   1      16.119537545521041      20.415540389715012      2.6068300705542224
   217   1      15.755367562241625      22.604283567138129      51.869239369605786
   218   1      17.544399169028061      25.177671926475576      51.651845657499969
   219   1      17.488299198126672      22.994313500939565      2.5704482102149728
   220   1      15.829126073501955      26.184941252833461      2.6133173953739428
   221   1      15.710250410207726         27.921987801158       51.98391650424967
   222   1        17.6809321742574      30.253208152618427     0.29928419054729272
   223   1       17.87806275605249      28.415263707727235        2.59231607403723
   224   1      16.446738719286838      31.532863208779268      2.5554455231603059
   225   1      16.241519441275372      33.543719209735009      52.127000290218781
   226   1      17.898245903324067      36.369819064391244    0.064821336071793051
   227   1      18.198186881791862      34.075127455664607      2.6889406776858782
   228   1      16.453776960870936      36.811238317126914      2.7342814873011756
   229   1      15.913762390517231      39.405063527869785      52.088345701168471
   230   1      17.752785397365074      41.793043941796135      51.952341710717029
   231   1      17.531293773928144      39.922654475746207      2.3438696387317273
   232   1      15.820264603335891      42.521018754841997      2.4133597243316545
   233   1      16.404275892378898      44.763025535020518    0.063643810206126444
   234   1      17.779364362357956      47.285111935894918      52.112133375763968
   235   1      18.032440427347517      45.036807459802404      2.6138706826883094
   236   1      15.822845240574573      48.461527651066142      2.7349415611348933
   237   1      15.480816560779935      49.886039598642917      52.050485074311965
   238   1      17.095410035015384      52.716047862464123      0.3513366043338903
   239   1      17.845813697057295      51.071155160523766      3.1099708679104618
   240   1      15.858767094056217      53.597292190969711      2.7793230380110798
   241   1      19.016458316429748      55.317076058336148     0.49725004620501301
   242   1      20.704066758008409      2.5400552724502781    0.074455443489035808
   243   1       20.95272897782505      1.2469495769549366      2.8770365104884701
   244   1      19.214864778215421       3.588272470901281      2.6788523570177829
   245   1      19.250937424228002      5.5786724339379647      52.030921412585059
   246   1      20.982687272989576      8.4621218798929529      52.023028246583017
   247   1      20.710807344888924      6.4988007762879665      2.2315819487387323
   248   1      19.124967142543635      9.3544787995940553      2.6504688315300013
   249   1      19.272527238243352      11.048718807367472      52.003273241523416
   250   1      21.062422845630785       13.62392059204851    0.076226172830845706
   251   1      20.706204434653255      12.100790801103493      2.8499462850196684
   252   1      19.574888228131673      15.013209415487214      2.9652564756296864
   253   1      19.357131468615343      16.709529013814773    0.039670310618897413
   254   1      20.892762056425283      19.360347148779194      51.952647113358609
   255   1      20.974574792446532      17.696262376606246      2.6744951802760566
   256   1      19.487297939837884      20.422731931943858        2.80917497993571
   257   1      19.011298473299508       22.09509699840714      52.028518763107463
   258   1      20.772890238939258      24.825826276911535      52.108555261653656
   259   1      20.809320952464631      22.888559608204137      2.4402704941475557
   260   1        19.3217509684529      25.508960666568399      2.8768902119559021
   261   1      19.421165912932302      27.992448213630105      51.661312133565687
   262   1       21.10288795550105      30.514811639829354      51.829240945768717
   263   1      20.785351522207193      28.193194810152701      2.4501033809869028
   264   1      19.507538580214419      31.010032297086465      2.6213266263357422
   265   1      19.471420413087888      33.049023570813567       52.09571733948642
   266   1      20.887202240292144      36.207816493567037      51.848335017693664
   267   1      21.381804880991854      33.588258629539887      2.7560203509767685
   268   1      19.617781387617541      36.741151071977036      2.5279554622023901
   269   1      19.228968200056666      38.876390437697701      52.086434036202647
   270   1      21.269094050133749      41.384693050817596     0.19564761292160329
   271   1      20.946206679306844      39.414514976613816      2.5875917577174308
   272   1      19.220274308474806      42.379925489121845      2.8980788203766448
   273   1       19.88384341218347      44.537636982290707     0.42479440744434899
   274   1      20.831842810544448      47.637145175043145      51.902338734685692
   275   1      20.943998823841298      45.409785412815907      3.3011604746389187
   276   1      19.919456073834095      48.258600674564185      2.5063268303218367
   277   1      19.003395832766191      50.241706615737378     0.31136190139446368
   278   1      20.810653295958808      52.842531269409669     0.25456074912957266
   279   1      20.983104883434869      51.357771796850109      2.8389698148793783
   280   1      18.940551195750995      53.829560407824786      3.0723740204827124
   281   1      22.449728010828608      55.526727840964305    0.037559795474013932
   282   1      24.074587811948621      3.0416595321440907     0.34197574428988858
   283   1      23.835068085126043      1.2612633491513909      2.4483298750431706
   284   1      22.548876555218378      4.1429995557044128      2.6837144141533509
   285   1      22.580489501550577         5.5173923044633      0.2960932582528073
   286   1      24.169425219908391      8.1535467821789247       52.05576303889319
   287   1      24.021102724386829      6.8410418225066634      2.6580160769092718
   288   1      22.242343134828577      9.4084285595315595      2.7719448568785481
   289   1       22.71676304067681      11.093043361037109     0.24849890385598267
   290   1      24.438449743172171      14.244879469625662     0.26012374198238425
   291   1      24.184311463663075         12.130016198845       3.059808772450026
   292   1      22.365095269962215      15.056987970278138       2.567178153658487
   293   1      22.236830143349039      16.465344586099672       52.08508611736287
   294   1      24.244256156109987      19.314461010970405   0.0071090289512400822
   295   1      23.869311594788567      17.507865394834653      2.5526892147377107
   296   1      22.616047845032206      20.172595112580073      2.3453087288690897
   297   1      22.367836290242519      22.155054832689249      51.758191516975273
   298   1      24.103508063743838       24.85984466982713    0.038850828407599042
   299   1      24.301303300168357      22.839553969357127      2.5021428191231401
   300   1      22.430345598672183       26.08083838397895      2.7892828780471093
   301   1      23.032032547287287      27.692633738616227      51.947241414850879
   302   1      24.244271020661348      30.503642055776357    0.016135647583246284
   303   1       24.32108113127045      28.582968141015677      2.6231450465949622
   304   1       22.65390168568689      30.833890967524603      2.4245303046277651
   305   1      22.912823159657069      33.300968405064715     0.20873734589903573
   306   1      23.927770765142945      35.876885105024229      52.027354100981285
   307   1      24.870173845038874      33.882068810257685      3.1298546570498855
   308   1      22.861956768663532      36.260191340059585      2.8151788034905376
   309   1      22.735968808580147      38.691640462335215      51.970745535158699
   310   1      24.392598364760758      41.404023911229785    0.057508145647163764
   311   1      24.220268379896627       39.81568812985855      2.5590839629734297
   312   1      22.418347826338739      42.583407886280902      2.4438823705728003
   313   1      22.658063724529068         44.488416146949    0.053104314391766091
   314   1      23.891412258971886      47.107427367825295     0.36193668080489089
   315   1      24.008614281039954      45.258751993045152      2.8045726170172283
   316   1      22.638169095702914      48.629074638322358      2.9646418411614412
   317   1      22.643985790292707      50.152216656626869      51.859037929418086
   318   1      24.037974225383611      52.877203845530524     0.14149004716537705
   319   1      24.430992641237598      51.336056139417757       2.571739191818792
   320   1      22.248329009310687      54.189405975485684      2.7684206795123951
   321   1      25.748732503013944    0.082391024421161738     0.20988937087512088
   322   1      26.825043346378617      2.5207424562658329     0.20185443273865081
   323   1      27.093338864608967      1.0094654344455183      2.9865860333765983
   324   1      25.746244092194537      3.6481809029840666      2.8518114152946059
   325   1      25.545654237705602      5.4738419512130774     0.33470456537907506
   326   1       27.52999000545308      8.3200138992561996     0.26958142888211911
   327   1      27.202764804992839      6.2692487873070926      2.8002137385820505
   328   1      25.904972959518588      9.2459347485419094      2.5947520924556442
   329   1      25.883064926409013      11.253050033324616     0.32313886156677946
   330   1      27.195305930274618      14.310313228942638      52.004442867224903
   331   1      27.214542419009199      12.142537442597162       3.013690726484509
   332   1      25.609451626912673      15.026450970423408      2.9722520157726766
   333   1      25.865156370497907      16.929405554849328     0.20440539222253093
   334   1      27.302130240712636      19.570929140840928    0.024488913570855971
   335   1      27.335025202201649      17.497378838356656      2.7028436304950221
   336   1       25.85946360097201      20.481499240948651      2.7542784524816053
   337   1        25.3448984631003       22.09333379490084      51.887453144768919
   338   1      27.235059958469261      24.684090796702552      52.085769505115749
   339   1      27.290846319654079      23.152720541255832      2.6878198211735946
   340   1      25.611017851642686      25.602585042687497       2.570289228761649
   341   1       26.08829375236159      28.116584899736505     0.24783111648779271
   342   1      27.391668692437737      30.776161771548619      51.786874782215321
   343   1      27.528644364057786      28.142755444485118      2.7894176330837084
   344   1       26.36120582953685      31.049941620346726      2.1667860870708142
   345   1      26.002458517200353      33.459567737346497      51.816680660540882
   346   1       27.39751727431425      35.890673084883694     0.14053183863762853
   347   1      27.461909986927473      33.925394527732337       2.302470521617868
   348   1      25.575502579555636      36.806917196477876       2.660554520227461
   349   1      25.752042744435915      38.525364046788759      52.111034602595858
   350   1      27.463995109559946      41.282541266558795      52.077901617034968
   351   1      27.367441832267026      39.539398465076388      2.4979713508780925
   352   1      26.223944121027646       42.75720327008581      2.7536892609828616
   353   1      26.104757409738394      44.483885074465341      0.2938574408201679
   354   1      26.928295202372961      47.083756576044195      52.122895074074606
   355   1      27.702495364152171      45.201644828997622      2.7288312634842136
   356   1      25.692696263058103      47.775283165165277      2.6880050569220049
   357   1       25.79662835875309      50.024777543134356    0.038503383398650122
   358   1      26.953634089911915      52.941336355915944     0.43794923326175106
   359   1      27.293326417460584      50.305753324545236      2.5603832743593054