dump/Mg_900_0/steps_1 (written by ASE) 

4000 	 atoms 
1  atom types
0.0      32.100000000000001  xlo xhi
0.0      55.598830921999998  ylo yhi
0.0      52.130399999999995  zlo zhi


Atoms 

     1   1      31.308996934216818     0.20321246029415796        51.9378947611537
     2   1      1.3272777082394114      2.4925004132127997   0.0049416935277000465
     3   1      1.9821108515276937     0.88254230963083857      2.1797884291099883
     4   1      31.909273058833541      3.8451927796635124      2.3656101512538168
     5   1    0.074778976361384461      5.4281963681084608      51.912626270400324
     6   1      1.8047823340018934      8.6197516501486717      51.779274190055268
     7   1      1.4350218064959102      6.2458165247626836      2.3072886134252193
     8   1      32.045243195176177      8.9312366536383809       2.661398463890214
     9   1     0.17141954905331841      11.355231064736998      52.015514043393644
    10   1      1.2338097621556949      14.065439647738767     0.30025416260566751
    11   1       1.856498617777391      12.019599961206152      2.3315306043430049
    12   1      31.681677225647327      14.713741833005248      2.6651774501314391
    13   1      31.798352152177877      16.782067834613496     0.15381710591259656
    14   1      1.2145621420500368      19.289467792459746      52.063873756704929
    15   1      1.2983994852092224      17.592244165109101      2.4378587151072031
    16   1      31.902126224063181      20.468488818950963      2.4865573085484098
    17   1      32.068691309862196      22.282497941177152       0.311951790980392
    18   1      1.9906548809286968      24.915981852030065     0.42990123221254184
    19   1      1.5519298301671731      23.029030918604562      2.6875030625103147
    20   1    0.056212683516675493      25.722143615753204      2.6150199479175527
    21   1      31.966069940972321      28.245421590983518   0.0033694774292880527
    22   1      1.3925103992150574      30.548303254796963      51.992990832441009
    23   1      1.2432697678616271      28.449878467743456       2.493848906589391
    24   1     0.11298730242790719      31.524463065801449      2.3714790381117234
    25   1      31.786772093931177      33.575948201152315      51.904827996603075
    26   1      1.7690018204857243      36.004229352579856    0.048976219911388057
    27   1      1.0999832686337541      34.222173151609589       2.510636237572085
    28   1     0.10625935637256372      37.271900789726473      2.8179786063836505
    29   1      31.991383890102181      38.817778664625784     0.25566308621085387
    30   1      1.8603251086170474      42.019528119051067      52.094588406782805
    31   1      2.2440274973037191       39.99749164002931      2.8888585563066265
    32   1      0.1317066899505932      42.880750583370762      2.8638671979485011
    33   1     0.50053417629916908      44.651989919883732      52.094121272310943
    34   1      1.7570634261780165      47.240985689439015     0.20841715100397101
    35   1      1.5393333844214607      45.717200259222835       2.877477011218494
    36   1      31.871363404627708      48.252653695704055      2.7388920621939441
    37   1      31.897180007126096      50.273806408778213      52.079728741236522
    38   1      1.4388800873197696      53.106331537215631      51.927846066078011
    39   1      1.1753371458863437      50.954003579485281      2.6892604153305761
    40   1      32.037649900974536      53.584046477226856      2.5318487764321942
    41   1      3.5083885219346902      55.450295617902484      51.597677147812142
    42   1      4.8444076945184564      2.6652355073756508      51.871204345876109
    43   1      4.9291908648896516     0.86988293211365919      2.1465515712903875
    44   1       3.302053272891222      3.6903005958818049      2.5726209341497239
    45   1      3.0919092199903884      5.3273809646699855      51.728056887012762
    46   1      5.0205901604736747      8.6154479074143566      51.750996394233574
    47   1      4.8580906561061159       6.683838304492391      2.3670993471070712
    48   1      3.1226729438819705      9.2004482946563346      2.5459873042291199
    49   1      3.6285933708368674      11.500038127668857      51.969663452514951
    50   1      5.0562668323689852      14.123383907730679       51.94034738641966
    51   1      4.9411958306672714      12.473793744262972      2.5003622719516718
    52   1      3.2197915866714149      14.994296025132869      2.8136159291724336
    53   1      3.1799979329129009      16.605070120398004      51.863856586042516
    54   1        4.96738741812102      19.259645090165233      51.923471913686051
    55   1      4.8831991819238532      17.341008864553935      2.3657742605631786
    56   1      3.0146170340482779      19.766569932903849      2.4651297718796643
    57   1      3.0055470046767061      21.880901623580478    0.014948197548009351
    58   1      4.8834579380026755      25.168186979000012     0.24622041369135042
    59   1      4.5721106856242439      22.787816511348819      2.5238069604093663
    60   1      3.1458590744789419      25.687800273003027      3.0334870322671978
    61   1      2.9857330331448826      27.838996185629856    0.061487386295995677
    62   1      4.4775630292973663      30.694967704393271      52.018900924553087
    63   1      4.4470305693551788      28.732051218562489      2.4842500744083575
    64   1      2.7786601662247126      31.443270549859829      2.8321909690527449
    65   1      2.6137413866012849      33.191227700324824    0.097309324416751275
    66   1      4.9057056710540579      36.464934259577589      52.107502995715798
    67   1      4.1306186707762311      34.274438564224624      2.3903615945831249
    68   1      3.1444800271100042      37.145555663347821      2.4673077625530073
    69   1      3.1715487184863318      39.238222495207353      51.852964926021833
    70   1      4.5319900410246943      42.005662419295248    0.054671035615344456
    71   1      4.9549490746696705      40.301326332552854      2.2561474667014725
    72   1      3.7129258595583292      43.160607795608826      2.5614155734183268
    73   1      3.2364974763852001      44.854318402544827     0.10062237789291374
    74   1      4.9284429775301382      47.386558675428049     0.14548755059045831
    75   1      4.9233536492999743      46.200427858816923      3.0376398215032165
    76   1      3.0746046145793597      48.624813637792897      2.6287183405749408
    77   1      3.0789650491541725      50.289592944872794    0.014749710837732901
    78   1      4.7236788760332118      52.820880917574833      51.925263847036447
    79   1       5.006725552366504      50.760643418789392      2.4857530032408599
    80   1      3.0530576774994334      53.436283235516314      2.1297121391671525
    81   1      6.8592470157449306      55.580869878620085      52.115386467198732
    82   1      7.9223557406783529      2.6381122692254606      52.082426560057769
    83   1      8.2183522447634285     0.97632824746798408      2.7748530122607642
    84   1      6.6185240467813093      3.3819533197997718      2.6497010634857876
    85   1      6.4280282851384003      6.0115049125681823      51.994112992140252
    86   1      8.1937032642363974      8.6742691868965309     0.29711393947334169
    87   1      7.8449425997156217      6.5299212931342092      2.7885344301806185
    88   1      6.2155185857451345      9.3866116567064211      2.4876190268765588
    89   1      6.9118081500318063       11.38215527859774      52.083113865135275
    90   1      8.1444101626206233      14.116474772674595      51.826755453421377
    91   1      8.4599519340885863      12.192669442253154      2.6049965676173215
    92   1      6.4964370488156913      14.772466193498833      2.3647647078978151
    93   1      6.2574625514667455      16.586429135202454      51.552856593879454
    94   1       8.026569579805102       19.16753964871371      51.856848818397836
    95   1      7.8752929023391536      17.498969017008399      2.1198874032587338
    96   1       6.259421695353991      20.186951098608422      2.5238304968226992
    97   1      6.1886375926304593       22.53922597336522      51.962426166003667
    98   1      8.1919249074035463       24.76313620956596      52.022383046703119
    99   1      8.1532448116226313       22.78885307577443      2.4434862203842576
   100   1      6.4649318576390309      25.296385183046503      2.4277175701895319
   101   1      6.4503679721196061      27.238736216827007    0.039541293700122868
   102   1      7.6989017105966449      30.209021631213584       51.92199886054334
   103   1      7.5834491948572929      28.654257856102046      2.5268980456772421
   104   1      6.3466715974936259      31.316208243294881      2.7175781819063771
   105   1      5.7311672249878756      33.415161922970114      51.795604655894422
   106   1       7.787345715020769       35.92874656373813       51.89468672914235
   107   1      7.6800290293350235      33.989506804598662      2.3355991591279905
   108   1      6.4005319870862021      37.195153178732326       2.367714587445533
   109   1      6.7233598128311423       39.00163218883624    0.033996250334785483
   110   1      7.7436836757017602      41.991421581993947     0.16399115530218708
   111   1      8.0669143734985429      40.160847095667158      2.5613905140204394
   112   1      6.5514927659101136      42.850395036194449      2.7661076350692571
   113   1      6.1571390232240368      44.684540928366225      51.848708589956388
   114   1      7.8693626446974081       47.51795784577498      52.073071041548282
   115   1      8.0214486362667348      45.375028190367573      2.6164391473232271
   116   1      6.7493225183521961      48.484317956999924      2.5138244532649408
   117   1      6.4803080904207322      50.005263173458673      52.082563799689744
   118   1       7.861957386163315      52.568053649098069      51.979196831560891
   119   1      8.0418053629233679      51.113624334362584      2.4801415971794611
   120   1      6.1891937731646127      53.452988109122437      2.5811319831256716
   121   1      9.9244930078744975     0.31846080330422211     0.25858972727242474
   122   1      11.396381235013699      2.8457674885936552      51.912525405220755
   123   1      11.377794064189976     0.79876199470954556       2.713725831081732
   124   1      9.8564798508908584      3.6715252989464591      2.5025131683909945
   125   1      9.4810533431277477      5.6910300196723949     0.24078990563682567
   126   1      11.229556213477018      8.0644609755328798     0.25891207439060865
   127   1       11.31956052188602      6.4799652381506911      2.7633444521621362
   128   1      9.5742811320212127      9.3958131817280819      2.7361265609368544
   129   1      9.7689633720039861      10.966267642549406     0.29218552598903846
   130   1      11.252986207753231      13.888862923109077     0.11905773359747662
   131   1      11.411560603485881      12.064961612193741      2.6052794600082323
   132   1      9.7276954160681548      15.086156286126601       2.388296601514512
   133   1      9.6690310440137832      16.650811720562036      51.733636370526256
   134   1      11.077157941524375      19.124892564972612     0.23912050654501898
   135   1      11.597683460489101      17.936977419280034      2.6488194483206304
   136   1      9.7760003999428466      20.106393243670389      2.6034881224262816
   137   1      9.4792202865975757      22.098146147352846      52.048379750819372
   138   1      11.000441064156648      24.805263378069657      52.107481182672231
   139   1      11.370847982136244       22.75410098413499      2.3320117100054731
   140   1      9.2771718951963837      25.518608532552513      2.4223293781189055
   141   1      9.7423564300804699      27.708724118103461       51.83943581930825
   142   1      11.114496565278525      30.650513169698819      51.951809161045865
   143   1      11.141210873475849      28.305211483484815      2.3546092574378399
   144   1      9.4849261583063971      31.339974206980166      2.4236940177232271
   145   1      9.0359243858005112       33.24786668054417      51.893135191753608
   146   1       11.24769823608367      35.834855497865988    0.054526458683476657
   147   1      11.096036743935054      34.002659133520083      2.5739056659441535
   148   1      9.3398646528721514      36.945586278594895      2.4315193778781197
   149   1      9.6681728426200735      38.854917216435268      52.017121679638116
   150   1      10.733533879224188      41.666052398748263      52.027788350372894
   151   1      11.233705444375829       39.46347694986752      2.6313791300344289
   152   1      9.6099465964893991       42.70270551972613      2.5894509189468971
   153   1      9.3891295186580024      44.644722238319979      51.781276439549693
   154   1      11.063642904041116      47.239983797312831      52.031000848153397
   155   1      11.298105181917281      45.713178328053459      2.6519619695223051
   156   1      9.7275161913103627      47.913368959819984      2.5458855898089157
   157   1      9.5556701654556502      49.979146860788688     0.19684550213091173
   158   1      11.149511264143381       52.69571134631785      51.940295074898785
   159   1      11.174170788211908      50.889724082983278      2.4356431907887033
   160   1      9.6446031636858933      53.587107271678342      2.3424073605193714
   161   1      12.910074857501062      55.425102513405456      51.817879537701501
   162   1      14.365388510685452       2.842486869188515    0.036338624277748643
   163   1      14.349370919905903     0.70142606479559799      2.9518247429900404
   164   1      12.890214376455045      3.6592823851436789      2.5413374487071207
   165   1      12.859759401641091      5.5889444384272391    0.072571214363025646
   166   1      14.441279058454684      8.4795831585238766     0.11061764399560542
   167   1      14.639573174585202      6.3881417076785025      2.8689102925602126
   168   1      12.842430690965164      9.3261898077690386      2.6877300077975352
   169   1      12.697252248536808      10.925561731260022      51.909442948047342
   170   1      14.475324464036827      14.067633950786083      52.028733581599724
   171   1      14.193769578969947       12.16094297156617      2.4974481475595467
   172   1      12.968616567034314      14.925279837827793      2.5332843822320434
   173   1      12.870815712626589       16.68293750411269      51.881642196927864
   174   1      14.719271921817839      19.711163136323229       52.10985769767457
   175   1      14.840164616591418      18.004944292128449      2.5447158752597105
   176   1      12.923598673482379       20.57457864623192      2.3017682909989734
   177   1      13.118346914625981      22.288066576004105      51.848017162383357
   178   1      14.869913269730615      24.899790562730544     0.22529703626909242
   179   1      14.448061248816193      23.470153633933407      2.6653337923185569
   180   1      12.969812596480827      26.029292580357783      2.4729407177580178
   181   1      13.063234394627726      27.798459383475727      51.793413013927328
   182   1      14.505470695579277      30.635965487850125      51.955303961256881
   183   1      14.334639576343875      28.975563918634681       2.356379986844841
   184   1      12.655087537445761      31.417675369172784      2.6198767250212982
   185   1      13.192494921988429      33.251560418306823      0.1768048491206598
   186   1      14.947567024730809      35.754694463933532    0.047488595835890192
   187   1      14.495808492046118      34.374840630066736      2.6986243808639285
   188   1        12.5525048546591      36.997221243239686      2.6582713588644959
   189   1       12.84621538253265        38.4320593308775     0.12008563703636149
   190   1      13.988603239181456      41.266229948522273     0.23715950805002556
   191   1      14.421925955182331      39.747638841691703      2.7962067635143124
   192   1      12.852162604775664      42.552788946233782      2.7175767074009212
   193   1      12.394290491470557       44.18242921058296     0.23365065732165946
   194   1      14.074189750239844        46.9185980556841    0.064524758848855238
   195   1      14.470093063088685      44.944167652892503      2.3524304091585488
   196   1      12.647614779846947      48.313799756153387      2.6570306352531019
   197   1      12.801587345762455      49.941603002105325        51.9530338011647
   198   1      14.404030277895163      52.838786728480756      52.053919659726496
   199   1      14.503100027876611      51.202983350837627       2.763933717630032
   200   1      12.496263007739612      53.585606882197851      2.7048102230929136
   201   1      16.260719446782392     0.11527309944247552     0.16591767096311652
   202   1      17.662284772927606      2.7929526207171569      51.932580269289438
   203   1      17.476587787050899     0.70312503856450437      2.9297897292054165
   204   1      15.985754142574649      3.7794572364086068      2.5721029861433973
   205   1      16.039278529423147      5.4241850844387614      51.976961667692301
   206   1      17.452668796403074       8.195687242739659       51.94513025803947
   207   1      17.833229138371326      6.5119839923467948      2.2631437500385454
   208   1      16.196757807418635      9.1313154931528988      2.6728629040905241
   209   1      16.080191829894829      10.874591811812016     0.11771435415273014
   210   1      17.688804665549476      14.012316969576725      51.903714410417834
   211   1      17.780780575024753      12.103440958164748      2.9846338684077383
   212   1      16.242519147698232      14.936397899078768      2.3014515190780265
   213   1      16.046857909109832      16.843802572236235    0.064113327733930386
   214   1      18.308314431309434       19.06306391832727     0.10372537637804502
   215   1      17.939055312186149      17.692343376431083      2.7708055618384622
   216   1      16.469395186099728       20.77312822242844      2.3425019013840438
   217   1      16.529319816156615      22.287257952838967      51.810087457115202
   218   1      17.714036496885093      24.866695431215895      51.793272683992789
   219   1      17.928175488553659      23.458118710445827      2.3201651243040278
   220   1      16.110022459436127      26.559475502312541       2.357362138607356
   221   1      16.056651651851521      27.871208925357152    0.065581214539578658
   222   1      17.626743087892528      30.369436712442141      51.833314381151524
   223   1      17.475740784048547      28.954947253643461      2.4677998418686631
   224   1      15.791506332368852      31.661886117365384      2.3153511204701029
   225   1      16.155199788816027      33.098592975862942      51.739508295456162
   226   1      18.064077227555654      35.639926880889639     0.26043735214148206
   227   1       17.42057008423302      34.206576336927661      2.5225052113011421
   228   1      16.357467676053698       37.27848085328894      2.8356320381883293
   229   1      16.059939805002958      38.453166116446383    0.069970117799996956
   230   1      17.365210844200309      41.360688454568702      52.100396180715542
   231   1      18.015621257428091      39.681952341902289      3.0663621846009623
   232   1      16.146642969415495      42.411388399119268       2.377184346186374
   233   1      16.127094965018365      44.341844519491595     0.25851783291549607
   234   1      17.100323095232913      47.199349974789861     0.20376231989652777
   235   1      17.326312177849431      45.795422941587546      2.9214245745838374
   236   1      15.719235971950152      48.253637414581263      2.4998549509729653
   237   1      16.070825459303755      49.930067996363036      52.001489149593354
   238   1      17.469754610787032        52.9201958560934    0.076344163219842442
   239   1      17.522191405031705      51.161849496376881      2.6674200650391375
   240   1      15.837345521707833      53.737762594890029      2.3558076320426546
   241   1      19.093761773903434      55.562562992115588      51.985713503085179
   242   1      20.773180048082228      2.7105071261992988     0.19620671859322761
   243   1       20.72166854463482     0.75112528306373805      2.8617501384688744
   244   1      19.270099930416016      3.4877148950543999      2.5462170642911075
   245   1      19.485407367996505      5.6206835936737525    0.029045467153657946
   246   1      20.789355071256345       9.021636760840261      51.841448938359115
   247   1      21.058379088154929      6.2474039484001747      2.6785916596744794
   248   1      19.548423952361134       9.585577140786576      2.4386129108880916
   249   1       19.39304016386739      11.581698483900212      52.011650879922136
   250   1      21.151171890789705      14.048785426944766    0.039488702132445597
   251   1      20.939037100658865      12.330475213468651       2.868858634558948
   252   1      19.132022940134963      14.714096718435648      2.3305975120071771
   253   1      19.344671078857317      16.287660062560434      52.052607780468833
   254   1      21.223252895099268      19.346403694374953     0.22262403759722005
   255   1      20.745111781838393      17.552835595767416      2.6657993969547884
   256   1      19.627377771059493       20.33059934234312       2.978354941447261
   257   1      19.394138405234326      21.740369522152214    0.038933434375731733
   258   1      20.735940663775022      24.711792760054443    0.057711207563599494
   259   1      20.839121892020483      22.845416150334593      2.5213087301015022
   260   1      19.191706906760444      26.473933966926861      2.9465647687746093
   261   1      19.180876357785575      27.275134705405488    0.025488884134704935
   262   1      20.896479100793734      30.377662444945457      52.063215353088815
   263   1      20.905886591933086      28.943740496071786      3.0272431255001959
   264   1      18.975019138601887       31.59617920111863      2.5095254178869739
   265   1      19.103263009196489      33.045257324408958      52.070664200187217
   266   1      21.130934695667278      35.971729695471446    0.016236273594315842
   267   1      20.421685356460031      34.247637816527416      2.3381823128353463
   268   1      19.264381241611254      37.087362874222798      2.6954408175289308
   269   1      19.171229393354619      38.952025651745572      52.126254671436676
   270   1      20.577120579204006      41.313600682592153     0.11256183816480608
   271   1      21.195467810797947      39.844605885815888      2.9267370513206834
   272   1      19.229523573840524      42.407013309503604      3.0424938393164682
   273   1      18.935158359168963      44.131326912002955     0.20012072840852493
   274   1      20.724202546128378      47.296607746949171    0.020226664293878729
   275   1      20.620090728247686      45.726617077991939      2.8166374975209583
   276   1      19.070484694698923      48.444782646602711      2.7626915398293637
   277   1      19.150990596073743      50.141827949314475     0.05611696578624957
   278   1      21.190785683118005       52.80887804743508      51.928079325033082
   279   1      20.953954011938766      51.022996581229528      3.0501781230031222
   280   1      19.498585334801561      53.498016132733518      2.3219792917964415
   281   1      22.516501523623493     0.25356882186833157      52.025456666151442
   282   1       24.21648991177306      2.9269567428665084    0.085708988901625108
   283   1      24.138730414648485      1.0901916909875817      2.7519943657130725
   284   1      22.361101971317048      3.4823636154902458      2.7715281792404642
   285   1      22.566500638741203      5.3837427113302665     0.21515999306256647
   286   1      23.588215585630874      8.6244196076239152      51.853972970353041
   287   1      24.053976225574051      6.5997753523444622      2.8132856857037907
   288   1      22.479402481225364      9.8804868118519078      2.8304055341982806
   289   1      22.575284490362527      11.519471736174932     0.15792597395534252
   290   1      23.896428512755477      14.118651463385614     0.22916154309764364
   291   1       24.11143971524675      12.383793003203348      2.8352654020402186
   292   1       22.09832376949921      14.950918039545217      2.6854365344084932
   293   1       22.39066048798162      16.729279891652581     0.12862083518842254
   294   1      24.300503892127502      19.746334559670338    0.074952842799171387
   295   1      23.970037167144742      17.787760674790125      2.7712682327305562
   296   1      22.897413430456279      20.508393848049739      2.5524869948226359
   297   1      22.296572803915478      22.179407388499964      51.994922594370273
   298   1      24.240820246235891      25.330262077416119      52.123500739070785
   299   1      23.860854953253803      23.262262183408197      2.4192657667036639
   300   1      22.165218922399379      25.487011819517711      2.7754084287854925
   301   1      21.958778422470196      27.369481583668737      51.999361408573805
   302   1      24.290591687719878      29.989216276820386      52.078756705325688
   303   1      24.210044847797001      28.177571983969447      2.5406162792715232
   304   1      22.486910784943081      31.750740006819164      2.2810144433591284
   305   1      22.810384201998311      33.133603923718361      51.900573706746812
   306   1      24.118858859091894       36.19697565091996       52.03728220190176
   307   1      23.524993061427324      34.553714946106425      2.3362636844750488
   308   1       22.45736380944577      37.297691608772418      2.4221502503755534
   309   1      22.542479119522344      38.917607119786247      52.003740175971572
   310   1      23.991639873042111      41.570100400209967     0.31100063570532938
   311   1      24.545890464716067      39.799997088430004       2.261874283382201
   312   1       22.20373731666221      42.985400549693907       2.639951359995913
   313   1      22.471962948946558      44.274432388920779      51.932572834302363
   314   1      24.379803707727714      46.937164682015911    0.041806029224008848
   315   1      23.765668383386089      45.414122467784814      3.0538626948105585
   316   1      22.155564525382523      48.348692038794056       2.562273459101251
   317   1      22.124492486933836      50.162868077634101      52.063254156951565
   318   1      24.269060236912427      52.986667189181787    0.085033512908213954
   319   1      23.973554375109391      51.119987340911884      3.1151775377198745
   320   1      22.863779485457318      54.092697580051187        2.64830333467336
   321   1      25.483079059363863     0.28687913928396785     0.15429147133853272
   322   1      27.065087527870194      3.4700533058968484     0.10379354463017301
   323   1      26.864105093846902      1.4471753178296605       2.684588662765198
   324   1      25.560458262153954      4.0571099626825102      2.5008900460670351
   325   1      25.470797382509772      5.9377949492874098    0.083418039193470878
   326   1      27.157750630129673       8.816963311301512      51.952446178370806
   327   1       27.11874300979434      6.4776147313784413      2.5597764249647992
   328   1      25.159946737706161      9.5772915327302144      1.9485400724179123
   329   1      25.820772548875603      11.727019669726166      52.059735060556598
   330   1      27.430296220827749      14.098940519801197      51.777756953878807
   331   1      27.206085446759559      11.798557408340445      2.4682199387471471
   332   1      25.378406874238738       15.15961659888498      2.6728981638525409
   333   1      25.455130605252563      16.871854265330718       51.92613935101695
   334   1      27.315558596821457      19.201828060462997      52.122154705573116
   335   1      27.111028999347059      17.529495973782645      2.6930824009687711
   336   1      25.865887871458753      20.709743610239521      2.6965182006336303
   337   1      25.787206755681868      22.402452714824872    0.032077981946621391
   338   1      27.763992984409626      24.828343475268948      51.609086861944995
   339   1      27.290604013735326      23.512893548327551      2.4013373590265474
   340   1      26.255402052555805      25.913769291148167      2.8064607692047567
   341   1      26.339640146134727      27.329720260554495    0.074662312229751393
   342   1      27.072359900134039      31.165513151878702      52.050801038833654
   343   1      27.270921508935974      28.605633283187547      2.4867237650759231
   344   1      25.666413681398208      31.557352320265078      2.2592812638461393
   345   1       25.75839354029225      33.651551168712416      52.059569692820475
   346   1      27.343434039342554      36.440852850310627     0.33709384958962862
   347   1      27.049715005544368      34.222190811573498      2.4574442744671865
   348   1      25.395086933553536      37.163689247461633       2.633255308565841
   349   1      25.700172768795902      38.934654382409747      51.756798700965469
   350   1      27.087414925261339      41.551385303188674     0.21762065507872086
   351   1      27.134380731366509      39.865152614930217      2.9382601040921212
   352   1      25.485721469596498      42.692821690526031      3.1148557828171586
   353   1      25.478147040881009      44.275003895705758       0.387527393421991
   354   1      27.131659851243807      46.781672635087503     0.25095219554954362
   355   1      27.185077503513241      45.479654705198861      2.9417067936977777
   356   1      25.281019133283941      47.882347706247458      2.7102477964961929
   357   1      25.121695162529136      49.855693377370237     0.43147127068668267
   358   1      27.147010984415559      53.263674128311983      0.2981556060634849
   359   1      27.006610124810134      50.728926443910701      3.0331133662762406