dump/Mg_900_0/steps_21 (written by ASE) 

4000 	 atoms 
1  atom types
0.0      32.100000000000001  xlo xhi
0.0      55.598830921999998  ylo yhi
0.0      52.130399999999995  zlo zhi


Atoms 

     1   1      32.026429624607367      55.310397241008324      52.017944360506924
     2   1      1.6246844033125205      2.5365496500658198      51.863651702455748
     3   1      1.6396824936193632     0.72775938762866887       2.753668802956811
     4   1      31.794102511927921        3.56082714927902      2.5328541042684654
     5   1      31.981204223732369      5.3394627717425394      51.909584151124278
     6   1      1.5395284943545899      8.3773994267030787     0.12475483277371391
     7   1      1.9024613190048534      6.1043226555486338      2.2447714806903849
     8   1   0.0045993307695432672      8.7773096097428169      2.4539756278178544
     9   1     0.24114264419510334      11.399677570383941      51.950415145077592
    10   1      1.9088926258751062      14.168499587572114      51.712435853709493
    11   1      1.6817125165784554      11.902027009750324      2.7818219753196449
    12   1     0.27237829862780355      14.835201326191145      2.5192994663599286
    13   1     0.30321149625697646       17.31070571358272      51.919607193650215
    14   1      1.6613609724149259      20.114956366190992     0.26037836797034819
    15   1      1.6719650391950165      17.823113312506781      2.5694403585259429
    16   1      32.095270549846184      20.416292372277525      2.6271440646955844
    17   1      31.988283749590899      22.531402936167016     0.11486300499734549
    18   1      1.2132031126768015       25.04615756725785      51.972083945356438
    19   1      1.9270451678828207      23.062244497220277      2.4228141883076413
    20   1     0.15040606406480667      25.866565496655852      2.3036586579464733
    21   1       31.58580895644398      27.651093542911479      51.849353440419314
    22   1      1.1573334832537079      30.378935581165294     0.30384413987768455
    23   1      1.6245478952144852      28.453647994861555      2.7693375521815571
    24   1      32.099804959220187       31.87056243165604      2.6673177835675608
    25   1      31.932300562469461      33.186810130364719      51.841012260597253
    26   1      1.6348383889831843       35.94992027718996        51.9668215189105
    27   1      1.6252092143475709      34.369515409562119      2.6677355103158891
    28   1      31.926620646693582      37.167676363157916      2.6604857575137055
    29   1      31.737138969517645      38.895485925672624      52.013932398089558
    30   1      1.1891440693197215      41.622414796817537     0.03335472628188299
    31   1      1.4191518955144409       39.91592204406119      2.7795604012316493
    32   1      31.974798808570181      42.601523609244275      2.6085874716224522
    33   1      32.090821248264412      44.419769547882986      51.992781697246066
    34   1      1.4285236015427971      47.264026374500212      52.093017753880524
    35   1      1.3822833476044516      45.299084879389575      2.3271041753019519
    36   1      31.922922257395381       47.93360824403215      2.5229012395511177
    37   1        32.0748539846143      50.199156845570563     0.20010978810990954
    38   1      1.7236725838999778      52.653136477558078     0.15738730970360276
    39   1      2.0506929537878742      51.166385114073755      2.8499197124397249
    40   1     0.18274931413834924      53.599065307327969      2.5285840336828849
    41   1      3.0313165004141811       55.48603835580473      52.124529749095487
    42   1      4.7568091927733036      2.5383059088294959      52.038216386261915
    43   1      4.7092833227137332      1.1056053560310308      2.4852865766112622
    44   1      2.9150227239024957      3.4037085163056719      2.4834013624349836
    45   1      3.2133927321127467      5.3631387934119115      51.981391606119395
    46   1      4.6313259695840818      8.4491423175685103      52.049597600634279
    47   1      5.5178341934643305      6.9866645859894545      2.5439531662821921
    48   1      3.0108637307557746       8.961667405080183      2.6386963279322839
    49   1      3.1009714287737946      11.135201103960249      52.086998486896533
    50   1      4.8149406040515572      13.765163133577083     0.14933336351658474
    51   1      4.7048304106554726      12.082571287661278       2.766641184722622
    52   1      3.3440180862365869      15.065363781717778       2.533582463640546
    53   1      3.3145686482875267      17.236007008481238     0.11130368187803263
    54   1      4.4552451578016514      19.724760120175834      51.577385913719191
    55   1      5.2090923758086198       17.79790245191823      2.4135420764863111
    56   1      3.2204837436155449      20.324365287189238      2.3345957558705033
    57   1       3.402502664213062      22.651714661362025      51.716320685305838
    58   1       4.745364147275307      25.385272341019849      52.074983610352973
    59   1      5.0362060748845181      23.299004068668481       2.397002304761942
    60   1      3.0700948644704029      25.400386420626333      2.7532485825455226
    61   1      2.9343544566141886        27.8514959398141    0.013685202531460872
    62   1      4.1530056941662794      30.634837917716141    0.070458827563368354
    63   1      4.4979908764742413      28.380291187182721      3.0185415199397845
    64   1      2.8448698537155246      31.332218951599856      2.6244320417884737
    65   1      3.2612790429214904       33.34301187458545       0.361009486579775
    66   1      4.4013788574156756      36.023742047083502     0.27836972574084939
    67   1      4.6653815847011542      34.089728381863438      2.7792593672385366
    68   1      3.3102121370349824      37.359781043533616      2.6034661389383822
    69   1      2.8040598789491278      38.526320590564616    0.021220805891962478
    70   1      4.5267726369736803      41.483113448548927     0.24142324021851067
    71   1      4.9673981887577661      39.777211959997167      2.7227872346235635
    72   1      2.7659423684349376      42.568176238368245      2.6206595920767382
    73   1      3.3245357566026676      44.419265240139396    0.049705152261387615
    74   1      4.4002004163095672      47.323979299102199     0.23795643218941501
    75   1      4.4583380943422313      45.390947333865498      2.5382389956117222
    76   1      3.1207524990002216      48.189749463597948      2.7984017075007506
    77   1      2.7179752735097096      49.816127584079595    0.068281439139124128
    78   1      4.6554129796171093      52.687289790444126      52.081362440544417
    79   1      5.0668213392183263      50.919858949893111      2.7243501570770281
    80   1      3.1498039125154751      53.698686832762164      2.7083231377803663
    81   1      6.2295941283962044     0.01918585084601938      52.049018045334506
    82   1      7.9375285747748672      2.6881498835065725     0.26751240955907085
    83   1       7.873271479523301     0.60627275720967189      2.7170961929345565
    84   1      6.2732602179727364      3.5729091785485929      2.3903397990910129
    85   1      6.3132467831405412      5.4150363267638433      52.093537314489573
    86   1      7.5086438443222017      8.5748949200655815     0.27775907882673029
    87   1      8.2266711165404658      6.5613954876787028      2.5553954953843405
    88   1      6.3994094214351174      9.8360011627158421      3.0967729133552759
    89   1      6.0657808294051012      11.112121695493974     0.22672190008421461
    90   1      7.8687818590070986      13.724249869171558     0.17511957157682248
    91   1      8.1629161174385931      12.303316017249655      2.7746102569197175
    92   1      6.7130017489303411      15.050985689383037      2.5170221211910349
    93   1      6.1354504756451727      16.548032080654782      51.938817637820108
    94   1       7.631426115125155      19.075616209235598      51.930760314082946
    95   1      8.2927462022137206      17.625324533267577      2.5089745287056644
    96   1      6.6110227557373529      20.441107742078149      2.3909859968788068
    97   1      6.4130313697426455      21.894506835246155      51.640817309190396
    98   1      7.9596632203974407      24.747241739438056      52.020559410172766
    99   1      7.9230401772527008      22.802521525410071      2.3807574893695156
   100   1      6.5549202429924627      26.200995004531993      2.6689115901116409
   101   1      6.2559584587060719      28.099751584063174    0.064425099278716522
   102   1       7.745876891678444      30.492756327162176     0.20735696570586112
   103   1      7.9538007873458341      28.789372887394663      2.5014232564615213
   104   1       5.997294580719986      31.261845723916998      2.7343174932679566
   105   1      6.3708683857162525      33.225440512521345     0.29448738567562788
   106   1      8.3971418769253816      36.391675561363499      51.891472178597894
   107   1      8.0008651655782685      34.601393158098688      2.3711463340442895
   108   1      6.0586920724180668      36.647158754644067      2.7878485636522488
   109   1       6.046269262874123      38.576565234371984    0.099257940318422805
   110   1      7.9468513912283951      41.692391493577759     0.36508082253012025
   111   1      8.1363795393686562      39.694493575504552      2.7373857671161739
   112   1      5.9339915178295213      42.873540599420913       2.276798566172467
   113   1      6.4079065218805384       44.81468486749786     0.23784813290286358
   114   1      7.7183190262693246      47.470062660489276     0.49566801659146442
   115   1      7.7810766733212526       45.39106233187178      2.4981104558293503
   116   1      6.2014360816535081      48.340239273741652      2.8252310297145309
   117   1       6.317222397040462      50.232865598976659      51.946458860512315
   118   1      7.8733788278933927      52.900703455422473    0.029093488333453044
   119   1      7.6605976787901122       51.13095378059657      2.5719933446139964
   120   1       6.209835228714855      53.612313064862498      2.5966564823442924
   121   1      9.9417444954380265    0.049170986302246623      52.053558516458949
   122   1      11.156892568980922      3.0601884005687987     0.13249488511592855
   123   1      11.362086799663041      1.1782731019556789      2.6346178649497514
   124   1       9.323509032818448       3.623252474289163      2.8049277910941099
   125   1      9.4429365504694189      5.3507867810087868     0.28163064849711061
   126   1      10.876713852936826      8.3317553744274164     0.21319986963903115
   127   1      11.285160295849108      6.8043238797928467      2.7684056987593531
   128   1      9.5272755283219226      9.5240955056190462      2.5443065493408086
   129   1      9.3595986099677333      11.336486534096929     0.13945107242665439
   130   1      11.132071164200452      14.057756196983556      51.999233174346529
   131   1       11.14039305981589      12.102885104566992      2.7346479511706798
   132   1       9.646705852832044      15.051576848781574      2.5334687256923965
   133   1      9.5395725069156097      16.846078984394477       51.70781443588524
   134   1      11.266275365851874      19.178894965694425      51.694246731570267
   135   1      11.479583823811657      17.228101274155591      2.3144224397442192
   136   1      9.9551833010811634      19.785717053082095      2.6652191221137578
   137   1      9.4615838682802433      21.483869988231067     0.04097918576365038
   138   1      11.103114269843525      24.874637556083293      52.024496060184042
   139   1      11.171015572169804      22.691928788905056        2.34916841958947
   140   1      9.5953517319911796      25.879589097718917      2.3553115800247837
   141   1      9.5218149359326336      27.676396593054072   0.0085035673055117427
   142   1      10.852412882678559      30.595639653001296      52.047767550973902
   143   1       11.13690307934819      28.726215350742994      2.5702160078197878
   144   1      9.4638952272728272      31.434226482171972      2.7139946222241096
   145   1      9.2483590963506135      33.243110138614746     0.14964382307943316
   146   1      11.302674686022378      36.526092740166213    0.090416555686500047
   147   1      10.995644786905274      34.530359583251588      2.7586872395278039
   148   1      9.5454506964045223      37.190051315787294      2.8387573535055433
   149   1      9.6997963644146257      39.027680696086371     0.68467659748748044
   150   1      11.348016141882537      41.895110914923826       51.89904733255635
   151   1      11.191993222113259      40.125310742854637       2.972504184267355
   152   1      9.5223962195070655      42.805198519118321      2.4879142849405174
   153   1      9.7573699079194025      44.723620507127606      51.968806810478007
   154   1      11.047493406800957      47.319638901146668    0.024982780639251353
   155   1      11.430878520651117      45.236181612199957      2.2337624435353862
   156   1      9.4165428216110332      48.237573706973158      2.8076827624062357
   157   1      9.6854892717053183      50.216313033583994      52.069873296606772
   158   1      11.335717935152068      52.845093687696597     0.34760631039981249
   159   1      11.321102968606393      51.170430776824695      2.4638488278793957
   160   1      9.6875785802962575      54.078963678161486      2.6734306462723021
   161   1      12.835150948431714      55.432295199914556      51.807498576965287
   162   1      14.410231445822248      2.9252768268934179      52.078837936671306
   163   1       14.78481280991824      1.0560289963594824      2.4271690412114202
   164   1      12.487829783593233      3.9994712335050902      2.8507764808927551
   165   1      13.173359490302147      5.5776226340585806    0.025670753228914392
   166   1      13.868127061515963      8.5722926797646863    0.027351093449051851
   167   1      14.806427145103671      7.1031607114028574      2.4726144545538551
   168   1      13.062323826772568      9.2395638136806628      3.0681025823716555
   169   1      12.534031291442179      11.146193817784182     0.04205649519552232
   170   1      14.197963179781462      13.541121234416416      51.900264936354624
   171   1      14.758642412904276      11.785676952930732      3.0461406192356835
   172   1      13.033986481117328       14.44708795696803      2.4925086619762959
   173   1      13.039561194773743      16.812467041763909      51.995434892540501
   174   1      15.164577559920829      19.263426742118583    0.085711088971189509
   175   1      14.475384262456446      17.238185535659898      2.5623226332420517
   176   1      12.856521862060006      19.776233408404405      2.4792850864716769
   177   1      12.690776088302902      21.780297425250541      52.085292674287551
   178   1      14.250435660520838      24.809744389050866    0.029060215023297385
   179   1      14.293867146728639      22.889870953532608      2.5175326152986974
   180   1      12.726176539247369       26.08677434802815       2.545741551558081
   181   1      12.581677275033929      27.857655526532181      52.118684806088716
   182   1      14.543604800176464      30.603923012938001      52.032266368258405
   183   1       14.46986305921518      29.063939262956271      2.4604881351652552
   184   1       12.82762070783301      31.613896228911166      2.6398219882551723
   185   1      12.754119054403263      33.414414486208656     0.17412116825692975
   186   1      14.390055922924397      35.904958863687163     0.12768135929896621
   187   1      14.365286437027455      34.376069542738712      2.6585067083000058
   188   1      12.700640740034009      37.504770874899442      2.8445427117396664
   189   1      12.956779531455515      39.121423225475219     0.22973206953843447
   190   1      14.504786465798841      41.920550785079591      52.058639296387845
   191   1      14.238067329830288      39.929734826501637      2.7476221745496283
   192   1      12.876392311940966      42.760746924626638      2.7317062745296452
   193   1       12.93199653153947      44.493893961394988      51.899251842495488
   194   1      14.530019062957319      47.112248846119513      52.090575362010256
   195   1      14.606601575912091      45.705078114051176      2.4766949192727941
   196   1      12.832510079749129      48.000871776270088      2.7218130137573104
   197   1      12.892839588104877      50.116360982878412      51.935991079213998
   198   1      14.518063229892313       52.67767208167767      51.984806268312937
   199   1      14.455333210564916      51.000575928481574      2.3446879616821046
   200   1      13.074054148168543      54.204045154400724      2.3800852840796218
   201   1      16.267779901554196     0.05754381164342199    0.072607210788076887
   202   1      17.296831325652985      2.8342351094385223       51.94284855606039
   203   1      17.753956752985669      1.0438938850972805      2.5576176431865294
   204   1      16.122767583912147      3.9402237830361018      2.5748254705557838
   205   1      16.090753263180197      6.0769604964773887      51.901089797899893
   206   1      17.520767638014874      8.3832431215555268      52.121645140515838
   207   1      18.208769085550095       6.925842551486852       2.776098602195908
   208   1      16.866220999279577      9.3914484252633219      2.8772039227180195
   209   1       15.85914224821904      10.899740701667294     0.39630909262489605
   210   1      17.451137291773087      13.737504422017395     0.06919517788339595
   211   1      18.098407438875714      11.911974678899595      2.5113888771205266
   212   1      16.495056799242771      14.701615578291591      2.6660147832125842
   213   1      15.919779604887646      16.464246412430491      52.069735181583333
   214   1      17.948683676130173      19.859863091788576      52.012419169501904
   215   1       17.41815965011628      17.612028481687183      2.3617811356186769
   216   1      16.404610812146231      20.557180231521709      2.5221404239076586
   217   1      16.116225848753899      22.297020895467124     0.33057398563364399
   218   1      17.714887142304839      25.152981764170907     0.43847878186033079
   219   1      17.798939533504996      23.410174633167639      2.6635738364906634
   220   1      15.678072762687943      25.998511190689445      2.8291870145243041
   221   1      16.259199495048662      27.489171322546614    0.048127157412786524
   222   1      17.500680731536054      30.659618101205432      0.2597889771383472
   223   1      17.574820049397044      28.827320390453195      2.5412184582440753
   224   1      16.343734749589107      31.645801414758363      2.6901683426871998
   225   1      16.053396778617977      33.345906382321573     0.20049119747546901
   226   1      17.511692389032696       36.44157320656236    0.020424886010757679
   227   1      17.772695316614197      34.504809627196821      2.6945818575835316
   228   1      15.979771804062109      37.130120059696601      3.0620681350969119
   229   1      15.963429327293928      38.781165727986085    0.014621331768787419
   230   1      17.596968212476423      41.383041163343499      51.747057961631562
   231   1      17.494329598180766      39.956478399559892      2.6220163550719056
   232   1      15.940866124081371      42.552910837056864      2.3611440506155983
   233   1      16.110604145059192      44.159049480002977      51.373202067107059
   234   1      17.438628380845529      47.179570565711252      51.874217987708079
   235   1      17.594701768167454      45.348219792469664      2.3024979898699196
   236   1      16.461629122151759       48.48224440893695      2.3067039809650329
   237   1      15.900722239703505      50.205507076887535      51.967201178565766
   238   1        17.6900367540015      52.857287139574346      51.937014646271479
   239   1      17.612965273840686       51.22670692013574      2.4085366866782363
   240   1      16.140143216325239       53.70331925133614      2.2587186361738385
   241   1      19.276112251244985    0.056233606040988676      52.008346681126895
   242   1      20.675408554948621        3.06763389312608      51.799726294158816
   243   1      20.983728440714859      1.0567318896493429      2.1035497026932748
   244   1       19.47463090156683      3.8793726992795921       2.624748476181102
   245   1      19.058210411656411      5.6959469365224091     0.33636836524745173
   246   1      20.693377766657076      8.0903293712447031      52.062795000275642
   247   1      20.991723790607509      6.9620790175759186      2.5890237273417966
   248   1       20.08851277237904      9.7736591278810288       2.433312491780518
   249   1      19.061798046349274      11.373866013345076      51.795600867946163
   250   1      20.552529927902199      14.122380075240974      51.605768741134611
   251   1      21.275552209709328      12.521982112117355      2.4178111009308476
   252   1      19.409167992909737      14.633498780173184      2.5409132163599168
   253   1      18.810462286486423      16.754876003123439    0.081690108587828408
   254   1      20.668579437375911      19.763386489025478    0.064241949719910749
   255   1      20.617994148674878      17.782314921194814      2.3650979455435293
   256   1      19.527238610391969      20.883962810929923      2.8818497742990092
   257   1      19.002488626890642      22.503568955925005     0.20014370474601745
   258   1      20.675225933443876      25.306908345025843      51.895403568265316
   259   1      20.796028033523648      23.312189375021511      2.4166230228067933
   260   1       19.23394436343343      26.295207811519703      2.6490453815740449
   261   1      19.239028755731383      28.120973225166242      52.047303700996608
   262   1      20.349723655199053      30.561234269369027      51.906363809206098
   263   1      20.950621362296999      28.610381071092714      2.6838345125534788
   264   1      19.439307466068637      31.339502736338794      2.4982958819500936
   265   1      19.518041532494514      33.493558576648901      52.001050435735991
   266   1      20.661375095032771      36.604046765784595     0.26747166455877602
   267   1      20.816394186937529      34.109155606944078      2.3695847445349325
   268   1      19.094807435577561      37.477616998855851      2.5426259267862159
   269   1      19.124544052614027      39.163274543132275    0.054020740650205762
   270   1      20.794454636606915      41.628927720558764      0.2740313044901535
   271   1       20.64359594376845      39.984287030353144      2.6038448686246642
   272   1      19.033784681932765      42.545229740169177      2.6009464718126312
   273   1      19.210462186787122      44.416135712132522     0.15745804286163237
   274   1      20.771248851124334      46.871106624699635      51.835603768591035
   275   1      21.223396498689329       45.41547973966388      2.4855467236101068
   276   1      19.445040139388283      47.908878508780489      2.3525906139683248
   277   1      19.348207238007593      50.161079796210352     0.15671594421039803
   278   1      20.887251260893127      52.810737613328065     0.20600041387332302
   279   1      20.495018307525555      50.907903111941664      2.7059922859029988
   280   1      19.243188196227177      53.848558257213369      2.4681175524884096
   281   1      22.474102178914254      55.444007963612066       51.96041671936905
   282   1      23.855765464160395      2.6217867933580461     0.15474083150552975
   283   1      24.451713134717107     0.89286320928566754       2.750686808376047
   284   1      22.721772707041456      4.1457789842934467      2.4632026829267102
   285   1       22.13188079712452      5.6896649242242319      51.959952497350237
   286   1      24.235734075147445      8.6173802436074691      51.853904833612326
   287   1      24.192044396790894      6.8147139641541274      2.3753999779017416
   288   1      22.900448243094939       9.322304762729086      2.6366555293067053
   289   1      22.128828394463117      11.147174814907414    0.037017367075011659
   290   1      23.766076254011221      14.279493866496065     0.13655115125511091
   291   1      23.965937306425182      12.371672268802262      2.5639035087744775
   292   1      22.199886210634361      15.044554542357906      2.7962062852899199
   293   1      22.319672184344164      16.589771503118566      52.094577462543029
   294   1      24.136082704238586      19.244415647921318      51.691849445742051
   295   1      24.039383081688442      17.763912125515255      2.6038101727018406
   296   1      22.429300807798061      20.551857583131092      2.3632958246629383
   297   1      22.629073332395524      22.451903883295653    0.013987821524447165
   298   1      23.865767803816276      25.083770275395818      0.1714673544302299
   299   1      24.083280749127596      23.178604045423494       2.471129662665303
   300   1      22.397928221519685      25.743690594361475      2.7825129049269695
   301   1      22.460384605582981      28.131670831714782      51.888616226188994
   302   1      24.150504944050212      30.598275305298873      52.009683908562025
   303   1       23.84817006098443       29.03832199211902      2.6809136993257039
   304   1      22.444785097394021      31.704864317207178      2.3675555511776469
   305   1      22.503252649018631      33.134437827024016       52.11267559783937
   306   1      23.746976738042463      35.863110899060558     0.17933940831470696
   307   1      24.085164455185147      34.230734469089839      2.8453987821588478
   308   1      22.254877799157612      36.962859620121023      2.9761014791394649
   309   1      22.680655101032741      38.717396308771669    0.030541653645702913
   310   1      24.112308542113475      41.715998059793215    0.017290062993812638
   311   1      23.715654079308194      39.599263077912212      2.9242564566781311
   312   1      22.368240865587158      42.461326063757667      2.7724757120422105
   313   1      22.835973468217759      44.370891310361721    0.089293956546150285
   314   1      24.250149834331051      47.285697727534682      0.1479769206257103
   315   1      24.254270343014888      45.407532247657208      2.5372120055712313
   316   1      22.454356603128321      48.459044658389942      2.6354353252921863
   317   1      22.583337478133345      49.895073448301623     0.13217386020296468
   318   1      24.588848620463846      52.652152094125107       52.10070419345881
   319   1       24.30237886999323      50.996683563764755      2.9316167412886776
   320   1      22.921551744176856      53.695628612441091      2.2929090144144304
   321   1      25.315964663879839    0.053550561032479065      51.898860854714712
   322   1      27.047933769872632      2.3254289066116947     0.25126992730925751
   323   1      27.571671636290269     0.96527487281318969      2.5789620645187803
   324   1      25.954866752489785      3.6121045519209667      3.0171077855517274
   325   1        25.9226260187218       5.063549465910012     0.12336199914135426
   326   1      27.344197668082167       8.211482787980847      51.802186618658503
   327   1      27.516668364899243      6.7968478432321398      2.6511062082551735
   328   1      25.956969705932629      9.2272619341297517      2.7616038323773124
   329   1      25.840127707894712      11.029416981184534     0.01418385521597694
   330   1       27.57890598551359      14.200006163023795      51.635563209720303
   331   1      27.307031637823609      12.110391519075996      2.4022432075661846
   332   1      25.707732523521642      14.766418197883937       2.519424163198253
   333   1      25.561797994558653      16.708080098244416      51.962792796367488
   334   1       27.05304591620267      19.545842022890106      51.864817789476305
   335   1        26.9144011460569      17.111081397213422      2.5400241424896679
   336   1      25.684295594912236      20.358803906447417      2.4448696293892027
   337   1      25.766738695691735       22.12340299567785   0.0038553294445477166
   338   1      26.936292296558797       25.61563576423346      52.080990480588099
   339   1      27.452316685399587      23.012715788087302        2.55189317803254
   340   1      25.833279550128811      25.586207241907928      2.7380215665222778
   341   1      25.351137066351477      27.815797688053316      51.887214070126483
   342   1      26.969254875019264      30.394603981106961      52.074171979506744
   343   1      26.715721296228544      28.610644871266771      2.4467777468287335
   344   1      25.629214145038866      31.780160981651658      2.5371758584046278
   345   1      25.429855304163265      33.428203079165769     0.21049901938055066
   346   1      27.293603230806376      36.082531271315233      0.2542241960171846
   347   1      27.628918507797543      34.379240324016102      2.5608412687073248
   348   1       25.33174641215469      36.865920042375883      2.5006639556951082
   349   1      25.594636714749186      38.805982634829078     0.21835257295304197
   350   1      27.128337999411823      41.788144180632258    0.097642466680724876
   351   1      27.285693252993529      40.048658955899988       2.546157199791673
   352   1      25.373734970789698       42.89193585102057       2.572139084078235
   353   1      25.812443805715777      44.372726301881968      51.987315572011731
   354   1      27.685689823414322      47.202625229470257      52.061677113614941
   355   1      27.192771707616018      45.545410469653568      2.7867129058070037
   356   1      25.800025857963938       48.23804493451437      2.6599039968949447
   357   1      26.103439417744813      49.848074724129525      52.096029457087809
   358   1      27.417509947907817      52.560917610526836     0.11577101850808762
   359   1       27.55582854104626      50.854149311690094      2.7145034981491998