dump/Mg_900_0/steps_41 (written by ASE) 

4000 	 atoms 
1  atom types
0.0      32.100000000000001  xlo xhi
0.0      55.598830921999998  ylo yhi
0.0      52.130399999999995  zlo zhi


Atoms 

     1   1      32.008526035522053      0.2284574858512998      0.2127640558423009
     2   1      1.8850767205172136      2.7211509701381904     0.31349282051535032
     3   1      1.2106294509031161     0.99784093712413302      2.6915324049813054
     4   1    0.034839773235478842      3.6833080923096877      2.8297310247346967
     5   1     0.36516666951690063      5.4233368345994091      52.041391012954904
     6   1      1.7075019589559379       8.079238130412902     0.16616105437520237
     7   1      1.4268616768861653      6.1818957443190437      2.7655174376114107
     8   1       31.96182749539269      9.2480199767047555      2.7906031032573981
     9   1     0.17554130469729964      11.125077145860418    0.085347070060334818
    10   1      1.9041866520120181      13.780221217674843      52.117034777719127
    11   1      1.7647372200276694      11.828269536949286      2.4212085189693089
    12   1     0.20277932586289016      14.883619566207148      2.0455624363123821
    13   1      31.831858856317616       17.04943401134534      51.992352070078873
    14   1      1.4593060585532194      19.706806338207066      52.002397264127907
    15   1       1.522434898726081      17.467124642023908      2.7749450244247686
    16   1    0.057294870998931879      20.289938922501907      2.6017296944486321
    17   1      31.777137939394141      22.320507402308312     0.33847685333182131
    18   1      1.4715848190385601      25.318056718601973    0.018760275308692967
    19   1      1.5192090457095802      23.032977210374483      2.5940609190245243
    20   1    0.078452409903322348      25.996745125491742      2.8074350518077811
    21   1     0.16699130764972597       28.08380155783345      52.062923770899253
    22   1      1.5601772615404246      30.863130551983343    0.076779872715389857
    23   1       1.964730192539867      28.632841603778953      2.7184024587776956
    24   1      31.936244873244625      31.446971325528164      2.3968025288691326
    25   1      32.016885261579283      33.431950275846297      51.932963824933786
    26   1      1.6736246758932389      36.075607073572542      52.032080054413044
    27   1      1.7458251398266411      34.127111687624605      2.0574088761853773
    28   1     0.43388296240077773      36.805757692365397      3.0373503091134255
    29   1      32.099430571066335      39.053620540438992    0.052105883086750106
    30   1      1.6555169954200615      42.392951541343102      52.009497070034122
    31   1      1.8015534825866144      39.865440773095258      2.2628321701402925
    32   1       31.82696715605757      42.641773288785416      2.5598247552255247
    33   1      31.593899185482993      44.431138533725864     0.11437840007433397
    34   1      1.7601564865117578      48.007177144526715     0.16860483086010744
    35   1      1.7816161622447042      45.038381557604239      2.3311603624462793
    36   1     0.14567476490522346      47.591270170959454      2.5881508890391212
    37   1      31.665244662132558        50.1604180585338     0.41419429482145309
    38   1      1.4516198996815024      52.471212845152202     0.24523459502424613
    39   1      1.4638919768795773      50.786184058282743      2.7659747066872074
    40   1      32.023635826908944      53.796261217269844      2.6786338991526701
    41   1      3.0371031017875478      55.406659858497932     0.16310209509854043
    42   1      5.0862186556200726      2.5535784741287202     0.51874190864161407
    43   1      4.7256071712270566      1.2095455132332582      3.0149433666497969
    44   1      3.2449573262219382      3.8155125251367381      2.5880030418126685
    45   1      3.6291305373144445      5.3622615279898547      51.989647510890691
    46   1      4.9837863499664179      8.1135217086294524      52.110351681104653
    47   1      4.9668652271021676      6.4533115445445244       2.719700382991622
    48   1      3.3678953813412948      9.1906529622592004      2.6842403920410174
    49   1      3.3470938254424412      10.944054546809401      52.114228780219378
    50   1      4.6813477080433143      13.610295090197182     0.10863507514591361
    51   1       5.025831200392223      11.722046109543014      2.7271916838156138
    52   1      3.4191018264823043       14.47857221054058      2.6124096919101554
    53   1      2.9622708926315249      16.364393387486121     0.13931894783756243
    54   1      4.6867829918318886      19.303065766594425      52.005973156090818
    55   1      4.6436774242430143      17.489400275439966      2.6202542655531897
    56   1      3.3963831372947539      20.222949437707442      2.6843264226960395
    57   1      3.2230373758834898      22.290943474254593        52.0172776551887
    58   1       4.515822862885714      24.732656280422621     0.28345991393397224
    59   1       5.301525136571577      23.045879579513088      2.6200216979764459
    60   1      3.0624240458826661      25.789555391180436      3.0258959306673208
    61   1      3.1485251378624688      27.754589485866262      51.852494193206546
    62   1      4.9470281897928734      30.593455381467294      52.108387567350412
    63   1      5.1708311980123209       28.65815978264839      2.5377957733669669
    64   1      3.1587791959801641      31.391330857250217      2.5023060698131236
    65   1      3.6266188415012808      33.055781336252622      51.960401366387806
    66   1      4.8083868841807105      35.777342638964072      51.667080969924037
    67   1      4.9002164497891423      34.274909679918331      2.6935465452817642
    68   1      3.4144691446909712      37.294089101620521      2.3058059571002798
    69   1      3.3609826639506206      38.650726881457146      51.868910446884435
    70   1      4.7524285349671649      41.283297335364686      51.802095423183609
    71   1        5.00824915798019      39.478439105966693      2.3921739247828433
    72   1       3.551946441771535      42.390838831985143      2.4265663043143624
    73   1      2.6447125013050643      45.020295316860697      51.836441930694434
    74   1      4.7350463894687076      47.324560802553627      51.711723327045455
    75   1      4.8605980153339612       45.20070142652002      2.3179857881519412
    76   1      3.2553750056736082      48.199990486427801      2.6524844142851758
    77   1      3.1718161862035266      50.000479503208538    0.079419937442658378
    78   1      4.5864501409770133      52.875909084103583      52.128673077928546
    79   1      5.0248018750805326      50.877831711690298       2.623178831531491
    80   1       3.259020031975735      53.639471220763554      2.6754124661673164
    81   1      6.5756947992705586      0.2473875845775185      52.110642905227458
    82   1      8.1457727977499079      3.1758340968194556      51.836894382118189
    83   1      7.6972933062703994      1.5027747644901428      2.5900103380198991
    84   1      6.5027531575985895      3.9885188978292154       2.756799706391122
    85   1      6.6477580446107929      5.4449438670278623      51.959679786397054
    86   1       8.315103436567739       8.251386366708843      52.126680883177229
    87   1      7.9533571414337105      6.2473131826567432      2.2868504106976344
    88   1      6.8138896183269768      9.2273048662257366      2.5708247756946654
    89   1       6.519525668136092      10.759511574096885     0.13612608580820809
    90   1      7.8483983976212199      13.814761979103409      52.077319387537976
    91   1      8.1015685680024454       12.12236025624332      2.7055409587231933
    92   1      6.8677989141974098      14.933666547161422      2.4060137592559729
    93   1      6.3464757722664773      16.612212283207914    0.077507623046554133
    94   1      7.7870263726829361      19.034067098147784      51.889659856704206
    95   1       8.198526559661854      17.623581644168393      2.6639947295642794
    96   1      6.5290820924565249      20.065754245176088      2.5405635794970745
    97   1      6.3919098173713564      21.852116519070282      52.037893199972288
    98   1       8.455134008783812       24.66694400367976        51.9966137042491
    99   1      8.1615658452877486      23.014883154809947      2.6359069870896907
   100   1      6.4613544960673863      25.854870770068747      2.1281414831060266
   101   1      6.4684306981750366      27.926426385345085      51.822665737109261
   102   1      7.7563655755573109      30.559989884880434       51.91926150051178
   103   1      8.1778999322972421      28.777307584467124      2.1761953572653074
   104   1      6.4756162688403283      31.677097666810322      2.6527839326070892
   105   1      6.5711498121168717      33.446974264163543    0.033266554480448927
   106   1      8.2840364582167076      35.929288736312365     0.27217009098274464
   107   1       7.980100791465051      34.382809784295503      2.7350257082702054
   108   1      6.3265551238992348       36.85326688793667      2.6206134790947631
   109   1      6.3778337183480582      38.593266800135524     0.31620251503292968
   110   1      8.0150732458774865      42.026440212090449       51.79192740674241
   111   1      7.9365485506515423      39.815077840865612      2.7646330326992627
   112   1      6.7415280881283755       42.69178447574766      2.2040234532018217
   113   1      6.1078598745198187      44.609214416299572      51.826500714399486
   114   1      7.7711432202557731      47.054780228596613      51.964991914751117
   115   1      7.9859037449733234      45.195008239044093      2.4127373213365693
   116   1      6.3950549952810247      48.205754891498302       2.414660705336547
   117   1      6.3119182742165139      50.271992270486408    0.029315942352103046
   118   1      7.8520592708535792      53.226939326777327      51.952309305606512
   119   1      8.2724923427328001      50.842674461167164      2.4274483955288733
   120   1      6.3048617165610024      54.168015822732521      2.8827893829133338
   121   1      9.6489325995973747     0.24855145022548331      52.030159562786977
   122   1      11.251810524039339      2.9574779789696555      52.084863309947579
   123   1      11.145651765222084     0.95245666706975796      2.6870782219163525
   124   1      9.4741951125898574       3.649717265652864      2.2386869459712666
   125   1      9.9506886233028489       5.856948391478352    0.018414259372339162
   126   1       11.28003059098284      8.3659408822168242       51.99886993767084
   127   1      11.386085888952152      6.7119453818941519      2.4884149819377095
   128   1      9.9265175579402705      9.0795922588324913      2.5176108954909733
   129   1      9.8734252487803538      11.182474729156697      52.067043258798506
   130   1      11.528811787151144      13.945448469896279      51.927043936427111
   131   1      11.575546960574693      12.100505831980584      2.5334436399865954
   132   1       9.849829499633957      14.525851737342599      2.5157074407807545
   133   1      9.5686111819819999      16.520740864322001      52.096830169937007
   134   1      11.295545974223705       19.29520232075631     0.13896095145920651
   135   1      11.163986719922502      17.438914794177631       2.629349386054129
   136   1      9.7882429845815331      20.176510627378729      2.9957659798328531
   137   1      9.5774966622270021      22.196477882162853       51.99238601318882
   138   1      11.156543781517955      25.254128957892469     0.19878467201035999
   139   1      11.267017085456461      23.183392695932419      3.0096042770266167
   140   1      9.5258764795581765       25.92808336553836      2.9197841913000779
   141   1      9.3172336829006497      27.596690520283165      52.017569551422653
   142   1      10.966259675478939      30.140667889091016    0.045957246883769023
   143   1      11.314145978758837      28.729602834755955      2.5388567772566062
   144   1      9.5760215547481469      31.610601730026655      2.5754463250347799
   145   1      9.3592514411107715      33.250030939959622      52.030684926219841
   146   1      11.218928743570135      36.908364519539695     0.19043999238844689
   147   1      10.932713515194452       34.50224218288183      2.4232919401587196
   148   1      9.2939831838462919      37.276826674447911       2.670546676123279
   149   1      9.2578396029010772      39.130486989302014    0.093504685039050309
   150   1      11.085683796985089      41.495708675857706      51.784319851241214
   151   1      11.024735349153364      39.750351230626094      2.4026854270284641
   152   1      9.6596605194945333      42.451157973307303      2.3678965770085321
   153   1      9.4041794242178796       44.42249013546602       51.81352675715479
   154   1      11.109041336583394      47.293945065713665      0.1315551445531081
   155   1       11.15519803902478      45.439838058229995      2.5792848793180378
   156   1      9.6092479337549381      47.966583020805324      2.4992748059113166
   157   1      9.3153282451065138      49.992838887758012      51.980496407928314
   158   1      10.926948484679825       52.53863375953113       51.98329500992655
   159   1      11.191531739734318      50.729471421756379       2.564152279382085
   160   1      9.6939663805434542       53.83562689503858      2.5607174488369542
   161   1      12.527073216355326      55.424920384427125     0.11545392708142369
   162   1      13.976300306567879      2.4059472446181966      51.863667393392042
   163   1      14.696314831801633     0.86611448691106341      2.8292196919563866
   164   1      12.704429913394341      3.8141974074270086      2.3671034422575405
   165   1      13.114301056155076      5.6477582358307927     0.03548892923357172
   166   1      14.412690417461269      8.3332968405357963     0.10717237883391426
   167   1      14.345256000402097       6.561420807153957      2.7297708441134159
   168   1      13.001704113013094      9.2954981627352424      2.8611727603725914
   169   1      12.852504263825844      11.192934309583372     0.19039992657559981
   170   1      14.758517265013355      14.263293701344189      51.909985925792185
   171   1      14.214790358967612      12.236848237221469      2.4490239725463145
   172   1      12.923149273034651      14.835613939278439       2.481079954351459
   173   1      12.840175358178492      16.595667007828332   0.0028684726313008444
   174   1      14.275344309120493      19.469563540154791     0.24335886400589368
   175   1      14.258398434549594      17.675233160010642      2.8534510948431926
   176   1      12.869365569823019      20.639881405798203      2.8477775943504438
   177   1      12.921252161650111      22.285761126171771     0.29003289355937484
   178   1      14.275191484611007       24.94245063538045     0.13094605151859728
   179   1      14.345582133456695      23.221385789708215      2.9908595626437009
   180   1      12.647664523580746      25.938247205017589      2.6950789900393342
   181   1      12.969744353587878      27.885333074638801      52.013362286595516
   182   1      14.431702080016567      31.138856228903343      52.127690300198914
   183   1      14.314318192146978      29.155098669831279      2.3763221316280165
   184   1      12.713508695021551      31.743785309818367      2.8459180521985252
   185   1      12.839195713539862      33.185027785172146      52.112882458629642
   186   1      14.073349980061725      36.335010336915175     0.24686143915034212
   187   1      14.386188301818246      34.413669617320032      2.5223756424199624
   188   1      12.681779758872404      37.012426983369835      2.5199969592432234
   189   1      13.085453150816338      39.263055872391433     0.19510133028599883
   190   1      14.537261474541694      41.379146640730951     0.11291621607025976
   191   1       14.47944292860069      39.655074885854106      2.7740234101559005
   192   1        13.1323766153125      42.258734484958403      2.7710132177956019
   193   1      12.400667773568436      44.071954388090731     0.35250345711086462
   194   1      14.407060843247981      47.215869541835247    0.022145135897184063
   195   1      14.495305866058642      45.043285384481287       2.745086596547742
   196   1      13.132766010272952      48.049727210642281       2.524927912830857
   197   1      12.324746737511694      49.871534665515874      52.052295079313595
   198   1      14.500964973317158      52.812470184389561    0.016728172434963117
   199   1      14.634246218720941      50.849625019847117      2.1948175668771475
   200   1      12.643458429220814      53.715428052373284      2.6079424140298957
   201   1      15.705738779155741      55.512530664670521     0.13079822467944449
   202   1      17.279239797251144      2.5416599192047684     0.46701557577657665
   203   1      17.724083537704971     0.22170715273302499      3.0351723848884511
   204   1      15.945324089540678      3.8534544410585738      2.7030536845022488
   205   1      16.036881092355298       5.337733851752434    0.082304739085291803
   206   1      17.473453885781897      7.9396906130478353      51.996632626732264
   207   1      17.353778455183136      6.3432368977570128      2.7458646673489198
   208   1      15.942550067937315      9.1688699476249997      2.6320177644722134
   209   1      15.854332850505122      11.140547563499274    0.043092074642024122
   210   1      17.906358288279755      14.191033701701095     0.15380779583335447
   211   1      17.567974113171442      11.689515589259573       2.637513112919792
   212   1      16.330590166467481      14.795843250483417      2.9759128384336173
   213   1      16.097114375862311      17.113562443856253      51.966034928550542
   214   1      17.602459117094082      19.791976543098428    0.089568311625337821
   215   1      17.527570609085725      17.520822491354046      2.4608661845261905
   216   1      15.998325185967891      20.438702083378494      2.8100089948002647
   217   1      15.976905192425777      22.283041574697016       51.86057380716565
   218   1      17.513215624803244      25.218533469300873      51.897858495443977
   219   1      17.178889885152987      23.221511563559112      2.6790785807427913
   220   1      15.513462605225129      26.258101211254395       2.489462250554535
   221   1      16.152710963959915      27.514707884955563      51.945919906790557
   222   1      17.803486835301122      30.587903242675761      51.954794481583264
   223   1       17.75495446171918      28.952031967745381      2.3532442290346895
   224   1      16.443645189953536      31.638044363901155      2.6665877945154173
   225   1      15.876108662529242      33.455692926757195     0.22788972954318171
   226   1      17.805857163869899      35.870669480896467      51.994885360199135
   227   1       17.84996201608271      34.298334819238093      2.5966957826022199
   228   1      16.039835221865854      36.735257679134534      2.7851079894830368
   229   1      15.938207611376605      38.496748172420276      51.996127781121302
   230   1      17.477930643311623      41.650387869110503      51.958573653085175
   231   1      17.817615509543131      39.414638861401244      2.5675831673021867
   232   1      16.189840667650163      42.635749707827969      2.5795456292475332
   233   1      15.796318647221542      44.176366183424314   0.0034360745022370812
   234   1      17.812212927623115      47.056067410237212      52.121171946612826
   235   1      17.749248844395453      44.986287329065263      2.3013306805893232
   236   1      16.350934439623629      47.967313232363935      2.5983268872766723
   237   1      16.488136149619429      49.562511800835516   0.0066486326712504951
   238   1      17.345622258044571      52.619871588622303     0.16709219660071464
   239   1      17.669098540301064      50.608959522255468      2.6870735434224504
   240   1      15.846892282256855      53.520689367780868      2.8237589438720927
   241   1      18.945988810826684      55.534739990807324     0.24513368682095882
   242   1       20.64234986312696      2.4145949898515409    0.075855621355358352
   243   1      20.804800794387454     0.40436498726833314      2.9684355939409053
   244   1      19.334923305884029      3.4795522081837222      2.7029241563304751
   245   1      19.172531788631847      5.3227796154320686     0.26998781760763696
   246   1      20.820401968806426      8.3252040830062572      52.115347999913091
   247   1      20.604152533650176      6.1035559998411602      2.4464352764747583
   248   1       19.08563925758914      9.0670903120446855      2.5259227777750377
   249   1      19.237125363254155      11.454950424514417    0.034450215251745048
   250   1      20.913685639887969      13.852672762234139      51.893589672572922
   251   1      20.953495335736484      12.094839412441821      2.5448473224274619
   252   1      19.340911752145256      14.996115489111803      2.4463636471112302
   253   1      19.505435452617412      16.626211097520947      51.971410969213295
   254   1      20.689650172017739      19.817595996090898      0.2224214107540359
   255   1      21.004154891936068      17.587671577361853      2.5576730846555793
   256   1      19.197127886822017      20.607173387909281      2.8634246635913514
   257   1      19.171573431877903      22.293484700205564      51.787451346061275
   258   1      20.922053337653608      25.071329696312695     0.20748325271199858
   259   1      20.717000720886183      23.277088550785948      2.7430911390552257
   260   1      19.065845824355069      25.882001762852756      2.5348693401432354
   261   1      19.224007306108142      27.730693941930035      51.873861089926599
   262   1      20.919744273673619      30.723960508800637      52.002584113782895
   263   1      20.825421842337661      28.700537600319048       2.275018069388445
   264   1      19.570471153355527      31.419457596746863      2.7858980026126337
   265   1      19.290026196607023      33.291324494172493     0.21788938183516604
   266   1       20.71730452952464      36.764872866846737      51.768170154177767
   267   1      20.724712901827957      34.235023226953572      2.9073420390330664
   268   1      19.401288858885593      36.883164158846192      2.2861476048368861
   269   1      19.113241483291269      38.918120580526512     0.02190377493476409
   270   1      21.164104206341058       41.51288229484944      0.1947849749712022
   271   1      20.913173775376613      39.523264238106961      2.2782370595842614
   272   1      19.184377876752869      42.262746797031248      2.7566505244781538
   273   1       19.58500192753505      43.956026122069574    0.043275622280617126
   274   1      21.164119961566794      47.067866305448277     0.43446398372380368
   275   1      20.757812508812634      45.097863397566854      2.5600599284886925
   276   1      19.457373547326867      47.724365749522299      2.7857703869176396
   277   1      19.317164055474997      49.880659562910274     0.12386980460287876
   278   1       20.66399009438144      52.635159519364429     0.32974492660137694
   279   1      20.758486239486018      50.368185682941707      2.6985569665506999
   280   1      19.571774846329795      53.235033979324569      2.8697717904753879
   281   1      22.552082039865347      55.288240935924783      52.040797563485839
   282   1      23.821982000796503      2.8567632960022027     0.12787639617604607
   283   1      23.682878596467077     0.63680898337278913      3.2479319438615994
   284   1      22.409346361623076      3.5940791560526213      2.4627365626696149
   285   1      22.091985032298577      5.4316219914478578      51.872614587879106
   286   1      23.954042211515965      8.1898092562107774     0.12925095657181318
   287   1      23.919418185642289      6.2979855132299658      3.4508776981869738
   288   1      22.392926965747765         9.5563783111989      2.4676766227657567
   289   1      22.432753946905855      11.072677596036971    0.024468805169198578
   290   1      23.859664530544325      14.045713646164129      52.112720739037634
   291   1      24.236769029369636      12.250766329592157      2.6863319256092097
   292   1      22.234631653141921      14.622680741680179      2.5149505441687618
   293   1      22.433517128275618      16.614178869340872      51.948936420650647
   294   1      24.112594437707166      19.732910652389492     0.06281795417257835
   295   1      24.215085708670905       18.24791377434024      2.4594987452123673
   296   1      22.409765443207945      20.288433697706189      2.8235256467441632
   297   1      22.570231045315928      22.001632205426681      52.073200706240861
   298   1      24.127825671676565      25.000923001635414      51.934159360906563
   299   1      23.838724663941267       23.38084780672224      3.0088579290222617
   300   1      22.668936587137054      26.059465301245371      2.5302959517129602
   301   1      22.964664862864151      28.010365970415208     0.36857417555111166
   302   1      23.894096795264812      30.742024874031198      51.891030023340782
   303   1      24.508397180629895      28.679810092386358      2.5013130475192256
   304   1      22.911552480399024      31.795750539814687      2.1614499770394837
   305   1      22.036792528182861      33.848738152968203     0.31275284194167985
   306   1      24.146695991142554      36.024010428796764      51.649806967205542
   307   1      24.370902460104666      34.330395858830826      2.4679634802017922
   308   1      22.485450741248101      36.934525148086308      2.2533807131782622
   309   1      22.734146523931145      38.780042500734773      52.099708737997112
   310   1      24.178788887416861      41.727818702071168      0.1704005728334734
   311   1      24.025691188253472      39.297259377273924      2.5430724821172532
   312   1      22.429754760409008      42.381745079397795      3.0850107271886409
   313   1      22.434615528440254      44.323739052065292     0.13877263272451656
   314   1      24.318284492960103      47.072323228503429     0.21482017479390489
   315   1      23.660635589400993       45.29182210328355      2.8167940628600987
   316   1      22.608199962279237      47.956301431996863      2.8910352319754962
   317   1      22.522048809324218       49.77281667645731     0.41411458817018643
   318   1      23.899910802431329      52.576139217419552      52.095095072923236
   319   1      24.058694861994169      50.800515677502574      2.8914300936571262
   320   1      22.521147685422019      53.450817622558425      2.8483119632946732
   321   1      25.530801786576575      55.458305674919806    0.050301264033105419
   322   1      27.092616009288029      2.7283598548154937     0.13108829438923489
   323   1      27.001812913351323     0.94151284234332699      2.7340673457768663
   324   1      25.679005992203304      3.6493706457836805      2.6740860734376422
   325   1      25.638363111796476      5.4097183547695407     0.23793984688484576
   326   1      27.144741006669701      8.0144722795327166     0.13091996301846978
   327   1      27.505486263113589      6.2118572117309281       2.939408394867753
   328   1      26.102028848454484      9.1650661835374354      2.6427679701484572
   329   1      25.529646305504443      11.219181053955205       52.08301831760329
   330   1      27.113736068711262       13.85095769095979     0.25351910002272338
   331   1      27.403783887223405      12.223096020179607      2.8161907093835628
   332   1       25.40824594148383      15.195131098383364      2.6892480054336825
   333   1      25.591081135753157      16.281429646676894     0.04325832421474924
   334   1      27.586974063617284      19.433332035715903     0.20162547548581627
   335   1      27.190299995108631       17.59740859471135         2.5119162414986
   336   1      25.757548674121505      20.784348377495338      2.7282866613191166
   337   1      25.872153621089197      22.185202215783708     0.24127323164799416
   338   1      27.581413505637478      25.019831843515014      51.777870483944668
   339   1      27.623683836628967      23.339098953422237      2.7173409059659641
   340   1      26.095817205633772       25.96262966788553      2.3833630744749068
   341   1      26.014589139018678      27.538913469800882      52.078763154788369
   342   1      27.052750530083092      30.333830368685526      0.1090085189805082
   343   1      27.522357778554486      28.837661025177173      2.7917273655212735
   344   1      25.770597397153985      31.523131426134544      2.4672163771976909
   345   1      25.525248298656486      33.694434485652138      52.110374023536423
   346   1      27.433672214999465      36.214200042466153      52.120725802364412
   347   1      27.356950236683335      34.456830117953587      2.6402332243632141
   348   1      25.979204666972127      37.016535287439908      2.5278547750531302
   349   1      25.744723157498139      38.991626007156846      0.1374543956492206
   350   1      27.400354297690715      41.819120483758653     0.10591468710493064
   351   1      26.995771988575417      40.394382088368772        2.51865708294683
   352   1       25.43267356190518      42.810800243028389      2.4284408265674067
   353   1      25.523202644505421       44.07665302443116      51.821896868681343
   354   1      27.236939605018218       47.82431755519994     0.61513211198426099
   355   1      26.854160444331498      45.558363004108301      2.0766169013074527
   356   1      25.799440293037083      48.272738531360027      2.7929350093299838
   357   1      25.669576842171995      50.019954778407012     0.11364048354554515
   358   1      27.504850440456917      52.735891164593525     0.30653509137959978
   359   1      27.000601074949721      50.885409853570884      2.8877370403541245