dump/Mg_900_0/steps_91 (written by ASE) 

4000 	 atoms 
1  atom types
0.0      32.100000000000001  xlo xhi
0.0      55.598830921999998  ylo yhi
0.0      52.130399999999995  zlo zhi


Atoms 

     1   1      31.744501692308383     0.20144277324638812    0.042764467535579026
     2   1      1.4836912557698156      2.8918033153356619     0.15861552189054218
     3   1      1.7538939071278614      1.3827069929001394      2.6959600871596776
     4   1      31.787896821001347       4.029723908218342      2.7760311601049845
     5   1      32.086594635855107      5.8466775953596146       51.99041950491079
     6   1      1.2141193119678058       8.726322732356655     0.24322518635505636
     7   1     0.81741948785715879      6.7912423060638547      2.6587505655626975
     8   1      31.612209149298526      9.5783360390955483      2.5422834979476572
     9   1      31.937427703147257      11.318159852013753      52.087184558630881
    10   1      1.4573552872909232       13.99283593865167      51.997126827909369
    11   1      1.2451413524910688      11.963824776331277      2.5776833146422731
    12   1      31.783663180217012       14.90847158846678      2.4837301058370058
    13   1       31.88439881432415      16.860200566675651     0.20730307842459908
    14   1      1.3923537625643398      19.514072054750923      51.857198769912557
    15   1      1.2079734734767043      17.527407958318591      2.9334574628050305
    16   1    0.078775996844662119      20.523222230402407      2.6999635196734979
    17   1     0.33640136181962055       22.04544253851342      51.812748582959181
    18   1       1.479577184622535      24.832534691748474      51.968126899058845
    19   1      1.4342396714334575      23.515700677887835      2.9755316818350028
    20   1      32.007126550535368      25.842117579991541      2.4868087809235182
    21   1      31.739074792817227       27.76885968861594     0.18337325341544555
    22   1      1.1980831534213665        30.9681063658984       51.85949076001301
    23   1       1.695207751249783      28.974433610843501      2.3208728229683087
    24   1    0.050026635657322779      31.495427196307254      2.7217577291815602
    25   1      31.842149233290762      33.283273141696093     0.20525002124818495
    26   1      1.3231729263236995       35.85747210701939     0.29488861651532167
    27   1      1.7765905180112351      33.883778569080704      2.6188293976724615
    28   1      31.831138093784354      37.105265939753693      2.7424249191739825
    29   1       31.99811874003143      39.000947430491046      52.005377538195482
    30   1       1.253423200659795      41.935395108471198     0.26830113047766929
    31   1       1.391576760714204      40.269278380170867      2.6514806728948539
    32   1      31.789230167588009      42.672679575374495      2.8269456639195276
    33   1      31.830215739514806      44.444154477003316     0.16296514646563992
    34   1      1.6657000174050303      47.419267047386008     0.19188571802851867
    35   1      1.4367065417530209       45.28761404623787      2.5606921892464674
    36   1     0.31975701910667204      48.313682918910992      2.5660751776368924
    37   1     0.22891806856442304      50.049979256080064      51.397161642622656
    38   1      1.2821066853261152       52.93908787624926      51.831580679526873
    39   1      1.5603964275452471      50.865274298322959      2.1384329606159529
    40   1     0.22527222381216136      54.084488862740308      2.3837055800562332
    41   1      2.9778168218779477     0.36075786342718164      52.093065561055901
    42   1      4.8092999210383995      2.8812995352097062      51.981942837137623
    43   1        5.07595657533522     0.74078318892382533      2.7338461907491762
    44   1      3.1632957106765511      4.0028553710802877      2.7097852502748045
    45   1      2.9979144109019109      5.5501862233694963     0.10344849751721942
    46   1      4.3780326244410714      8.2616991282498802     0.33915733467968828
    47   1      4.7372126351471451      6.7578861628393838      2.6274831567082133
    48   1       3.133125499341078      9.4974976076055047      2.7763372535855755
    49   1      2.7589856488252167      11.387538316629142     0.15418159406913404
    50   1      4.6982199198417627      13.819632543415073     0.32685446398668999
    51   1      4.9576314224744467      12.070432183350471      2.6334153631081811
    52   1       2.762345217112363      14.476669671522886      2.5956855972134836
    53   1       2.806419118161751      16.505725329503989      0.1567146179692038
    54   1      4.2556392943059471      19.040441535805826     0.14814036886506093
    55   1      4.4729590291183792      16.871273448836138       2.650673711957924
    56   1      2.8817700287575829      20.483994130296178      2.8602981702734955
    57   1      3.3494493345037166      22.137397313846414      51.654077741973758
    58   1      4.6972732046960894      25.145585116060619      51.995177231025998
    59   1      4.4348681076806811      23.205420412535627      2.1918414584295527
    60   1      3.0698997389436062      26.291541715267996      2.3177108006990483
    61   1      3.2516883962756595      28.240333313869868      51.918546356918647
    62   1      4.8094459000653726      30.823491202558589      51.799344767394423
    63   1      4.8843447081015485      28.976473315226954      2.1592478296514663
    64   1      3.2131096067570115      31.478368515475943      2.2338545352750452
    65   1      3.3135431925943046      33.452022356572535     0.19104913528886791
    66   1      4.8445419625229444      35.970266290554015      52.092626954347416
    67   1      4.8531954726880375      34.083645202427597      2.5441319656418666
    68   1      2.9867348901391573      37.075470870702461      2.6973014145042793
    69   1      3.2535877494652938      38.541765704637875      52.101731531239068
    70   1      4.2493322799670379      41.626363994758641      51.983612688842285
    71   1      4.7253470938362865      40.022703056524449      2.8174893765900704
    72   1      3.1235607616574415      42.721599700476737      2.5232114169276727
    73   1      2.9806508556833955      44.443508127278207      0.3361824213071028
    74   1      4.5822643454884409      47.546900596928658     0.13548437059474724
    75   1      4.6702877006008805      45.553329825896384      2.7133133294558278
    76   1      3.3107177478201288      48.228500164922295      2.6688002415489747
    77   1      2.8610213235484321      50.280237169618019      52.043690922291162
    78   1      4.5226586971773788      52.809657017685637      51.932915275062165
    79   1      4.5760798350590521      50.986027053963305      2.4425166149416659
    80   1      3.0856074856296165      53.915955017967235      2.3868685663424674
    81   1      5.9317821632558436      55.460961449088138      51.976218455773058
    82   1      8.0869617098069266      2.5597710534421299      51.872254760833926
    83   1      7.9678070278516495     0.70064113877604928      2.4075227569783695
    84   1      6.4849889669401346      3.5061578857858029      2.0948537236302367
    85   1      6.7100007050470181      5.5820284697870681        52.0593448931631
    86   1      7.3091977222544875      8.2644193145280607     0.18836273579070703
    87   1      8.3313309016024721      6.5759613664669763      2.3149328601257184
    88   1      6.3054227392281872      9.1966589075879615      2.9740191261615361
    89   1      6.1670200142516727      11.209690720763344      52.029467724780297
    90   1      8.1491473332774529      13.631220041345912     0.30210879132377005
    91   1      7.9359477719124767      11.958675104194175      2.8132105438694568
    92   1      6.6801950685291223      14.790388593419873      2.6532299305114497
    93   1      6.4224192498505879      16.610487337190122      51.972782270334882
    94   1      7.8230779216096424      19.332594261513762      51.730270948942618
    95   1      7.7436786433756417      17.744105298924111      2.3532282711314596
    96   1      6.2283081303196646      19.856062015006337      2.3271036319685878
    97   1       6.294792502210881      21.965561520618415      52.075634356395973
    98   1      7.7632486215669303      24.688362583341718      51.733834954544399
    99   1      7.2114144490381298      23.225557069420063      2.4172917426686946
   100   1      5.9807088843787861       25.84956467010711      2.2323834858896845
   101   1      6.4278166042116824      27.717506553335557    0.021483700322293769
   102   1      8.0946002659075642       30.39141395984775       52.08226115410141
   103   1      8.2227171740242291      29.344793356569976      2.7962752638245689
   104   1      6.5616916995902344      31.952600890609261      2.2938583239455559
   105   1      6.6004536553590389      33.423499847392875      52.001656494882639
   106   1      8.0578567872450844      36.351706363384523      51.895327378387513
   107   1      8.0253179595088344      34.544874335858893      2.5021380206405008
   108   1      6.4495126061119654      37.341520640718848      2.5804300442288715
   109   1      6.6073877206917491      39.278563062307498      52.021751118702817
   110   1       8.225711887139969      42.066601027580695    0.035721888222744295
   111   1      8.0798558745341715      39.913546113133975      2.6372965447794741
   112   1      6.2431489305564831      42.594808507587196      2.3823695826745555
   113   1      5.9164214589987969      44.398784190008165      51.950540463941884
   114   1       7.660418556111896      47.442571207299466      52.078496442380008
   115   1      7.6867531363133024      45.029406024503906      2.6918355632539011
   116   1      6.2070225346987913      48.090220247889867      2.5477164123375746
   117   1      6.1982938178937736      50.024313145694421      51.758681731125719
   118   1      8.0324775420940941        53.1312828374829   0.0048080666850928554
   119   1      7.8884341083910927      50.598956502331021      2.0570822990345974
   120   1      6.5553510218417506      53.682264358162257      2.1313448070555121
   121   1      9.8972384089129513       55.57622931606025     0.15023911123984177
   122   1      11.174825093131266       2.572109616146105      52.045846006518694
   123   1      11.028406932563687     0.68793405017280995      3.1599628596267619
   124   1      10.141555277287473      3.5239856247047476      2.8971783325883136
   125   1      9.8668282552316029      5.3126016107454959    0.043992253177558061
   126   1      11.297390849282472      7.9339016887160358     0.27252030207993311
   127   1      11.522193876363655      6.2698455570777947      2.8033116714575952
   128   1      9.5525805211301034      9.2369406752795573      2.6091722192116094
   129   1       9.045548976005394      10.903216323938976      52.116186850040393
   130   1      10.728136124533298      13.977925337982745      52.099629758547167
   131   1      11.023860456443417       12.23105176394912      2.3844575377799186
   132   1      9.5424600869654288      14.894338690805382        2.86672846263256
   133   1       9.324044630799154      17.094221374270482    0.044727821788866376
   134   1      10.661996788623325      19.625005698658484      52.023481591773511
   135   1      11.186375760569671      17.906811424256521      2.5414961343727374
   136   1      9.2406735845848562      20.321031992835596      2.3282842965300099
   137   1      9.5448378348145795      22.266872918092105      52.063473386458156
   138   1      11.400079207330183      25.218689006750768   0.0084300906512143944
   139   1      11.045140957940157      23.009688509383036      2.6946438427235484
   140   1      9.1390968085062205      26.142553713428214      1.9700478394603649
   141   1        9.99138702085353      27.939609709376732      51.979675375138498
   142   1      11.403949528333088      30.654816095336134      51.994078542640018
   143   1      11.353305637731259      28.904081925058904      2.5704287718679639
   144   1      9.8551132319660066      31.721005053127911       2.353318845451589
   145   1        9.63660618356041      33.292599462005477      51.987352380621743
   146   1      11.106274622809337      36.148614862092998       51.81543690138222
   147   1      11.132012118633877      34.699102174876707      2.3504563800563893
   148   1      9.6006807777345724      37.406639106161023      2.2251730919589163
   149   1      9.7306630480987337        39.5173106768409      52.050685408286348
   150   1      11.535746830388529      41.510116877858309      52.121252530166863
   151   1      11.102220918540533      39.911426116303993      2.6703525810801341
   152   1       9.499948778253458      42.619393835403734      2.7046943481113708
   153   1      9.7092159812591365      44.512490726146204      52.089230807963752
   154   1      10.975834050297367      47.063733144975153     0.17382203255838669
   155   1      10.912372444596155       44.97338444416382      2.7382103945186516
   156   1      9.1239243132078105      48.347079937949772      2.7278654087889804
   157   1      9.7630482162672081      50.106944236331408      51.712841776872665
   158   1      11.097691508404044      52.791287012548963       52.06027244024849
   159   1      10.978304147213063      50.946864332441578       2.678533254721911
   160   1      9.5089567753886755       53.79884799831369      2.6192529260000095
   161   1      13.059612114551561      0.1869754764257934      52.088106981620619
   162   1      14.515334584728143       2.445219834159011    0.052723556607829659
   163   1      14.083717460370211     0.80425894545639742      2.7955253376300107
   164   1      13.195576195593958      3.7121204427970085      2.7013339833008505
   165   1      13.028475385616121      5.1517317381398628    0.074853735469986429
   166   1      14.291194156511313      7.8089046042697747     0.55717908841847164
   167   1      14.836253064508803      6.4188014397380497      3.1206051758946587
   168   1      12.471741229583989      9.2596047944779194      2.8949533366804956
   169   1       12.73205778586401      10.867257899713591     0.22373907611376651
   170   1      14.111643853135865      13.622485875331391      52.049132710155043
   171   1      14.463642669145708      11.851884825534121      2.5815718760949125
   172   1      12.275341209141276      14.839075195276397      2.5653050198693848
   173   1      12.138491097817624      17.022194004717317      51.641101081539198
   174   1      14.129670356760764      19.730573858206991       52.10423833258362
   175   1      14.245513663189994      17.817089099286811      2.3346959040779645
   176   1      12.800711401894468      20.588287455773653      2.4767257927015645
   177   1      12.769192606395597      22.520998889636946      52.034215934720834
   178   1      14.636699652033554      24.862170636005256    0.061438367229047199
   179   1      14.149967421935854      23.214684786333262      2.6868075955614965
   180   1      12.730989591330287      25.817361244254883      2.6856727168073893
   181   1      12.945362633323597      27.681891301755602     0.17438553797501768
   182   1      14.433121318631089      30.569061860844602      52.120240427447513
   183   1      14.231706796978393      28.541038572864377      2.5789915428458805
   184   1      12.947791954101829      31.690082061908967      2.4282785359473236
   185   1      12.683502145166504      33.657132376636966      51.928341502775794
   186   1      14.204805108060087      36.068158430138453     0.08149221396856289
   187   1      14.442861051201419      34.269787496959609      2.9021937635617907
   188   1      12.560955804292041      37.197404096226506      2.9263119323452669
   189   1      12.934961140574657      38.747099579687905      51.996842022668311
   190   1      14.485571275400678      41.839071269933342     0.13008809175391997
   191   1      14.342226996867801      39.843861299507303      2.6922519721589486
   192   1      12.738456269408122      42.501046139580964      2.6371248369520108
   193   1      12.799365486641184      44.422834938177814      52.080384290106345
   194   1      14.222108551456856      47.085456818124342     0.12125385017954854
   195   1      14.229606863837706      45.159559900045316       2.261690033543402
   196   1      12.318346123157379      47.932131808134287      2.8174634661291389
   197   1      12.588032095708193       50.52167257616653      52.003313023179388
   198   1      14.334295067496299      53.005600288468528      51.978975756754849
   199   1       14.63918674885794      50.699042099257674      2.4062683510596528
   200   1      12.653534867377632       53.52579544423331      2.5478817230455579
   201   1      16.049824074066251      55.424632363238189    0.026521227826499599
   202   1       17.55576849205454       2.431719091838322    0.076580769544168273
   203   1      17.620518780690105     0.46183517259721257      2.4220373967501918
   204   1      16.643615539175336      3.6366411644824281      2.9096015312578287
   205   1      16.077647800497996      5.1288757036421257     0.30692151047340216
   206   1      17.096326484323189       8.027681239328917      52.069590633670771
   207   1      17.923806912328391      6.0986845754443779      2.6013683403532943
   208   1       16.21276362183778      9.1623307060168102      2.6479314202002757
   209   1      15.629325049420165      10.585096805082596     0.14037519899745257
   210   1      17.215743223703004      13.244307881206746      52.028529181188972
   211   1       17.58722568801657      11.806173837676683      2.2188977389215334
   212   1      15.859318177626989      14.927114610526333      2.2768439899807742
   213   1      15.864590055765349      16.125934951575605      51.946240764918812
   214   1      17.181006230807032      19.586258433294173      52.018325521547496
   215   1      17.396496281878271      17.788848196490793      2.3836571759211789
   216   1       16.36452696542829      20.427944017811367      2.8591502223659986
   217   1      15.822885929795502      22.249579259282839     0.38032944227448712
   218   1      17.656919835968424      24.992476702312345      51.879077108945225
   219   1      17.978734112125796      23.127481588789067      2.7581824636010892
   220   1       16.10032092384882      25.932828246317879      2.5289254941662334
   221   1        16.0290214762896      28.254247710872651      51.992203480067261
   222   1      17.273914285988393      30.615805076875528      52.092888471944647
   223   1       17.38927046889842      28.723687400288405      2.6032619505762806
   224   1      15.848946178156361      31.524087429199145      2.7115788942588201
   225   1      15.868860279550383      33.431802024149164     0.31051249595067976
   226   1      17.637310379238173      36.078581373042304      51.951426312283672
   227   1      17.660361399506542      34.341031781081995      2.5833776525248431
   228   1      15.651869054108946      37.072547478471861      3.0684736673187452
   229   1      16.113971801460849      38.662323174945321     0.20813220832050891
   230   1      17.597643317015994      41.244762691808511    0.049009065449789509
   231   1      17.398531140106307      39.618996597682774      2.8129717013844227
   232   1       15.96883688248268      42.785507252293137      2.2929306124816335
   233   1      16.117925091433609      44.559466250213163     0.12291120192463935
   234   1      17.698043211146672      47.048207381990736      51.916299265878756
   235   1      17.520756677644915      45.400964819604475      2.6921908416319673
   236   1      15.969900569783919      48.003896330730001      2.4606637974886065
   237   1      16.229683726497619      49.734116468242341      51.913555138671576
   238   1      17.439921127766226      52.507821298402973      52.041016200803639
   239   1      17.600541736065804      50.431889152672035      2.8362529692322975
   240   1      15.696108916333483      53.697243550451851      2.4733408383374247
   241   1      19.060556562933129      55.180113030376226      51.886524640787272
   242   1      20.926591710321159      2.2402897738944585     0.12228292677709092
   243   1      20.774699207768876     0.62059320750349778      2.5668331580471668
   244   1      19.260060399157705      3.3010920204983307      2.8081715962772886
   245   1      19.254878833239101      4.9154661189085642     0.33748388949731645
   246   1      20.494959763069126      8.0047962906160013      52.013859844576899
   247   1      20.723920708718602      6.4169456047424989      2.5119651151045428
   248   1      19.038544608803843       8.993603039182517      2.4795977138266654
   249   1      19.277486315849583      10.566760413919244      51.841825025863329
   250   1       20.36987939880138      13.750520694573426      51.961186413248477
   251   1      20.886751476681731      12.311896847191171      2.2963760141671088
   252   1      18.952597954837767      14.823019355470695      2.5767855046722836
   253   1      19.309417681756578      16.964382571633102    0.063045221573190285
   254   1      20.427217024270927      19.889035960542799      51.866186254585365
   255   1      20.459327633799187      17.805067330074259      2.7972228753248438
   256   1      19.276904868569098      20.329005398515871      2.3022927173124574
   257   1      18.961006475697022      22.547236141405207      52.068312420003934
   258   1      20.697957103965482      25.009326643864043      51.915453826970626
   259   1      20.636084400149098      23.321243600879988      2.4007479942357679
   260   1      19.108419321561147      26.101722125546917      2.2113114174438682
   261   1      19.016267017200008      28.327786301779021      52.070333683602854
   262   1      21.046095014975045      30.750782478661954    0.056742359651393619
   263   1      20.465310296089154      28.760123946799627      2.6733535597622948
   264   1      18.821762373625209      31.437981726299952      2.5703052538422182
   265   1      18.785902395370368      32.926739058998344    0.039804625983253399
   266   1      20.626158302252239      36.115117695834201     0.10756273136067765
   267   1      20.599893102456335      34.226378100482165      2.2423339325193155
   268   1      19.301533610752809      37.142254971023867      2.8865956100763817
   269   1        19.4434866839295      38.734884293717741     0.34276408701816907
   270   1      20.835635849154968      41.398210966364822      51.775176816495993
   271   1      20.595913862404185      39.612910892262484      2.9058957170230193
   272   1      18.977486280126371      42.307742484410952      2.7747896552688958
   273   1      19.034346029884578      44.112077706105758      51.914420634204141
   274   1      20.615319062494994      47.069779258011806     0.25144577279233743
   275   1      20.513141664464253      44.815523637065681      2.2092350148783679
   276   1      19.121679456300662      47.964418882984177      2.5471891963126634
   277   1      19.432183346736572      50.003116387377666    0.035910086885727187
   278   1      21.017768313200129       52.80606297926618     0.35709585548225681
   279   1      20.820129257619197      50.717696437063957      2.5976908461981094
   280   1      19.312965118759092      53.478045028649923      2.9677273299261704
   281   1       22.60035741966021      55.192794790692965     0.33947299850946583
   282   1      24.390132408044376      2.6826532338157372    0.014810826506874054
   283   1      23.945532818579288     0.88650878651474085      2.5306997608999504
   284   1      22.807360478029796      4.0855551346556718      2.8389530978396689
   285   1      22.391632074076359      5.4302336145641368    0.025931000006988128
   286   1      23.512039067956305      8.2809681935220691    0.063714102838487358
   287   1      23.976789645653927      6.7209028295105346      2.4425398957788742
   288   1      22.334510103333535      9.5367991610370968      2.3800984041004987
   289   1      22.245376156301766      11.149329447085119      51.705348304416148
   290   1      23.448726221621396      13.751115418978619     0.14370092755355585
   291   1      23.840841121754348      12.300362627042684      2.7461542719497514
   292   1      22.053793770796219      14.953324876357469      2.8046827734622362
   293   1      22.461985178394926      16.884670099817939      51.974357426133615
   294   1      24.016568162116098      19.325574055276384     0.22162646734739452
   295   1      24.016952830675272      17.488600945727228      2.4252684561675872
   296   1       22.43815572634896      20.248786675818735      2.7615950200919013
   297   1      22.165411061526459      22.272540868137529      51.920978241504066
   298   1      23.872663749335061      24.896185202483665      51.820407306908685
   299   1      24.063324364025078      23.174507368731032      2.3879457116862186
   300   1      22.082682627948362      26.043540276804734      2.4659849910935607
   301   1      22.424947476013958      27.727168532500073       51.99979615010826
   302   1       24.07045400857147      30.871174213502162      52.042754715905097
   303   1      24.126130556295774      28.710970936017414      2.3583463341254487
   304   1      22.542195787230359      31.423921994238636      2.7714774846931522
   305   1      22.829975600815658      33.760651346404281      52.087083405898539
   306   1      23.797566014797841      36.413015607635089     0.28459166941910752
   307   1      23.800230301846902      34.329365299988886      2.8296334287088536
   308   1      22.379703383328913         36.883037758213      2.6040105555849875
   309   1      22.567495023309668      39.140599288748668     0.33982757719425327
   310   1      24.514630515285251       41.74743802718455      52.002848227228483
   311   1      24.395032939271005      39.821018789320092      2.9422654921331102
   312   1      22.609212712086752      42.323600135898275      2.4496666388983797
   313   1      22.478575474983153       43.85227230344681      51.892944264055096
   314   1      23.982555475149407      46.819293110109051     0.34169799511661625
   315   1      24.394139563119641      44.856862495989702      3.2362466003337675
   316   1      22.535501129778357      47.892901894524186       2.622764471632939
   317   1      22.213701427388735      49.416064875711328      52.087476825590663
   318   1      23.712132638334012      52.138267185672518     0.13850224106065756
   319   1      24.138177900569982      50.990497160116533      2.9957952161615404
   320   1      22.331713523941904      53.588613853131896       3.068344989540313
   321   1      25.582994543068146        55.2588604328744      52.114516111405266
   322   1      27.429720740668305      2.6511991960804711      51.903356237526367
   323   1      27.134303197815072     0.48497877444963955      2.5902850935139319
   324   1      25.822172077882549      3.3547509094798329      2.2682718855552619
   325   1      25.609004520331659      5.4083406732470083      51.915423982961173
   326   1       27.00164304776488      8.1347189758382488   0.0056149904566909822
   327   1      26.645545287101999      6.2829688274726792      2.6512160998193899
   328   1      25.766258858696947      9.3970499168882569      2.4663009347093818
   329   1      25.117527123342231      11.143125312483456     0.20973103295518225
   330   1      27.102911621368751      13.881434261940132      0.1919937063435728
   331   1      27.361480066790381      11.913527418126963      2.6548702936864608
   332   1      25.531841660557092      14.738621856015328      2.6543025046850137
   333   1       25.58422444815934      16.571657710165137    0.065016866813404517
   334   1      27.247359821591097      19.562244484966914      52.001753811771401
   335   1       26.91027960447634      17.469312052007893      2.6616320427362417
   336   1      25.638846271784903      20.337877429861365      2.4616350618409575
   337   1      25.597968849475286      22.046351445656558     0.25023552774210978
   338   1      26.951756142904202      24.677805285716222      51.992164714546249
   339   1      27.145503728196132      23.067073545990255      2.7408610117650709
   340   1      25.760239728754865       25.90772360734184      2.3667837715649682
   341   1      25.879365977330082      27.551067017961291       51.77375236375461
   342   1      27.291631481401406      30.380553036355522    0.090263759763317797
   343   1       27.60223180226841      28.360947457660973      2.4122614050002213
   344   1      26.021237337821127      31.208781729403277      2.5920186595897201
   345   1      25.943361101358381      33.220336087512408      51.677218066952427
   346   1      27.384443480910466      35.731768358994216      51.834585613235326
   347   1      26.932229750676463      34.000825226216186      2.5121291260570398
   348   1      25.604914117217287      36.793232507895027      2.7277554182100561
   349   1      25.803262903456204      38.547235639126491     0.55000604561319399
   350   1      27.517518757674658      41.444915935444108      0.5141759037204815
   351   1      27.568210081637563      39.761752901004712      2.9093053248288872
   352   1       25.78744187444428      42.479085000154384      2.6311002145891402
   353   1       26.08464281909421      44.195807110425179     0.36890033412812956
   354   1       27.61236387117691      47.075922595536603    0.055321461604436233
   355   1      27.281923580673318      45.697063112731257      2.6063654046227116
   356   1      25.645158674272245      48.280035339336379      2.6789568488992517
   357   1       25.89961979364287      49.586237551119467      51.878749513205875
   358   1      26.758000479278014      52.626796627443262      52.117665390297141
   359   1      27.385466925353452      50.779345607353733      2.7054811693841443