dump/S5_s00_n130_r1024_560_0/steps_1 (written by ASE) 

1559 	 atoms 
1  atom types
0.0           114.158223526  xlo xhi
0.0      7.2199999999999998  ylo yhi
0.0      22.831644699999995  zlo zhi


Atoms 

     1   1      2.0812472292406587      1.6813230271138928       4.378139737306233
     2   1      2.2376204751360858      5.4471743477200176      4.1536711028140925
     3   1      7.8932544042305954      1.6800011692326893      4.3372233501418922
     4   1      7.6501176873467109      5.2205980858067456      4.2838857199529308
     5   1      13.595572255948108      1.9460819791550343       4.164101605896418
     6   1      13.649369292027192      5.8162312872818438      4.3895948404025997
     7   1      19.176194072245185      1.8770735850952256      4.4632123943903421
     8   1      19.409136726197978      5.3528035321019658      4.7088218910009774
     9   1       25.01405481648289      1.7890881399931107      4.3816045186657222
    10   1       25.15095447112418      5.2686409995602954      4.3312385603737829
    11   1      30.844962056306802      1.8836424241862344      4.4965895073515139
    12   1      30.782128271692184      5.2587257501287032      4.5223422076303095
    13   1      36.548794016721985      1.9595938078828561      4.5347546043245739
    14   1      36.482442004726721      5.2879386624867157      4.4449409771734159
    15   1      42.381024914560065      1.6670096266030723      4.6931117282984784
    16   1      42.086238200270174      5.3630137192813629      4.6040908172121178
    17   1      47.859576131706447      1.6446652233629553      4.7874586005898276
    18   1       48.09585730770339      5.3846818893984825      4.6392417163908339
    19   1      53.837581919478623      1.8608789250631328      4.9571667183405257
    20   1      53.769769382902815      5.2290383726503213      4.8208849380953369
    21   1      1.8537554991234644      1.6994169410694531      10.057688488364709
    22   1      1.9637617835435084      5.5982546475538193      10.054445055624566
    23   1      7.8744893125475981      1.7590133496168079       10.05039100086854
    24   1      7.7506941917726087      5.3726566583084541        10.0272713723369
    25   1      13.488992973423281      1.8668312531675575      10.078127402074053
    26   1      13.329822394203319      5.3918623443842559      10.078341176640114
    27   1      19.373518361427283       1.707642034706996      10.320501391094224
    28   1       19.19423852721841      5.5326544449773296      10.271421275575088
    29   1      25.030805998779559      1.6918585211921302      10.110165726739254
    30   1      24.897811278229881      5.4434358104131206      10.197605942879941
    31   1      30.793743740335298       1.473170815510862      9.9975297931895266
    32   1      30.703595569984873      5.2863815202283702      10.062655268171277
    33   1      36.609269969474802      1.6314066576670656      10.179995747365234
    34   1      36.395418228616478      5.3527697824769538      10.423343897430023
    35   1      42.424081354970788      1.5565106419286281      10.320565094434068
    36   1      42.438246446556882      5.4052363377475796      10.404685088591371
    37   1      48.495802947750221      1.6684558053755485      10.749989488185276
    38   1      48.102068787929447      5.3093501000530408      10.550033324823124
    39   1      53.943133535521035      1.6723386768540469      10.593130647081203
    40   1      54.112865321769021      5.2795223268237974      10.535763728461927
    41   1      2.0908895241620935      1.8782544532924568      15.972828280334342
    42   1      2.3105534487012123      5.5040959404745653       15.91591888722078
    43   1      7.9601283226238486      1.6824193331792703      15.673437031659056
    44   1      7.9491010177156483      5.4374259928121909      15.892258702829745
    45   1      13.760005171067631      1.6339149383415505      15.790166824014161
    46   1      13.736890423794488      5.3222268242352762      15.945741718660123
    47   1      19.383654720621344      1.6446975889164581      16.076502626875175
    48   1      19.713786173775691       5.667985138919895      15.967913502067415
    49   1       25.11333016450661      1.5937726371469174      15.887616969109091
    50   1      25.092166811442031      5.4185499126893601      15.870645051745381
    51   1      30.895784362782887      1.7961749849710296      15.856388764189656
    52   1      30.783124187975545      5.2258586809065513       15.85857276431366
    53   1      36.632658352374868      1.6522878436369384      15.857471402105761
    54   1      36.687251282956097      5.3638081380924536      15.745938885989956
    55   1      42.348907968367186      1.9839261334688212       16.00889263216531
    56   1      42.214788768956225      5.2954339354614479      15.974436693260259
    57   1      48.151987884832593      1.6935885784285603      16.222711173378755
    58   1      48.251114607273827      5.2171854395238357      16.134170228124038
    59   1      53.879231561304714      1.8764054764383862      16.218038023444766
    60   1      53.824386658518954      5.3540890124947369       16.29660046242434
    61   1      2.1506439959156354      1.7154467540499583      21.496956524232246
    62   1      1.9600775390390572      5.2875462359633394      21.461193398044987
    63   1      7.9170278316603442      1.6627374399015447      21.316267947750386
    64   1      7.9097209820542398      5.3543309842563902      21.389247854923703
    65   1      13.611658924270179      1.8631547596933677      21.503978272785844
    66   1        13.5904088391536      5.3850961843925891      21.503200735038451
    67   1      19.314732349844903       1.648331112825471      21.512997718874161
    68   1      19.269678910522881      5.4899312042443258      21.594445792216288
    69   1      25.091392856371531      1.8187773678469774      21.764656286588554
    70   1      25.041455817998155      5.3849517480331404       21.64672567799175
    71   1      30.887636876781471      1.6621985321944959      21.858198921218442
    72   1        30.9332434444844      5.3920587151237589      21.681692545529717
    73   1      36.503551420937171      1.6882802822018785      21.822838648255193
    74   1      36.527542825803451      5.4472505708285786      21.736457572872343
    75   1      42.371842067703838      1.5822941547421974      21.920385876868558
    76   1       42.09719156010086      5.2294263652902071      21.649119869041794
    77   1      48.163956916937046      1.7352974815008464      21.876617109052088
    78   1      48.189371557557727      5.5229981116153581      21.676433573068696
    79   1       54.04394798646431      1.8041253633703063      22.077022848757839
    80   1      53.686769063368125      5.6656994519133992      21.809360678652201
    81   1      114.10339898603689       1.807074902364153      22.446305293514062
    82   1      113.99906625680553       5.393066337887757       22.82756050711161
    83   1      5.6555486980593237      1.5220171829817457       22.44668048640737
    84   1       5.793485031357859      5.2369575091201037      22.584169315923162
    85   1      11.486151314635496      1.9366873045447182      22.784843719192043
    86   1      11.364085619471728      5.3789177522220548      22.543103525680785
    87   1      16.993442455373565      1.8518590198263514      22.734554683214906
    88   1      16.931091973201919      5.5237566217036242      22.773274899552153
    89   1       22.60874913677857      1.6115107948618674      22.643638629907528
    90   1      22.819001521696492      5.3533258608606999    0.085487407815676084
    91   1      28.603705243808005       1.777415480705915    0.012579616017494849
    92   1      28.652747668258037      5.4769698609013666      22.767319470737597
    93   1      34.359227540093315       1.502387689266802      22.770527246488296
    94   1      34.274566675261163      5.2010433403249268    0.040382427693431651
    95   1      39.958200549202793      1.7269333519862149    0.019246986683456917
    96   1       40.02297821211819      5.3727115412122455      22.720243277784846
    97   1      45.942773733950276      1.9808875720038215   0.0089028112834090341
    98   1      45.709142491092024      5.3111832616422019     0.32551957719366492
    99   1      51.711277870007166      1.6938455020257974     0.12007789144548885
   100   1      51.398606052608685      5.2918203791640321    0.083698833218575241
   101   1    0.032387720873157097       2.111762879018495      5.4092736267088295
   102   1    0.076662377149810237       5.371929713880677      5.3896134763540751
   103   1      5.5381757695328764      1.7462478706476692      5.4802486988007288
   104   1      5.5663483247722398       5.362171488792205      5.5469407816485354
   105   1      11.229350056934216       1.777197416606749       5.408686384450613
   106   1      11.051841911428841      5.4930747731907648      5.5111241584906718
   107   1       17.00426003007971       1.923317038325792      5.8706636389239568
   108   1      17.008449729172739      5.5824156672086573      5.6524472295251762
   109   1      22.808414078541276      1.7912611649897627      5.7941620631050981
   110   1      22.832726290579842      5.4704232069448322      5.5691520150860292
   111   1      28.565098058453497      1.7122003146530074      5.7212410579307837
   112   1      28.567301687508259      5.3257730142011646      5.5429855886128259
   113   1      34.315579809828606      1.6149239256561563      5.4670205141403487
   114   1      34.329502707480188      5.2767575633638746      5.6455268222482307
   115   1      39.780185163244482      1.7634119217170716        5.80955268469849
   116   1      39.789577233526657      5.3184299945486249      5.8823554905846569
   117   1      45.777965443553519      1.7499534137530592      5.7336501146186816
   118   1      45.854790602093416      5.2697784484524908      5.6517241602173023
   119   1       51.79465254479058       1.771320290272399      5.9707020920901313
   120   1      51.926814774689355      5.3130359191215755      6.0686025832371273
   121   1      114.01790974892771      1.9582765540663571      11.259036882907997
   122   1      114.11541939285432      5.5096579117555695       11.61438889809012
   123   1      5.3767872781206743      1.6767295215010589      11.059126797556299
   124   1      5.6387028437241362      5.5157429884755533      11.122246987761539
   125   1      11.175842507240798      1.8617319159234194      11.270796293126985
   126   1      11.008636021093617       5.396541644096966      11.360891931694526
   127   1      17.117669856933439      1.9160375934884757      11.267365404832482
   128   1      16.983805564299544      5.3076329228189278      11.299799799269358
   129   1      22.630340102896039       1.831174225577755      11.285120283128657
   130   1      22.637813899675862      5.3706681770111535      11.512991928263183
   131   1      28.520432954422642       1.744426747208369      11.265419863097335
   132   1      28.504168989248715      5.2772743241619873      11.206115463767482
   133   1      34.338805933740645      1.7364069063160488      11.404198453257054
   134   1      34.055699339653358      5.0118340135218569      11.305925211159376
   135   1      40.039711926185021      1.5346570048828887      11.537045889941183
   136   1      40.032525744879919      5.4510936559049359      11.542941286742387
   137   1      45.770613138858394      1.6870179449780331      11.568123614465291
   138   1      45.834738930519933      5.2303462899030437      11.484924395177641
   139   1      51.705074138908891      1.8221921896350475      11.718610419531144
   140   1      51.456185017543078      5.3660640109881612      11.889840162009135
   141   1      114.07553067883012      2.0513984674982253      17.180356125311807
   142   1    0.058055515864672065       5.590887849405334      16.689898881792821
   143   1      5.5806032274700588      1.9468557380298539      17.011277546945781
   144   1      5.4167425645103853      5.4779657052037418       17.05414366296004
   145   1      11.280370702128273        1.86937632390282      16.807328153279574
   146   1      11.495115766011539      5.3800989166553137      16.830495825362522
   147   1      16.985977099503142      1.5824939042935167      17.186579730213314
   148   1      17.198531204735115      5.3696321178826398      17.008365931326274
   149   1      22.746004115178195       1.602617574635872      17.123365715682827
   150   1      22.773786011675366      5.4379710844076472      17.132983919640445
   151   1        28.7198136815671      1.6706310956224288      17.065536828422974
   152   1      28.520002637226753      5.4741584316397951      17.028607714084885
   153   1       34.48973531905181      1.8872099560904605      16.938044921671981
   154   1       34.52765494865038      5.4148136564416518      17.020260041010143
   155   1      40.026334334601991      1.6970346192346033      16.918650314506792
   156   1      39.960210866510621      5.5193577584835021      17.059468900306246
   157   1      45.815583787322787       1.709647349550959      17.361701474076927
   158   1      45.854022498244788      5.3128075375348178      17.052946342222807
   159   1      51.562041056811964       1.914045965343611      17.398684620506334
   160   1      51.267814343191496      5.4526632761678764      17.352824675873251
   161   1      1.3309990268959715      1.8289868228221964      1.9791630099621191
   162   1      0.9866662813900472      5.4946697623586314       2.204581021094377
   163   1      6.6667819194112328      1.8124695389826602      1.8557750115327598
   164   1      6.8411129414518577       5.126668356625272      1.8944948029738535
   165   1      12.381058754054363      1.9478186537371327      2.0454173493939347
   166   1      12.392020876863668       5.438199845812786      2.0569994151074558
   167   1      18.215523278818004      1.9891411014321201      2.2164174817835525
   168   1      18.265720564780324      5.3958174024930754      2.2966231449263339
   169   1      23.865465771868887       1.632654956618619      2.2963293538141012
   170   1      23.925043350628997       5.600465172240443      2.2083699342739385
   171   1      29.704798212954891      1.7568805863659491      2.1713366989436502
   172   1      29.594161882542643      5.4035468160066289       2.256292496005436
   173   1      35.416209153550014      1.7574426466074702      2.3104174354293945
   174   1      35.346069216535888      5.1308998842808231      2.3287414942413638
   175   1      41.340044293624359      1.6016660391485542      2.5522168085491481
   176   1      41.183366546282301      5.0941791871758175      2.4118493755632948
   177   1      46.942816326732192       1.769436835362449      2.3349893273991822
   178   1      46.962024144138717        5.39758367915611       2.462455906316233
   179   1      52.638080657240302      1.8146289000218279      2.4530140773548497
   180   1      52.955504505184997        5.48225283382782      2.6455686647314356
   181   1      1.3107216311331789      1.7773483654661979      7.6631101621203692
   182   1      1.0807531402422472      5.5108647114019016      7.6054651670054483
   183   1      6.6950476870470217      1.7397708605153988       7.819376895362141
   184   1      6.7360527706896267      5.2982293599671308      7.6977515834128951
   185   1      12.251412763452073       1.719934262576569      7.6627454842277407
   186   1      12.253595197224483      5.4062844940346331      7.6698296818268128
   187   1      18.184758683673021      1.7731875912680568      8.0249792490848808
   188   1      18.077211742386194      5.5931910137415803      7.9523556159451463
   189   1       23.78085003024507       1.764449626113179       7.989529947548708
   190   1      23.986178194837855      5.3276924858635706      7.9021515232174346
   191   1      29.672638099719087      1.7163533180151473      7.9743284855458416
   192   1      29.673999108258052      5.3139564536890864      7.8937996334607501
   193   1      35.495646891420392       1.631369805654153      7.9754714521277537
   194   1      35.702235139237331      5.2120533111824505      7.7698954501064117
   195   1      41.340344128104796      1.5778272457231703      7.9613453204345275
   196   1      41.153988647042475      5.6163478487955558      7.7593334466110093
   197   1       47.18680698017323      1.8453833946881961        8.03553788994234
   198   1      47.264478728521404      5.5606999145475529      8.3731310378945345
   199   1       52.87166941928249      1.7104197055099022       8.269567528435763
   200   1      52.716983321681973      5.4469667669261801      8.4778367137381565
   201   1     0.99946641613061471      2.0828905749685775      13.393136401172876
   202   1      1.1881583053154183      4.9086784606635225      13.806526991525876
   203   1       6.517871374236301      1.8667732490815878      13.505920131953046
   204   1      6.5346064106739075      5.4084839100897693      13.696903418392838
   205   1      12.443981804523943      2.0475882285476388       13.53785363889706
   206   1      12.579679421084968        5.38935282080599      13.567586953525494
   207   1      18.302065570535589       1.828916328649179      13.597150907452228
   208   1      18.230278293514637      5.5169690601288046      13.724381058656718
   209   1      23.931403998891053      1.7941298356750028      13.618251178359689
   210   1      24.089029050458979      5.4796128883775141      13.629292794194505
   211   1      29.574467698597285      2.0298946802267275      13.616285195611608
   212   1      29.634090384796938      5.2847839773974812      13.485670024336825
   213   1      35.426231300583055      1.8689728756956616      13.560510444492316
   214   1      35.429617586138313      5.3725985232821616      13.435128292270401
   215   1      41.338694274644936      1.7012948085366422      13.687258924346914
   216   1      41.143374712697735      5.6181395611675127      13.768142834947774
   217   1      47.039004028043323      1.7391345057714227       13.79051088616918
   218   1      46.747673607487563      5.5823865755687692      13.924909076388913
   219   1      52.736247048473558      1.8604810050134539      13.995620324618413
   220   1      52.705500457081349      5.2158719929021053      14.003915924466659
   221   1      1.0274358284014784      1.8370406182274399      19.286852297388403
   222   1      1.4429592868541095      3.8977936556760588      17.440756384392131
   223   1      6.7329324783538693      1.9082740993677814      19.183095583606509
   224   1      6.6804593775310508      5.4783374014647128      19.205252244451128
   225   1      12.526764031063378      1.6252701723598555      19.112430731628059
   226   1      12.488402206981464      5.4185032229526291      19.305915897506523
   227   1      18.400613385382325      1.7647244823451589       19.31170006147358
   228   1      18.456521000439281      5.3333695085305184      19.274790097200789
   229   1      24.224036206567664      1.9823964109595049      19.215071394739752
   230   1      24.122048236967387      5.4745070862917675      19.274512593906771
   231   1      29.886351547100219      1.8100094573463066      19.524962074877536
   232   1      29.915962989194746      5.3301196726339226      19.294704814755672
   233   1      35.479620632224311      1.5703328822018972      19.426794691951518
   234   1      35.469612248742997      5.3045581565813968       19.38204114474625
   235   1      41.102226361896015      1.7866009491957746      19.416853638636287
   236   1      41.194079622621338      5.3255928144924978      19.483981546618352
   237   1      47.113768477842882      1.6406616057410521       19.59266044517075
   238   1      47.040639229289127      5.5561303376930677       19.59359337775744
   239   1      52.756635980144644      1.8689845102792133      19.708844884138699
   240   1      52.714216528409189      5.3469546877590659      19.489937040833073
   241   1      3.3417843468763775      1.8231903229979598     0.77900449598163102
   242   1      3.2844418872984451      5.2968482972041908      1.0958556244811639
   243   1      9.1732155436417191      1.7295461611671763     0.71579568917845093
   244   1      9.1135401086593095      5.4620572953107436      0.7060211786101257
   245   1      14.895860529318472      1.9485595411540599      1.1936836167342431
   246   1      14.836237648301644      5.5362560927765161      0.8346407383036144
   247   1      20.318754206952551      1.9076243267708213      1.0368926173097857
   248   1      20.523589433814042      5.5047395984553145      1.0198284218410028
   249   1      26.134133568093883      1.7048051290329065      1.0349518499387702
   250   1      26.129243367922367      5.4242622151290574     0.95284279306417197
   251   1      31.980258738062759      1.5913980667381515      1.0365047286793414
   252   1      31.979155722524585      5.2269104808746656     0.96021278537757637
   253   1      37.768676903180861      1.7787674854587427      1.2393978111554702
   254   1      37.734177522303384      5.0778204227584638      1.1522841416918372
   255   1      43.651443654874903      1.6574285682865066      1.2657655252159623
   256   1      43.443136412251967      5.5173018245800254      1.2728400965051614
   257   1      49.415856264458654      1.8805348033906588      1.2537293850790963
   258   1      49.163555528164338      5.3805472688492531       1.292378187138653
   259   1      54.990117075486857      1.4701107265499016      1.5082161014671274
   260   1      55.197762046497694      5.4972879873975362      1.2513640632275087
   261   1        3.31779972049172      1.7741715192120404      6.5356544156785903
   262   1      3.1972279648325861      5.4290326022037014      6.6970146097386136
   263   1      8.9362866556335252      1.8183129923967087      6.6726359057263371
   264   1      8.8149885254729075      5.4414502762211709      6.4525742042938887
   265   1      14.589879176024851      1.9877639005362462      6.8123505530032329
   266   1       14.71683479567548      5.6139624121809097      6.6638223572661461
   267   1      20.430682476976497      1.8730080500294926      6.7991160262145911
   268   1      20.490398648142662       5.361648685991633      6.9883083908509507
   269   1      26.060491332262728      1.8176566891448733      6.8759059768806381
   270   1      26.063829748079691      5.3488354791951886      6.7384984971951329
   271   1      32.171549566099394      1.7359282842195751      6.6131617274227468
   272   1       32.09791520233918      5.3213289674003308      6.6171087938130491
   273   1      37.674154194813291      1.7290475529496412      6.9971239291577483
   274   1      43.769809148677815      2.0121016520885457      6.9470965326544736
   275   1      43.523860334460473      5.2691820609050586      6.9462395225768301
   276   1      49.510631499567019      1.7029119272038715       6.848010401114685
   277   1      49.598124794101729      5.4199885652307129      7.0545530329661021
   278   1      55.060983795117785      5.5366012718462194      7.0760582785933321
   279   1      3.2282955636130719      1.6278393934351849      12.231034189567362
   280   1      3.0937808614180313      5.5747165429385923      12.294194439060727
   281   1      8.8057272984041095      1.9224325171617902      12.362512143316801
   282   1      8.7295149349481225      5.3389505187395061      12.394907784286309
   283   1      14.739301433010164      1.8511900794484275      12.394000181456944
   284   1      14.645755027930335      5.2356691236290303      12.273073846576882
   285   1      20.579044406048705      1.8869098903574171      12.546495212931994
   286   1      20.427152595015801      5.3245397638474401      12.479142926232718
   287   1      26.241563223312269       1.680705515877317      12.404675494011403
   288   1      26.178650903589222      5.3622182264606542      12.471497834331295
   289   1      31.764459430344733      1.8294360459608743      12.423746722053036
   290   1      31.952207476794609      5.3421270753849299      12.477918319154888
   291   1      37.812555200716425      1.7452797639654964      12.504887174313566
   292   1      37.719377831215077      5.2521147997035849      12.571587884342964
   293   1      43.540381456431241      1.5959875224778077      12.667331011416499
   294   1      43.552411330227969      5.2807489459091332      12.500181218570633
   295   1       49.54339935921621      1.5607943155180091      12.765993329917483
   296   1      49.118318654272777      5.5278608507213711      12.739084367834371
   297   1      54.922855325450747      1.6601614957968212       12.63953222893036
   298   1      3.2935333107243316      1.7444492615249054      18.228069899560971
   299   1      3.1345732892799889      5.5527398177616796      18.236045095080488
   300   1      9.0987316800687328      1.7244045794841081        17.9159017263745
   301   1      9.0507235680615956      5.4460016891915881      18.032102467252471
   302   1      14.695129113411168      1.6029312102605571      18.271416796643187
   303   1      14.863622016259839      5.3554044384450714      18.036163952768504
   304   1      20.425452074360784      1.8134217169602771      18.263873344469726
   305   1      20.543851521842502      5.4010655463141521      18.221601492242328
   306   1      26.426870506838277      1.7597064200064052      18.072117417475752
   307   1      26.155146861656785      5.4746018852444056      18.095683903334876
   308   1      32.307489027998201      1.6968798103311322      18.154490090336925
   309   1        32.2670163181836      5.3732768502519583      18.212775740015545
   310   1      37.888924244586306      1.6966439416121426      18.293315427716916
   311   1      37.673945229927853      5.4234618808472153      18.160887583991965
   312   1       43.36988474522331      1.8796869023483531      18.217765361125188
   313   1      43.442102245464433      5.3061675631570093       18.40076376379027
   314   1      49.211357441737746      1.6982587420403583      18.389086180515847
   315   1      49.237686007233641      5.2712353958724201      18.589521212047611
   316   1       55.23543624837491      1.8817458424816027      18.503210040781145
   317   1       55.09045412030877      5.2284137573618263      18.555199711842501
   318   1      4.4150344337617629      1.7377208590908673      3.2559605072965585
   319   1       4.658094782612733      5.3540654044426663      3.2846391226252432
   320   1      10.186430927308487      1.8991526383074249      3.1722334461159427
   321   1      10.079376312670343      5.6411961051231714      3.2549698163004104
   322   1      16.039173595360804      2.0923112029093898      3.5211213846652156
   323   1      16.070842822641797      5.4965813421667722      3.2618555728192118
   324   1      21.493214708268525      1.7812195658782033      3.2764423747843647
   325   1      21.562702366471822      5.5204318268327368      3.3412628671547679
   326   1      27.473997816301061        1.89104746524589      3.2666707396386823
   327   1      27.272608157073421      5.3944172266099661      3.1353922629405324
   328   1      33.140995685509786      1.4976986569156232      3.2666511010239221
   329   1      33.122971054143818      5.3317376206451517      3.4547399048863725
   330   1      38.886159970180813      1.7703416880711151      3.4743023338606189
   331   1      38.877695622043184      5.4003233373663662      3.4624924422436139
   332   1      44.479862801818506      1.5831974201010766      3.7442656207582052
   333   1      44.733554639900049      5.3224799827334479      3.4553741901893655
   334   1      50.339229586530593      1.8683692943258043      3.5638049899616573
   335   1      50.450894215753486      5.4964725262593399      3.5641266484627656
   336   1      56.328743611416435      1.9078517182438834      3.8780985349721648
   337   1      55.898646884659996      5.5901917953814717      3.5798102214965737
   338   1      4.1894613864301569      1.8393487485036628      8.8613271789970707
   339   1      4.2036817553457135      5.3601344387894532      8.9070194516009398
   340   1      9.8757936820406762      1.8401150873186498      8.8799524825308449
   341   1      10.006692213950661      5.2650170843945299      8.9336181540231525
   342   1      15.841473355002917      1.7718190007976311      9.0132939208334282
   343   1      15.710311299888104      5.4063561795549715      9.1674751154679015
   344   1      21.570697852457904       1.842391681208069      9.0200625309380271
   345   1      21.726607705135315       5.560131467172182      9.1313316523678321
   346   1       27.35297750063307      1.6437051636181244      8.9707550521264583
   347   1       27.26171455383335      5.3309275316078581      8.9809911481799833
   348   1      33.235837693232213      1.7434703610470386      9.1518143244809078
   349   1       33.26504484247841      5.1762156155533994       9.074108984830664
   350   1      38.976075092525591      1.5279755242549022      9.3363273515433569
   351   1      38.923380721480001      5.2980856811234425      9.1942174302042687
   352   1      44.706531975527852       1.766190525702495      9.1348229215631775
   353   1      44.643834132984189      5.3503600641821674      9.3204504428591441
   354   1      50.526258152558249       1.900168618937446      9.4442711657619398
   355   1       50.53556929850712       5.254835271112043      9.4387930042556167
   356   1        56.1848698056451       1.623057698612326      9.3481784793793068
   357   1      56.315063811169935      5.1860634805995538      9.3828636922298987
   358   1      4.2656531138121325      5.3395730010133509      14.654247472708368