dump/Fe_1350_20/steps_1 (written by ASE) 

1980 	 atoms 
1  atom types
0.0      28.699999999999999  xlo xhi
0.0      28.699999999999999  ylo yhi
0.0      28.699999999999999  zlo zhi


Atoms 

     1   1    0.011990885428146527     0.04808898575301046      28.518388000088123
     2   1      1.1537222277137278      1.5978122003407629      1.4229834317844601
     3   1      28.558025648873713      3.1309232604058064      28.499561158010685
     4   1      1.2378099524601571      4.1988403676101127      1.3567997112134991
     5   1      28.654669631880868      5.7826233122940431      28.615825581470901
     6   1      1.5469924176797349      6.9968899659944803      1.4407135108462734
     7   1     0.23954834433134287      8.8708078813528513     0.40783937549583571
     8   1      2.7386155770681193      8.7826704295425913      28.677407141863316
     9   1      28.689606785514854      11.297803585962255     0.34118421804889631
    10   1      1.3744413890238443      12.923884525082814      1.3478848735327904
    11   1      28.652163733900977      14.281804248131438    0.060142785336961324
    12   1      1.0619028072757026      15.891558932002518      1.4962115524727557
    13   1      28.583392611262827      17.356735447227024      28.631969678725511
    14   1      1.1619699266780805      18.690166770525966      1.3621235024188658
    15   1      28.641956369158752      20.218529833695996      28.382774061255848
    16   1      1.2210662811019251      21.576046642857438       1.460390362513714
    17   1       28.54765218193646      23.126002780279535      28.492787394174684
    18   1      1.2266559059834896      24.192872020411297      1.3513587150319364
    19   1      28.599854976025213       25.79907253683545      28.695799193032144
    20   1      1.4101235121956082       27.24013622106725      1.3287945785912596
    21   1      2.8051149280914385     0.15471970232453033     0.22842633847186566
    22   1      4.5067864512101945      1.4330904053244458      1.3413089705237093
    23   1      2.9242431557445689      2.8588943233418376      28.586515421984444
    24   1      4.4796406991607061      4.0597201241028635      1.2366505749780345
    25   1      2.9417848411792482      5.3732607537607135    0.092572075238024465
    26   1      4.0360867052813507      6.8520244211202677      1.4595044494369986
    27   1      4.2179685698455556      10.097301959829929       1.528867785354292
    28   1      2.6054222659393318      11.364005495970813     0.16909618228709161
    29   1       4.210883764294751      12.799467563331014      1.3200089054672624
    30   1       2.543392070147469      14.348540856674342     0.12540659962644449
    31   1      4.1522290574734138      15.673113666092942      1.5706936820616861
    32   1       2.771276625746327      17.274837077939573    0.031096029020341039
    33   1      4.1901485455900378      18.589825736502299      1.4754822960940936
    34   1      2.5127730798569252       20.06788685749531     0.27452762654377216
    35   1      4.0960498251868671      21.482046268874914      1.3950247708194743
    36   1       2.732688852537307      23.055237254262821    0.012297985659222379
    37   1      4.2918663600798714      24.811542162490749      1.4725166239044483
    38   1      2.8892786563490231      25.835527970901499      28.590514499653608
    39   1      4.2790768994531518      27.260411040347002      1.5064935788195608
    40   1      5.9467457965156836    0.084094270404581895      28.527955884080981
    41   1      7.2966604202763437      1.3141201699540146      1.5701275978218276
    42   1      6.0381864238595373      2.7411136135156324     0.07700675654016334
    43   1      7.2641392963125133      4.2801576939621979      1.3521791127377805
    44   1      5.7045762680440708      5.6951740149117773       28.55575586678475
    45   1      7.2240967026745286      7.1320121705031791      1.4913837756387576
    46   1      5.7248213527612197       8.420513511254498      28.505824814803578
    47   1      7.1382487863725457       9.781480782801685      1.5643460854546434
    48   1      5.7501287862894586      11.322842646589423     0.11956073871898522
    49   1      7.0989577820795384      12.916625461197141      1.4184129169807205
    50   1      5.6939748951790881      14.145130649896243    0.021504065712940706
    51   1      7.1032388288242849      15.745038768267678      1.5291580471445498
    52   1      5.6195522172202592      17.122584889051112     0.19241846804485471
    53   1      6.9779233614753844      18.775604373306731      1.4920048266656059
    54   1        5.50209014761126      20.091464074522776      0.1861871428288055
    55   1      6.8482846652262275      21.589466927902926      1.5341156816381505
    56   1      5.5688664676102801      22.836561890827152    0.036056326611503528
    57   1      7.2003304358488336      24.336886548856882      1.4336246430648647
    58   1      5.9276813090225096      25.881230632780408      0.1577309624680992
    59   1      7.3607834330405533      27.308145897393207      1.6110839468344904
    60   1      8.5586373844916697     0.13260790098446473     0.06542007056681319
    61   1      10.129885551639273      1.4502362934439368      1.4576174301019249
    62   1      8.5330684862907127      2.8963137942168324       28.67273743217071
    63   1      10.125965990978631      4.2577704662290055      1.5223453433606675
    64   1      8.7093441634587538       5.589946085394037      28.585503693644089
    65   1      10.053929131898645      7.1790264079111576      1.3706218575270677
    66   1      8.6738225089593364      8.5731819033501964    0.020777949309547246
    67   1      10.121610615070701      9.9964160942887546      1.3225625185637904
    68   1      8.5054979898528718      11.457894556333772     0.18216046590531496
    69   1      10.018526701185031      12.965428340930664      1.4976310196002154
    70   1      8.4999174743548096      14.336061532074224        0.12216300494988
    71   1      9.7825640295849592      15.935081661956097      1.6630417439396188
    72   1      8.3942141058020958      17.245047985215404     0.36843021542028981
    73   1      10.054571502623604       18.66494444001583      1.4139259998183775
    74   1      8.5466502103460513      20.253587853408263        0.13637719405408
    75   1      10.065576965834916      21.625144872407358       1.291895947037959
    76   1      8.6440885574423501      22.988434892186589    0.012019484995448698
    77   1      9.8923447014366932       24.32608682303178      1.3595203517146148
    78   1      8.6412129132575313      25.946670451511775    0.016232739676843261
    79   1      9.8813953225875615      27.294320272301857      1.4314581962544122
    80   1      11.453497814404113      28.571762124045012    0.024877779716859987
    81   1      12.900810232671533      1.5291712777535733      1.5190703504298084
    82   1      11.475466093779309      2.7367748703901982       28.55821313268358
    83   1      11.586434329256065      5.5418535133829394     0.15674564304291605
    84   1      13.053252832273916      7.3562865068851755      1.3525537499357825
    85   1      11.500329239476541      8.6672692176991522    0.035652388067489833
    86   1      12.843799262817619      10.522616534771474      1.4209052262334814
    87   1      11.504114707317918      11.594973620650748    0.066295260783056267
    88   1      13.093685097727823      13.120290697883007      1.4028115274334598
    89   1      11.534681854158265      14.458255993287937    0.060919846922013195
    90   1      13.150144533109179      15.884132316955844      1.4124134628706537
    91   1      11.282757653039127       17.31209511811182    0.056078162980554777
    92   1      12.816608604262308      18.560778080859993      1.3574855716561161
    93   1      11.447235683307138      20.092804661164166    0.031473810234854134
    94   1      12.822753940440306      21.506182173529574      1.5295155435695507
    95   1      11.572067099953502      22.754939233050397    0.016987267252761729
    96   1      12.875150465355121      24.203973887740073      1.6087517777867664
    97   1      11.357851222914222      25.758177909985182    0.092186311080251965
    98   1       13.13967169148904      27.091926372353175      1.3603292158490266
    99   1       14.19840923194521      28.621640608680313    0.059106884729453565
   100   1       15.78508469972671       1.388569531178325      1.4973722871151052
   101   1      14.418344407261618      2.7718704053564367      28.536150836381839
   102   1       15.67843403176637      4.0370422556983598      1.6425707683488668
   103   1      14.594978120732664      5.6163609060754496     0.12878424367465874
   104   1      15.910329865022151      7.3638067156814504      1.4193143029917568
   105   1      14.213833400403351       8.818572198601224      28.612014298161178
   106   1       15.99647615278203      10.444769412561538      1.3176395742769045
   107   1       14.34498561388933      11.564345482097036      28.635356480244557
   108   1       15.84263993878835      13.049827301196402      1.4967413370193525
   109   1      14.628366830011945      14.421696250504565      28.499906976303723
   110   1      16.020904632492314      15.783266884407656      1.2572490095426014
   111   1       14.33870412990769      17.405836657825791      28.591153453073773
   112   1      15.724142524339678      18.718045677249844      1.3660418593301742
   113   1      14.433904897003879       19.88753749126165    0.020358658150678357
   114   1      15.889260961915761      21.467404359273448      1.5579299432605807
   115   1      14.398251801558713      22.606872890411324      28.518530677263605
   116   1      15.642685916344124      24.234015011893227      1.3198386097623815
   117   1       14.29488330661836      25.606385469104488    0.039769521504194848
   118   1      15.858489086436574      27.193993793804342      1.4919426121122112
   119   1      16.979110463580465    0.019402341827630541      28.639195401190694
   120   1      18.501790660764094      1.4894222430232851      1.4978271481152881
   121   1      17.054484464040147      3.0818275885907065       28.61896888845958
   122   1      18.474712199486024      4.2117617036815309        1.29288724288781
   123   1      16.979241205109815      5.6428659112918753     0.20265285535239164
   124   1      18.627659078133846       7.303498892067716       1.373827975372546
   125   1      17.362901540375656      8.8016299511880245    0.025577683962455907
   126   1      18.745946018043199      10.040912296477805      1.4060860805731186
   127   1      17.290835730610649      11.472969364714556       28.47008883325967
   128   1       18.76889135779135      12.994364220671615      1.3349107254257895
   129   1      17.524369973043232      14.326452360603705       28.69974225302775
   130   1      18.909891935986263      15.670527518934341      1.4363609087398557
   131   1      17.473398818378183      17.311215691486236      28.694340298660691
   132   1      18.797746972471867      18.703422959611142       1.365208716169388
   133   1       17.12966056744585      20.037661779534623      28.695247732581343
   134   1      18.700457743634455      21.417243429191966      1.1661831263843521
   135   1      17.529759311271999      23.015470997662327      28.577860708706172
   136   1      18.911493528741474      24.184972905572099      1.2057451319336114
   137   1      17.332463476678345      25.858815375516055     0.13641954363748698
   138   1      18.503528092605464      27.383420406919264      1.4922077266613316
   139   1       20.14549261839009      28.558903714063124      28.614116201183037
   140   1      21.453057851464994      1.4429410207245259      1.5620176689477043
   141   1       20.18611409088043      2.7262301051968074       28.62352755338182
   142   1      21.623422913386111      4.3871562484845272      1.4609826847332676
   143   1      20.151729917459701      5.6093922942346159    0.060749359207159036
   144   1      21.655405001719146      7.0760739498366405      1.5349592960672218
   145   1      20.273257802700837      8.4854118416926134     0.11218018676347583
   146   1      21.755039452934923      10.083241832618272      1.4064664806088327
   147   1       20.33501967589109      11.390562214487097      28.640230903868883
   148   1      21.225680345492659      13.012548601559386       1.291529061919674
   149   1      20.075790069336918      14.370259993374175      28.468676350698971
   150   1      21.715491961523046      15.867695620908668      1.2132153707734443
   151   1      20.088825909989787      17.381872713719428      28.698076755807527
   152   1      21.616863226132971      18.613549325525231      1.4944197781508815
   153   1      20.373510952925674      19.981772300744389    0.039117538514812943
   154   1      21.624406172818453      21.525137201992187      1.2297066284609641
   155   1      20.177114230567476      22.947453263201599      28.545901743753831
   156   1      21.629179019340441      24.218190834883156      1.5351943032773989
   157   1      20.168141292853818      25.801370945662782      28.607264366201534
   158   1      21.738482949296728      27.095341540494299       1.300075681456893
   159   1      22.991755430729874       28.65375105819064      28.536742643026486
   160   1      24.304438476916491      1.2782687066637219       1.425897666460185
   161   1      22.995019677167683      2.7842396904129481     0.17423994782697047
   162   1      24.444591548225635      4.3739689432225273      1.2706682851686091
   163   1      22.968583460180604      5.6753528070827741      28.662963890670188
   164   1      24.402754111587587      6.9888406522072906      1.3414337962351166
   165   1      23.157365228229985       8.444879234722551     0.18268820715489928
   166   1      24.223272433620913      10.223293087251443      1.7466574646876198
   167   1        23.0493777514558      11.430726100426185      28.691220574583923
   168   1      24.410484880258757      13.105544752119973      1.5157088071201421
   169   1      22.879163851224387      14.273979639854517      28.497132042357286
   170   1      24.430763270895344      16.065036074821951      1.2982397833322026
   171   1       23.14934780117272      17.341316587814685      28.438176441999239
   172   1      24.567435154663038      18.790534458192017      1.0818687172026893
   173   1       23.09850331934928      20.046817325246955      28.627107919338201
   174   1      24.435725553757678      21.588210340499661      1.1169715190488894
   175   1      22.853859957067591      23.001401282079819      28.643151965480016
   176   1       24.34707224648006      24.165122012272711      1.4541399880927306
   177   1      23.113184386922999       25.77068692810175      28.637315010730166
   178   1      24.459831050480311      27.198124688898865      1.4403133843404237
   179   1      25.983797444987157      28.687686768258374      28.631772914289954
   180   1      27.229906027253257      1.3951325222735713      1.3885365225663124
   181   1      25.633994095647115      2.6000933160059407      28.583214143462932
   182   1      27.074864370040128      4.3388833265268518      1.5169980459129537
   183   1      26.069629186474945      5.6022440621718825      28.405865057252672
   184   1      27.067564855769231      7.0480186620541971      1.2407736073769806
   185   1      25.678648125937407      8.7407172368029578     0.33391488572439082
   186   1      27.025282663243214       9.857677905206593      1.7393995528552633
   187   1       25.65410308837426      11.549535099544437     0.16803084134429577
   188   1      27.447292787312481      13.008212831932616      1.3202323576791164
   189   1      25.840683711099352      14.288388552728694      28.601143009156701
   190   1      27.148919468772867      15.719272857580735      1.5073618529244752
   191   1      25.973240590611081      17.208662298687916      28.515077781607889
   192   1      27.145707730129669      18.922496786086167      1.1513014338238017
   193   1      25.887267106914798      20.232077045707253      28.284712743876398
   194   1      27.427935667308812      21.616726415603196      1.2485755602779596
   195   1      25.841216775532477      23.001842917100905      28.488939161563721
   196   1      27.350181002773176      24.455086058664747      1.5767098605250802
   197   1      25.877981719641561      25.833527567473887      28.640700779707814
   198   1      27.095836546359784      27.234286730317066      1.4755401898226992
   199   1       28.54449035323681     0.13950971633078102      2.7187893713514075
   200   1      1.4534122952713919      1.4068429649794658      4.1354705860086254
   201   1      28.450794003467493      2.8510242801401331      2.7768490204929885
   202   1      1.4373116273887501      3.9694824026655238      4.2524011233587089
   203   1     0.10200185743501652      5.7610298511996723      2.9137337003593937
   204   1      1.2687738496570791      7.1423779399084228      4.4032499787049675
   205   1      28.699697300186756      8.5520580727280233      2.9376482221495173
   206   1      1.2939222484178234      9.9713720306545426      4.3500558322006206
   207   1   0.0083736480718025301      11.360793070567629      2.9203027785147566
   208   1      1.2889925274689398      12.756708259630994      4.1503339843300422
   209   1      28.556912726132794       14.37137178894235      3.0344878062218386
   210   1      1.2746478233430958      15.854649341475351      4.1004107421232927
   211   1      28.638358713752794      17.430087083617394      2.9945989659154897
   212   1      1.4547101507532736      18.547575852431212      4.4700265038239779
   213   1      28.550556650824266      19.815352999259343      2.8598273711836657
   214   1      1.4739882630897014      21.499104543376003      4.3522839702420253
   215   1    0.036166274274309379       22.81325241322255      3.1023047610678169
   216   1      1.1750718557560536      24.428423425830584      4.3307483821443471
   217   1      28.652247005536854      26.035046322327755      2.8512439075170728
   218   1      1.3044380945754386       27.48924092808004      4.3164716035080826
   219   1      2.7753614927172396     0.23352699644116245       2.697530949453415
   220   1      4.3230390864223054      1.3486408585808365      4.2468534329329408
   221   1      3.1966557238864621       3.102123357441668       2.737214207546399
   222   1      4.3538896759417423      4.3524553929712049       4.752710966370377
   223   1       2.647165621047133      5.4256501613629036      2.9375439598293873
   224   1      4.3097044319068631      7.2170138118137146      3.9708380305059205
   225   1      2.5935262399872259      8.8275107621865789      2.6952266641870324
   226   1      4.1594366520001032       10.05408084208991      4.2864673047231356
   227   1        2.52033630591567      11.497858920397151      2.7570700638964349
   228   1      4.0175047602459584      12.826870841310278      4.1268783982150721
   229   1       2.564843094403455       14.21123950832038      2.7473840281098312
   230   1      3.8995746234727351       15.60605068497032      4.2429156230273621
   231   1       2.654676809975161       17.36244311165671      2.6038782294204692
   232   1      4.0888880067413016      18.465772994683007      4.2241965878000585
   233   1      2.8063111362862512      20.061422304329536      2.8283531622331548
   234   1      4.2854590834524071      21.502471677152283      4.1476442007435255
   235   1      2.8876489047149776      23.044658462078271      2.6716048758816329
   236   1      4.2244982399765032      24.552854040960515       4.093969480395879
   237   1      2.5363478781290394      25.857353621620831       2.765962505705692
   238   1      4.0129534827156492      27.235472998817684      4.1679009675357355
   239   1      5.6273853284087298       28.67613800364164       2.901268408282716
   240   1      7.2293973975446342      1.5125471080030835      4.3403431087829256
   241   1       5.727916453067734      2.8619251746826073      2.7948054222289893
   242   1      7.1513825545009695      4.2662765796162709      4.4098342901639311
   243   1      5.7646572267858032      5.4912427434821725      2.8217139530772655
   244   1      7.1907516385630776      7.2334686700833801      4.2499474990356756
   245   1      5.8529617153453559      8.5700052384932004      2.9451560738177158
   246   1      7.3925949859042195      9.9044387187999927      4.1914273149776369
   247   1      5.6777568450288207      11.524582504048576       2.882686807392465
   248   1      7.0673527037920545      12.693427781569282      4.4522184894181853
   249   1      5.6310195644360874      14.261355921717316      2.9635481174380183
   250   1      6.8612512057014632      15.868871393673178      4.3986341435566416
   251   1       5.646165914605227      17.143777377889329      2.8552689095933599
   252   1      7.0885877725714819      18.746564815905685      4.2769555318523969
   253   1      5.5088526142502561      20.061942603104399      2.7922329682417746
   254   1      6.8997935574122042      21.541742971546999      4.2278655232287221
   255   1      5.6040597906778036      23.030100878978242      2.9063104863148395
   256   1      7.2000846181488347      24.351818606320986      4.3054687178499087
   257   1      5.8963861965798952      25.954989451720181      2.8181010779736431
   258   1      7.3460936818672993      27.210295505201259      4.3109644326293743
   259   1      8.6840312631701533      28.649677016085509      2.9779765806133467
   260   1      10.133075092793254      1.5480015689237239      4.3141393174493761
   261   1      8.7688571768035963      2.9100917325209248      2.8879769634084118
   262   1      10.136416643256796      4.3376144925004008      4.3153121434408925
   263   1      8.5113622379830751      5.5279249743840628      2.9172058918315549
   264   1      10.059832622615611      7.3271249433776084      4.0497801356324761
   265   1       8.471396213549589      8.3630805998528022      2.6233084207666479
   266   1      10.056263698904546      9.9688516232960982      4.0894432174733746
   267   1      8.6562503636290611      11.592514937386289      2.6662271765902794
   268   1      10.015387067739569      13.191765805646432      4.3685903297890665
   269   1      8.4931932974276236      14.499864576226354      2.9702838080237033
   270   1      9.9822254525644478      15.825615143843764      4.2558877976028109
   271   1      8.4506055661872317      17.329627118038445      2.7741011060692919
   272   1      9.8623803643819308      18.753594364073646      4.3725210729001303
   273   1      8.5240930832124047        20.1747696883778      2.8669795279397023
   274   1      10.050429130655541      21.423767859481362      4.3026826762742187
   275   1        8.52175925430031      22.760066844178464      2.9031575641235721
   276   1      10.267118190195399      24.378943782120469      4.2362013485787324
   277   1      8.8051083014728064      25.756793257083935      2.9587136876254441
   278   1      10.043990273904612       27.25154785049784      4.1817151625390085
   279   1      11.698711189867149      28.643236114639468      2.7260527949578659
   280   1      13.029794129256404      1.4071837504384574      4.1971445871690456
   281   1      11.545047149852101      3.0349885201000011      2.7744985067500116
   282   1      13.743802406021798      3.6941364805153345      4.1850465310510847
   283   1      11.543836377501028       5.781209884932224      2.7566451269304038
   284   1      13.102755749506299      7.2847713081907388      4.2885852513859746
   285   1      11.457295420425821      8.5701656260487606      2.7920157157386143
   286   1       12.83135806099404      10.215566858636679      4.2163444354396846
   287   1      11.511757702199271      11.788740567042241      2.9811239166057608
   288   1      12.887137832479794      13.079106745052925      4.3819317438139196
   289   1      11.393829421470254      14.356598685615152      2.8081676792909427
   290   1      13.040768245008897      15.789802152043078      4.4250390947922558
   291   1      11.404845623520028      17.195996698185706      2.8035095697637629
   292   1      12.847700715705578      18.480162144112878      4.2826742910705056
   293   1      11.264980588763217       20.02132803822904      2.9108587105185295
   294   1      13.047204542413159      21.445312599816329      4.2012482524378898
   295   1      11.315776333535998      22.726564306176687      2.8599200921570942
   296   1       12.96256482225993      24.182844840416248      4.3021751375749746
   297   1      11.642783026349498      25.836551102839152       2.792635021718854
   298   1      12.872140895005705      27.272834867773689      4.2263991995594141
   299   1      14.245846491573724      28.545873297018289      2.8204315229513774
   300   1      15.523439790334596      1.8683744945606011      3.9243818991517352
   301   1      13.170519084065884      4.2083218450244591      1.4910311028640189
   302   1      15.992535684310935      4.2965421009504006      4.4139120198244122
   303   1      14.319909721365079      5.8725032519995244       2.807210072062333
   304   1      15.851288954532441      7.3020806032461625      4.3563835000105442
   305   1       14.42792393826574      8.9545536402853187      2.8624277389864132
   306   1        15.7875750920218      10.099880464333758       4.259696661641672
   307   1      14.362696412957725      11.647119992844303      3.0430535555522025
   308   1      15.965116162890753      13.055859117800074      3.9942410280390201
   309   1      14.427946009183939      14.577871479754798      3.0714212172752573
   310   1      16.031224015073402      16.018016274971654      4.3132469620118687
   311   1      14.342742608393699       17.27163788322046      2.9279142695996061
   312   1      15.569237886182671      18.638116836330909      4.4280213885533897
   313   1      14.344462319405828      20.040550120228929      2.5755966303021167
   314   1      15.709837891049165      21.414709705618069        4.15595317071796
   315   1       14.28352939194132      22.886875035745998      2.8803445284981906
   316   1      15.839097632907036      24.358663064824682      4.2103413531020033
   317   1      14.297229827804824       25.66437602183106      3.0264419852719193
   318   1       15.59123674157369       27.13892728627291      4.2730890582139036
   319   1      16.945938863113376    0.065102918453021741      3.0862422620881036
   320   1      18.672989939174172      1.5434112168871608      4.1553798186780329
   321   1      17.301052392184928      2.9623971547421561      2.7127141174014469
   322   1      18.331944063124499      4.4781589059079883      4.2906561153614158
   323   1      17.029478842311601      5.7746358172321806      2.7213153257582228
   324   1      18.736130312048815      7.2747700806760429      4.0924004610228923
   325   1      17.420822061013872      8.5595867102884551      2.7588349788784376
   326   1      18.944919488096158      10.061831646454458      4.3192275324003173
   327   1      17.321912755782396      11.544733038180128      3.0047844161783255
   328   1      18.979625706351396       13.03354020596497       4.181366001029863
   329   1       17.37560419996786      14.454963461341544       2.716526754412814
   330   1      18.845799744229371      15.947888284932807      4.2026231610939568
   331   1      17.136029401658654      17.398800037150131      2.6015048642946113
   332   1      18.995782468805565      18.682394333742337      4.3516323207055274
   333   1      17.322875573846126       19.98174990587135      2.8658806758237123
   334   1      18.742076107616043      21.397914935918514       3.965271039429854
   335   1      17.188661091739643      22.884991675494987      2.8789295391726815
   336   1      18.628918283421903      24.450496178793014       4.286155710982924
   337   1      17.409919603616967      25.666545562241037         2.7580480414916
   338   1      18.345625625022191      27.312682407702873      4.3721481333857399
   339   1      20.141333477958746      28.332613718978141      2.8959195994579567
   340   1      21.554541048246143      1.3548063330121745      4.1785089113652241
   341   1       19.91773525046872      2.9673801129754538      2.8097736823274766
   342   1      21.409679322141269      4.2228865681723899      4.2528572798454531
   343   1      19.963744579133689      5.7043025624842185      2.6970798078014244
   344   1      21.596238383025177      7.1391377336297186      4.1889599119942575
   345   1      20.336540028713056      8.5553205682070246      2.5465806084826346
   346   1      21.494298442418479      10.056480857350619      4.1555641051488674
   347   1      20.119206755504216      11.475630077978479      2.8981389777783799
   348   1      21.775954478285584      13.154165137462694      4.4070600164002247
   349   1      20.106114150721396      14.646462129776031      2.9706007671454246
   350   1      21.791459295266176      15.733472701956051      4.2959188735494855
   351   1      20.391847259252408      17.316816829556458      2.6145986896530644
   352   1      21.455889649708091      18.600829321557317      4.1468396023641745
   353   1      20.298439872476663      20.105094360056835      2.7443873242330592
   354   1      21.612561097454492      21.484692393243915      4.3022950721970359
   355   1      20.144961594865599      22.885208250230473      2.7384400962814754
   356   1      21.490167927689559      24.534008442414414      4.0879537313055341
   357   1      20.122458132105443      25.769193454395602      2.7039807701572602
   358   1      21.736067039265734      27.116204057730592      4.2540781452820307
   359   1      22.951958072862762      28.699135371294904      3.0715084565772912