dump/Fe_1350_20/steps_81 (written by ASE) 

1980 	 atoms 
1  atom types
0.0      28.699999999999999  xlo xhi
0.0      28.699999999999999  ylo yhi
0.0      28.699999999999999  zlo zhi


Atoms 

     1   1      2.9993537915143555      25.986425305599855      25.502469542064528
     2   1      1.2140705926831745      1.3556922737347019      1.2119215558342598
     3   1      24.716889822456118      4.5107709967834921      4.2470854814249952
     4   1       1.494705726274957      4.5915155311508355      1.5617687522514763
     5   1       1.482434147472067      4.2818121096018604      27.206062010014879
     6   1      1.4280662745868329      7.3094817800023195      1.5277288509700724
     7   1      28.599009655737547      8.6517224674178017      28.392536796475575
     8   1      2.8774825550398484      8.5256772573368096      28.537519667020678
     9   1      27.357252839244026      10.105340771531589       1.173985203569111
    10   1      1.4926717998823407      13.139918776129237      1.5363282764577217
    11   1    0.068924446063286043      14.252244696571708      28.564824988353212
    12   1      1.7346152114522755      15.795125938050802      1.2719536712881903
    13   1   0.0061511642230045937      19.906817049673212      28.591031751412093
    14   1      1.3453135206207223      18.571665434607663      1.4824500086745172
    15   1      1.5092507670692394      18.644276388506807      27.236567826499485
    16   1     0.41826042510074612      23.205015562493731       2.697506501171913
    17   1     0.27848207587167201      23.061030249947603    0.027465805439612721
    18   1      3.0937059222827439      25.939057152587491      28.352719784267713
    19   1      28.569517084182664    0.079167705521795348      25.864649885843626
    20   1      2.8047951113694007      28.675861894082505    0.081663593263863257
    21   1      1.4457698171999389      27.181312358063511      27.075122854791335
    22   1      2.6151821468802732      3.0129215079186764     0.26467609098496031
    23   1      4.1988958989256204      4.3086483848269861      27.380826266898453
    24   1      4.4421515547771149      4.3961151980914419      1.6249502595077385
    25   1      2.8162753636602154      5.6856913880967817      28.498035867079025
    26   1      4.1347760663461885      7.0844124988745971      1.2786392325062153
    27   1      4.2195115237665846      9.7078837318807025      1.3683959252022178
    28   1      2.9388356661011099      11.720049547014016      28.639718039561814
    29   1      2.7847011848572483       11.35459907285029      2.7630180264343052
    30   1      2.8679156122524896      14.289133257079797      28.579422178022998
    31   1      4.3360309746809147       16.09410819931124      1.5157995787655516
    32   1      2.9824067748093781      17.274744935263719      28.497759638029184
    33   1      4.4209829095625661      18.655943779703744      1.3622096497914185
    34   1      4.3140311027934137      21.727770113055634      27.399134303883841
    35   1      4.4765074599789001      21.554609601588862      1.4505366693387376
    36   1      1.5826095823186868      21.726497079010031       1.475657378696918
    37   1      2.9341627075578463      22.970487254886322      2.9879014956644459
    38   1      2.7742407066135026      23.377508191012968      28.541795847077058
    39   1      4.4478895053478587      26.987849530372998      1.3359738821409219
    40   1      5.5855710047006122      28.528824203976203      28.456626991518611
    41   1      6.9161060618200727      1.5226968793879327      1.4529426811034782
    42   1      5.9752159692737621      3.0438303924338959      28.661072702581851
    43   1      7.2842339159340801      4.5752044258857927       1.323954311248678
    44   1      5.5218182962861331      5.7080932436698228    0.084567311846785648
    45   1      7.3706041893658059      7.2466576890559589      1.2871977906146979
    46   1       5.688888702796528      8.5153744371071642    0.046610273844703502
    47   1      8.9254179548431605      8.6204653254828418      28.516846049620529
    48   1      5.9777566473590094      14.226349376480098    0.014126064053050422
    49   1      5.8512717164248658      14.501513313016325      2.7746435162016367
    50   1      4.3470970882730162      12.940892429521858       1.374287567558155
    51   1      8.6738122778046858      11.512821004784946      25.672894034854458
    52   1      5.6406500866144675      17.245634474104193      28.440170778397164
    53   1      7.0709086947758246      18.650551579176181      1.2830634789348554
    54   1      5.9423462752377292      20.013224052551092      28.516031077754469
    55   1      7.0216736197513772      21.317109983489136      1.5048483317312626
    56   1      5.9164598771495918      22.844716047219109      28.656438093640933
    57   1      7.0025463291815955      23.851110535499188      1.5292052666775249
    58   1      5.8352992676501589      25.995990419680467      28.543214126966653
    59   1      10.067815093161961      24.530286233314445       27.12578054604808
    60   1      8.3002858924785965     0.11461451004466872      0.1659253054958639
    61   1      10.069830391063181      1.2877878131226093      1.2709348595097139
    62   1      8.4587924969996067      2.8544312120230515    0.050990805630442664
    63   1      9.8599393388112784       4.259751119057996      1.2643119774108187
    64   1      8.5284910665866569      5.9388282332727158      28.630650533357855
    65   1      10.090505491512658      7.2446974384059395      1.2143332586059048
    66   1      7.2296757683028101      10.340933768139234      27.128070063752848
    67   1      10.123452320355138      10.018845213128033      1.3480131195915406
    68   1       7.158495494573696      12.986807330928997      1.6082000768487665
    69   1      10.151279878535496      13.016667431710658      1.5316440905546767
    70   1      8.6427284290810515      14.416857803860166     0.16226564068909968
    71   1      10.179518726594425      15.824652361664443      1.4538180336772595
    72   1      8.8256162567268852      17.336035319562239     0.18059513993789536
    73   1      10.449007708126185      18.649194780410369      1.4245106492011932
    74   1       8.595473766161847      20.028092766672327      28.668293326276444
    75   1      10.121401703705576      21.304897358058788      1.4623455761679662
    76   1       8.678719318123445      22.947893073406856       28.63027682850192
    77   1      8.4995051512610544      25.840090065052451      2.9116881977667073
    78   1       11.45598953631154    0.088486134478966763      2.9937072639507778
    79   1        12.9887476386115      1.2973139551966422      4.0099250806505706
    80   1      11.506017767055617      28.640354408585072      28.463116183199251
    81   1      15.908949752771154      1.5480035010273576      1.4821200867195203
    82   1      11.450785131295184      2.9097087848063614      28.577019459083477
    83   1      11.514547672076894      5.5224463672861424       28.66543453369626
    84   1      12.866202114504375       7.228136017726019      1.4366429526382698
    85   1      11.496188049657983      8.4771582254910083      28.464291250034766
    86   1      12.867309745898655      10.192782907735918      1.4075347074144371
    87   1       11.39564322607851       11.83151089672451      28.479619146344788
    88   1      13.169943677592965      13.214152365344932       1.319011960139586
    89   1      11.551865357631556      14.437262757750315      28.544789378226202
    90   1       12.95101697891455      15.628937792773257       1.337884882999151
    91   1      11.592845915099216      17.123354831643173      28.455866620095879
    92   1      12.850429205971739      18.448589890101605      1.4477187325335177
    93   1      11.712490778925853      20.038706074946901      28.460360604103315
    94   1      12.792477114773398      21.517857224834096       1.294496264847895
    95   1      11.426310727362274      22.944647163265792      28.592328979066906
    96   1       13.00971131536072      24.476990779129569      1.3764417520774246
    97   1      10.099444575660137       27.32174175271776      1.3016408243838107
    98   1      14.502697774392082     0.09938922579136833      2.5435822525722411
    99   1      15.762561139253647      1.4002418012649522      27.237958674128752
   100   1      12.948872297707901      27.193521879494089      27.374000036482002
   101   1      14.477819134643617      3.0195012638456995    0.058405479055125005
   102   1       15.75641793275889      4.4224017306923731      1.2915786203473989
   103   1       14.23183383354259      5.7785425181774599      28.485557001080227
   104   1      15.734099525576429      7.2871979970035454      1.2100746132467404
   105   1      14.257177460856507      8.5955447189049217      28.676719732638777
   106   1      15.607322848716208      10.115865114851651      1.1538088460014491
   107   1      14.274549019400965      11.836931071687397      28.593989014142039
   108   1      15.881360602633457      13.131360716040113       1.413777004035681
   109   1      14.550311711466472      14.404966836953911       28.68299018618443
   110   1      15.829904619649591      15.706341775361897      1.6744392913009853
   111   1      15.873137864143596      15.872606533441626      27.182647812374654
   112   1      14.491774966443696      17.068343001134899  0.00025325960046984619
   113   1      15.932208368637275      21.678065914179147      27.235719465296903
   114   1      12.893492692341818      21.676254565881202      27.139891103251514
   115   1      11.258934237270669      22.998215981739914      25.892700474466764
   116   1      14.297525387312374       25.88622410933176      28.662731563191389
   117   1      15.754220135928305      27.390903334020198      27.261288235793046
   118   1      15.874468096354764      27.169864769105757      1.4796141621428094
   119   1      18.466880452172653      1.5325538742385119      27.370849181159929
   120   1      17.525351646060383    0.098559081259327427     0.16426689513646123
   121   1      18.525293086411892      4.4398206219176135      27.241494706485128
   122   1      16.964506047825669      5.9986532239013277      2.5737651317077734
   123   1      17.150490247573323      5.7054770564188555      28.519411036789183
   124   1      18.777675468886407      7.1902808044492419      1.3204433236305704
   125   1      17.302437535803371      8.5497760857717449      28.527718986609479
   126   1      18.691061123678978      9.9427388153710066      1.4655758556046847
   127   1      17.094597996550974      11.719110902493183      28.636390601891783
   128   1      16.965032498482934      11.468062733023865      2.5116504019093884
   129   1      17.038023572256382      14.574441854960542      28.472355286632471
   130   1      18.746509937407119      16.028004519218097      4.2910879256698449
   131   1      17.250696761522253      16.972986191243894      28.551920070072683
   132   1      15.968676675923467      18.720790978125056      4.2451955996573583
   133   1      18.770555499397901      21.611494270405124      1.4507994702015925
   134   1      17.196780983871971      22.736928678494657       2.825685624066546
   135   1      17.239105256052195      22.994569004655908  0.00010532092978792206
   136   1      20.315324828091384      25.803118176391681      2.9030264484083954
   137   1      17.188812130656213      25.907603982785432      28.689795914436278
   138   1      18.641055337706103      26.836356603629447      1.6420281846185967
   139   1      21.582685324129443       1.285995468914688      1.5229007413716422
   140   1      23.024046535504453      2.7441325026069103      28.675101502379768
   141   1      20.094305612296292      2.7280054158836253     0.30655999147561508
   142   1      25.907314834827925      5.9743952504093158      2.8663127376753783
   143   1      20.129804036561186      5.6297649911896599    0.042589451851801949
   144   1       20.01814093764883      5.8292143190334098      2.7810145184813675
   145   1       20.00459556208207      8.3981550144755168      28.488084499937589
   146   1      21.486657374289756      10.104467822446443      1.1055075034319077
   147   1      20.180760170184882      11.587544617297294      28.452363739491094
   148   1      21.412366818378963       12.96627138308529      1.1884610821570605
   149   1      18.529516686279969       12.89024474702488      27.184821579818262
   150   1      20.026607324619942      17.355183004760885      28.682597941272363
   151   1      18.745160954045684      15.724629422136296      1.2770302554065311
   152   1      20.221106752831979      17.324618134551013       2.720810219253837
   153   1      20.106710945408217      20.034601619979622      2.7991894493447593
   154   1      21.716502477232702      21.478229841957038      1.3617732736536374
   155   1      20.060931690822777      22.965854484900664   0.0018355989900669552
   156   1      21.652230232526673      24.061354293493295      1.5201175771428317
   157   1      20.143531993505292      25.615960118360704    0.077726806210773547
   158   1       21.44301062304833       27.24444306879348      1.4565831881776503
   159   1      24.467127950670889      1.4630471246914782      1.3694001606737065
   160   1      27.346836824766925       27.04955477314175      1.4837253863263655
   161   1      22.860892253091183      28.667921853113942      2.6873317364984568
   162   1      24.474378105633722       4.337522248054178       27.31068267415181
   163   1      22.800115066444917      5.5446759117184614    0.091129527583643635
   164   1       25.84601199004846      5.7441867750167042    0.017957873571026538
   165   1      23.083545789299261      8.5652454859662832       28.56235799229637
   166   1      22.949279898052236       8.706119981771117      2.8610625758382628
   167   1      22.862755394337523       11.43706039151331       28.51378119099433
   168   1      24.326635334423969      13.117992170615597      1.3710817900207315
   169   1      22.882210964356087       14.27911457102026        28.6449358779318
   170   1      24.192079348919069       15.78031319874281       1.213281166795116
   171   1      22.940855025312818      17.468771949883418      28.694900837672833
   172   1      21.869699459617177      18.864492526056942      1.6363590359059557
   173   1      22.715239290821497      20.133677661037726      28.397883293113338
   174   1      24.395359891382032      21.447150069618072       1.412511982125727
   175   1      22.952961517304608      22.937265809767815      28.561318081854125
   176   1      24.325531673262063      24.355565568064112      1.2828229471179371
   177   1      23.183723792997093      25.981903894010966      28.689811962530982
   178   1      24.750192565230329      27.241767777783657      1.3845319322323002
   179   1      24.540831218489885      27.234631564231059      27.423314315170785
   180   1      25.728587867823528      2.8762516657644093      2.6766688585361984
   181   1      22.996279607707134      5.6938114274537162      25.711442855751184
   182   1      26.004929497984268      2.8707276663083863      28.660074014821078
   183   1      24.471259578677856      4.1304972527516872      1.3423688720942097
   184   1      27.087764631418061      7.4445399265567858      1.3898093327927752
   185   1      27.116143073909953      7.1033835143047623      27.134240340174259
   186   1      25.736698583828261      8.7648274440573921       28.57238790808119
   187   1      25.631426067592933      11.398228426887785      28.598082866266509
   188   1      28.492655877299995      11.567664962901812      28.476027191908727
   189   1      27.179237379598604      12.930981797336722      1.4871097915838973
   190   1      27.406775938609695      15.688345467066618      1.3840042197639832
   191   1      25.818964665862666      17.260589101266081      28.692796045610184
   192   1      25.803771023533642      20.233882021236919      28.609603021481817
   193   1      24.382221299306462      18.707331670148594      1.5996031588160105
   194   1      27.409790783291822      21.475865469569147      1.2495072236530846
   195   1      25.806590817502208      22.895228098197023      28.580451910509098
   196   1      27.264703846890324      24.194449891118499      1.2797998382283247
   197   1      25.813577660668617      25.763088916252219    0.048172619096101245
   198   1      28.667678524290377      25.508418525722341       2.699434600060306
   199   1      25.739561042160048      28.673779861135309      2.7565049075677504
   200   1      1.3120221622356569       1.493305329224643      4.0465320853802211
   201   1      2.7694154019209796      5.7599269161015956      5.8982294478076227
   202   1   0.0029090185874571018      2.7395875162060301      5.9335552692135103
   203   1      28.597096987833499      5.7289210188337263      2.8021125527911637
   204   1      1.2851555358285738      7.1761604915791413       4.314237068596027
   205   1       28.65357170090083      8.7736528513793353      2.6628220791909141
   206   1      1.2247942452316918      9.8244277734232508       4.387676015982211
   207   1    0.074308284975382721      11.448141506060901      2.9987660629200645
   208   1      1.6491524908380841      12.818100895381772      4.2879478319557718
   209   1     0.10750108948367477      14.432152894836259      2.7260547083264317
   210   1       2.674423916718105      17.308887228229739      5.7629964787780281
   211   1      28.453641467925749      17.293201686281421       3.074700518002492
   212   1      1.4777408370167007      18.950962221557351      4.2413276693037005
   213   1    0.029326921406176713      19.937643662452771       2.805199355335481
   214   1      27.284983711327783      21.501079941866799      4.0999901661048339
   215   1      1.5457520966321023      24.511749118399166      4.2486461897756955
   216   1      2.8870531840904983      26.044803488843829      5.8100079882857374
   217   1       1.812565169653761      24.573040657625576      1.5086155407709152
   218   1      1.6117639724650208      27.320835782586023      4.1594100397203846
   219   1      2.8568718022660278   0.0038627789408566815      2.6411720641276033
   220   1      4.1614117909733235      1.2918532662530071      4.1665375504522002
   221   1      2.8221686596289697      2.8384547601300927      2.6118169726380973
   222   1      4.3208309750265093      4.4679658640501287      4.1298349397085188
   223   1       2.960952693631115      5.8566968544906093      2.9870171774438172
   224   1      4.4001807598832645      7.2229872003086841      4.5190994481321241
   225   1      2.7133348662820937      8.5054023756459394      3.1348341160432405
   226   1      4.3193836762966171      10.316713243793346      4.3540019780531116
   227   1       1.316262515009943      9.9623507176937132     0.86119458677025029
   228   1      5.7002680219254627      11.596029742109716      5.7813209074436767
   229   1      2.8890485391645155       14.29312418499115       2.936604173761495
   230   1      4.4705378311409421      15.947320187700932      4.2881245255297245
   231   1      2.7646009409337147      17.338017472351705      2.9423141200878238
   232   1      2.8794547088759312      19.951717253910385      6.1078696392003256
   233   1       2.772591521624054      20.117066965807791      2.7179704004733591
   234   1      2.7743370699033902      20.077083156972417    0.059801073337177831
   235   1      27.095623397573888      21.686708854589703      7.0081799841123402
   236   1      5.7368730612283745      22.881494175634671      3.0507640939195571
   237   1      1.5016937417893952      26.930886865596221        1.66846432102402
   238   1      4.6266950702167726      27.187549017156993      4.2269801190495704
   239   1      4.3681976499408641      1.4000338149984712      1.1306707564064127
   240   1      7.1666106977968633      1.5882050827779166      4.2479839986311871
   241   1      5.8359163153890812      2.8534432331155006      3.0017543476319051
   242   1      7.3071332276923986      4.4505688362380145      4.1445767495079266
   243   1      5.7008503469144021      6.1063927088070997      2.7670154230373423
   244   1      7.2284567174400882      7.3524727040024782      4.2776170959202737
   245   1      5.4337858148099585       8.667034448485035      3.0568411636604211
   246   1       5.690187585715142       11.58410321537243       2.872287332660413
   247   1      4.1843759073934876      12.952094268050658      4.1968170101189255
   248   1      7.1548250745426216       12.83995649601262      4.2514354583966645
   249   1      7.0386820343213525      15.907259474224386      1.1243477800147621
   250   1      7.2852642590196188      15.747036795441364      4.5840905587213108
   251   1      5.8017932208527103      17.408248943655448      3.0472043321591666
   252   1      7.1139618908657969      18.633047004083721      4.5300332587630345
   253   1      5.5655813528191969      20.171217761132073      3.1953525467317254
   254   1      7.4287229476988248      21.483356675423174      4.4573096154991561
   255   1      4.4979392309704211       24.44690341922702      1.5032481844866976
   256   1      7.0018690966455921      27.244769595280065      4.2260688413892611
   257   1      4.0749794206647998      24.643278307592869      4.4677803218827172
   258   1      8.5492068877910246    0.061096123942533005      2.7793637399605235
   259   1      6.7963147912033364      27.489632533058369      1.4033244688929929
   260   1      9.8223836343924145       1.420747190428143      4.4062994982064252
   261   1        8.82330340028766      2.7326193630350195       2.739048793736707
   262   1      10.069471264116288      4.2103941443273394      4.1464232859177512
   263   1      8.7511618555213335      5.7913361944065445      2.7649184114947158
   264   1      10.073923740269196      6.9789016229254015      4.3705420476858556
   265   1      8.8598126677147651      8.8192080921674822      2.8692456062359275
   266   1      10.261084278810783      9.8836931568075421      4.3279029279520298
   267   1      8.7110510721908163      11.451759602023026      2.8089689897083061
   268   1       8.389670761581149      11.312885993083645      5.5791331137975808
   269   1       8.608191985864174      14.567562970635832      2.8461905892925419
   270   1       10.08733121303084       15.70423114949047      4.3184023745613747
   271   1      8.3487235728061826      17.210351480688303      2.8333514753783327
   272   1      9.9293064422946102       18.61785254257671      4.1463611428460307
   273   1      8.5456298823811441      19.901098710565027      2.6466857897611691
   274   1      10.101692010227618      24.468680697860865      1.4540903584312894
   275   1       8.745039749284226      22.808137398429093      2.5462079328253595
   276   1      8.7143327386918568      25.665073711113312      8.7612822345701229
   277   1      9.9072315511493247      24.217562219332844      4.1672653312030414
   278   1      8.5467941932875817      25.752878826324377      5.8901705417374783
   279   1      13.075954988759092       1.492247459599833      1.3225466787066589
   280   1      14.387338964105437      2.9871512555575817      2.7671142876121508
   281   1      11.363764636561021      2.8972888548611211      5.6936965194712554
   282   1      11.484710491601756      2.7588490663541632      2.7173977090321837
   283   1      11.345356186590855       5.518502703255904      2.7415047105279315
   284   1      12.755402848011068      7.2003343916432474      4.1647888620488596
   285   1       11.48099593456651      8.4673627048617366      2.7945225840021988
   286   1      11.513900392030012      11.622613203157167      2.6407723006161379
   287   1      10.132600236480267      12.896282585644487      4.2854512387479788
   288   1      14.342256702844377       11.37045412285082      5.8182277768474462
   289   1      11.494258517807721      14.373481241953494      2.8219329690619235
   290   1      12.802964453985153      15.733971571239183      4.4529660105811857
   291   1      11.527017001270304      17.206649061076423      2.9871958984085865
   292   1      12.970822023221983      18.425829929589082      4.2419175068852004
   293   1      11.565522113317254      20.233685012594584      2.7347756531579637
   294   1      17.105009751963443      17.218054296703436       2.953444151157044
   295   1      13.009740249738236      21.631677910537089       7.010519422549101
   296   1      15.564309779924542      21.460593033039107      4.2995262075006551
   297   1      11.522377520423758      25.907477247271718      2.8313209380687914
   298   1      13.060460741322697      24.354157897141629      7.1533473229582745
   299   1      15.837976274349424      1.4990270861547643      4.2127960671455789
   300   1      17.295957760930026      3.0799753203562203      2.9139179605515619
   301   1      12.887272286841496      4.1306967602840547      1.2975870002131606
   302   1      15.744176586084455      4.6114840356856774      4.0683514647003429
   303   1      14.124551813994179      5.8118729803427165      2.7095969353604916
   304   1      15.750321198756668      7.4050083903979047      4.0955297833062732
   305   1      14.224198918722136       8.851667734754658       2.784213397105749
   306   1      15.598187162312884      10.001348920785601       4.266197739246457
   307   1      14.410270518791592      11.723894609576092      2.6899015628875063
   308   1      15.904408821145365      12.914198405637709      7.0553570868261186
   309   1      14.418747145146186      14.397926429889027      2.9194712208360096
   310   1      17.264565752742474      14.529545944502685      3.0443142293798306
   311   1      17.261749320782165      20.241209724619896      28.560539473198489
   312   1      15.697786815381622      15.691668330282059      4.3653270398348596
   313   1      14.295010819660247      17.139051477812714      2.8718888402916738
   314   1      15.805769013852213      18.603793183248339      1.3755738385980987
   315   1      14.348968875911439      22.895526178272707      2.3847725666520998
   316   1      17.336262625360931      22.857604782944431      5.8002598189776702
   317   1      14.307792905130613      25.706601415324808       2.752195562579653
   318   1      15.794449890718296      27.436943519178858      4.1453337119640157
   319   1      17.405875813866452      28.654858396675724      2.7068669239451535
   320   1       18.72618453931058      1.5566818347871854      4.1927315147532083
   321   1      18.688812706593879       1.557014916299466      1.6115632363272179
   322   1      18.729003393138957      4.3942139166549339      4.2526436309454674
   323   1       18.83268183607332      7.4059407623971216       4.089982175135999
   324   1      18.563593695583734      4.3761304648309514      1.4431358841820372
   325   1      17.158687595380343      8.8609764125297996      2.6767773112404241
   326   1       18.52727461638267      10.213059524991671      3.8337599684171964
   327   1      15.910996436749866      12.866638776833225      4.1705257468154544
   328   1       18.50882845441425      12.996259005421518      4.0535534622362626
   329   1      18.569654476429449      13.205711934635771      1.2064657708191702
   330   1      20.241430716442924      14.405113009983115      5.5318648841018083
   331   1      17.379598631239023      17.385842589949885      5.6899226288414075
   332   1      18.610804891915318      18.643184053626609      4.0703721596715221
   333   1      19.991198937140108      19.811684210069917      5.7070106514132082
   334   1      19.935776944188653      22.791860762772028      5.5292325906568536
   335   1      14.363874820955369      20.072406646613295       2.779800697051813
   336   1      18.533194012284792      24.156957696850547      1.6514772413699121
   337   1      15.775949694693217      24.390822047264106      1.2684824345214223
   338   1       16.96396288427735       25.74411943393596      2.7554919342850765
   339   1      20.020087642577213      28.501072306519237      2.8673575725055791
   340   1       22.95140137163893      5.8655462365327402      2.8112243926310256
   341   1      20.034816147913833      3.1239366234523929      2.9131867174511754
   342   1       21.57397845450873      4.4649243817329491      4.0028129982830851
   343   1      21.600147319283963      4.1382258742509643      1.5296880412224256
   344   1      21.471623760042476      7.1736811224929271      4.0118798678911585
   345   1         20.379787410656       8.610569518198357      2.5470846161175364
   346   1      21.329970954427885      10.168645043879968      3.9590797833883826
   347   1      19.956228774569464      11.743212421958621      2.5759626615946454
   348   1      22.852855671769682      11.306919912795422      5.4362446244398841
   349   1      20.213021715662062      14.466114291054032      2.6902434253290384
   350   1      23.089758548196787      14.193832827631601      5.7672094900340509
   351   1      21.578942906136255      15.892868517219384      1.1151408930512625
   352   1      22.951755667571391      19.940948092120049      5.7775536237671847
   353   1      18.557922043050983      21.309697852960021      4.3128897442245062
   354   1      23.006067447043414      22.764314169370447      5.8965249537556836
   355   1      20.178798766244938      22.854585948550934      2.9818323896488894
   356   1      21.635371694695468      24.338741884399191      4.3290930893139574
   357   1      18.474133662181632      27.199879952446349      4.3510852541094307
   358   1       21.68082563955247      27.401600833493944      4.1761112766229394
   359   1      24.397857272585053      1.3704428031583678       4.062013351274377