dump/Fe_1350_20/steps_31 (written by ASE) 

1980 	 atoms 
1  atom types
0.0      28.699999999999999  xlo xhi
0.0      28.699999999999999  ylo yhi
0.0      28.699999999999999  zlo zhi


Atoms 

     1   1      28.588367012818324      28.651733454208774     0.27554972595796684
     2   1      1.4656450321869661      1.2590571952553784      1.5624190137028111
     3   1       27.12850884297794      1.2604749356014495      1.3795556242890137
     4   1      1.3495889499121627      4.3255475222811999      1.5172019633709966
     5   1      28.635167508528685      5.6461394341594202      28.583081916394761
     6   1      1.1778056249685636      7.3264588338435974       1.289585293620199
     7   1      28.666986728268611       8.845278599562274      28.654039496714891
     8   1      2.9056383835689941       8.617231462672347      28.681038739198943
     9   1      28.663264921829043      11.555613935556519      28.595399427272227
    10   1       1.354961924057559      12.845361992679509      1.4927035081070585
    11   1   0.0066269941885392465      14.171986714416949      28.519728821775974
    12   1      1.4145869643281794      15.717395513185476      1.4284221469405123
    13   1    0.048646222910102357      19.926970733537704      28.695599890529994
    14   1      1.0640079861006935      18.516803761120247      1.6354914534943976
    15   1      1.2427531746650766      18.499597789784833      27.155307926848483
    16   1      1.5692304347283794      21.482808372987975      1.3374694101169451
    17   1      28.605770162801665      22.993762564118839    0.023112991051368673
    18   1      2.6309437708169074      25.909613216387928  0.00088964836701279596
    19   1      1.3396508849674804      27.357218296938971      27.307032428039889
    20   1      1.4573519895097677       27.04504270719006      1.5819602049067492
    21   1      2.9744181703260848      28.511624052458629     0.12436085063129675
    22   1      4.0377505049647748       1.646817221753293      1.4140685361823104
    23   1      2.7816215123342327      3.1384795776097141      28.585561909128405
    24   1      4.1837601138469438      4.2091072552716087      1.4059287705020542
    25   1       2.811812777021216      5.6689497709300749      28.610484032258189
    26   1      4.2211685388691658      7.1091761303058645      1.5575847778905307
    27   1      4.1264786362926218      9.9793225934095275      1.3703650933432312
    28   1      2.9356137467593713      11.194247214390666      28.587541597812692
    29   1      2.5827781167873693       11.62202575578792      2.9338228787782419
    30   1      2.7838609002096422      14.190510001152184    0.097826952680634377
    31   1      4.4067535749799003      15.698702100209287      1.3951475392625072
    32   1      2.8576999726692978      17.106915058346384     0.30485119259968818
    33   1      4.2343785266341376      18.485852575836546      1.3966273844009729
    34   1      2.7657349457502614      19.863416672451041   0.0058066578659804538
    35   1      4.3547490819807377      21.609862074262352      1.3437207225246655
    36   1      2.7226737816476572      22.931843378606175       28.52258554120279
    37   1      4.2254615382609542      24.224302805125504      1.3420818347585743
    38   1       1.348944726950712      24.389677600968763      27.379475269288807
    39   1      4.4621327414096505      26.998248376305682      1.3723696241239289
    40   1      5.5057775040360264      28.626826428564772      28.682994060573307
    41   1      7.2708289629118408      1.5518681940709143      1.5514627498304092
    42   1       5.558783111835579      2.9566514960450667      28.666708168841598
    43   1      7.4475246444928089      4.1794997907529945      1.2727376306769318
    44   1      5.8618740817622852      5.9376100173897743      28.535935453486406
    45   1      7.2755982964356676      7.0506798632423511      1.5975096157700484
    46   1      5.7059547307151028      8.4457810050145685   0.0091164184333479194
    47   1      8.5831785260090463      8.5965447448298331     0.20772783233993539
    48   1      5.7347851384384736      14.086543716987238    0.012916322009971266
    49   1      5.7472904604282986      14.251875971808095       2.894560373280556
    50   1      3.8918689886488735      12.747203165701047      1.3917001924252292
    51   1      8.8362279495668012      11.378620692905612      25.784280418732514
    52   1      5.8212478949944062      17.230369858561208       0.171922256017467
    53   1        7.15603330738496      18.552549429841147      1.5421258611769855
    54   1      5.8959759900561206      20.224090003262692   0.0064544176310732931
    55   1      7.1136567184803754      21.503663695204462       1.452042608070927
    56   1      5.7378976561164139      22.937915442595948      28.676627212036284
    57   1      7.3118712046834959      24.414125342195167      1.0855208753356345
    58   1      5.7668089283049673        25.6899597104774      28.359608553172812
    59   1       8.510916374973986      26.087036901912406      28.483355704243994
    60   1      8.7905856018521824     0.08336049291478001      28.630335182761797
    61   1      9.8946187172676314      1.4068489549089123      1.4709400146428728
    62   1      8.7242713081325913      2.8645335369822313       28.45546478584879
    63   1      10.241573777912459      4.1523297821742009      1.4849397265822191
    64   1      8.7696255469550604       5.638474101863177      28.688457702609941
    65   1       10.04884843989643      7.0572254136958152      1.5886637944218596
    66   1      7.1257506377635513      10.029349810224938      27.234278928311415
    67   1       10.08727456052822      10.058711079970116      1.6090440317196693
    68   1      7.3600186695690999      12.782118349076221      1.3731986761880075
    69   1      10.056702837841661      12.869527082126025      1.5107552206410786
    70   1      8.6452353265729087       14.23425577458184      28.558395976927788
    71   1      10.019551199539535      15.837370324322389       1.427610551894247
    72   1       8.626720469035762      17.445770759814643     0.01982666094427258
    73   1      10.322050677133177      18.641134605866466      1.3849751597667925
    74   1       8.642991993337569      20.291146722617935   0.0051333693195374465
    75   1      9.9996101992393722      21.555017749085629      1.3716726559329804
    76   1      8.7642638567563989      22.863478671174143      28.519909688008781
    77   1       9.855718291457503      24.322240316489271      1.3600626682890833
    78   1       10.09413517625952      27.256860671439991      1.4003314033031067
    79   1      11.657380240438183       28.55022050587063      2.6167467555608366
    80   1      11.258327182592462     0.18960675546510578      28.670827128077878
    81   1      14.558756755596395      2.6287373508205634      2.5643408351236512
    82   1      11.620467936112572      2.5917983410423857      28.453528567399928
    83   1      11.609157493064192       5.651471095483247    0.010065277230319233
    84   1      13.073853382873388      7.2022374751407288      1.5581517374221909
    85   1       11.58986767800234       8.520985127637708      0.0858341092812792
    86   1      13.126327945519243      9.9255996480704862      1.4948504920140862
    87   1       11.71456138892073      11.290743457373679    0.071338842054774504
    88   1      12.891938894261997      12.812422080728176       1.513902052127696
    89   1      11.434310143395786      14.071907595794157      28.625502068699468
    90   1      12.936843019221627      15.735796505534944      1.3426322300398401
    91   1      11.381312786860125      17.110765785643228     0.15723941139548281
    92   1      12.845827384866267      18.620192161894046      1.7030997091526714
    93   1       11.73848614265513      19.836596928590431        28.6018892612244
    94   1      12.804821786270633       21.58939659990682      1.3179230212400515
    95   1      11.407993929758646      23.009989284908784    0.050934733526651038
    96   1      13.031214536106415      24.481605303557274      1.2233454243019877
    97   1      10.206989104774044      27.321077101272536      27.179150029103191
    98   1      13.044262940260232      27.086906106778823      1.0410532210276748
    99   1      14.232139865943342      28.597807058390263    0.077527759948691322
   100   1      15.828757048630731      1.2250161772471189       1.093287347160105
   101   1      14.286223975000658      2.8087716424317146      28.639166606427285
   102   1      15.759162368244921       4.263304368754147      1.5197899281705187
   103   1      14.463765451084788      5.9282712465145915     0.13041768798015016
   104   1      15.937702629044292      7.2643336880815905      1.5783385228594737
   105   1      14.468805390673024       8.486372691556241      0.1433536018105202
   106   1      15.806204671835214      10.101249785267235      1.4017594919355465
   107   1      14.368695197985716      11.680635505206881      0.2404712968102217
   108   1      15.979933657767166      13.035060741468516      1.5010883512367865
   109   1      14.454014116206102      14.278153414869946      28.449300833429636
   110   1      15.685256241616665       15.45996191142091      1.3038697277471769
   111   1      14.359763956128162      17.378354901740256    0.090638003468381925
   112   1      16.040953096172878      18.571976603232795      1.5919672197955155
   113   1      15.617708488243407      21.406141140066378       27.28227649648986
   114   1      14.407320113215587      19.826539016995596      28.691147690084708
   115   1      12.757365310576981      24.466763522398018       27.10608587334065
   116   1      15.713827781177418      24.446058245751217      1.1480490828326431
   117   1      14.551328576765387      25.843141553171666      28.305281260371231
   118   1      15.918561228302647      27.117307835201952      1.3292356534331693
   119   1      18.360235686724472      1.0025641783865025      27.253548047291577
   120   1      18.585328858897562      1.2968804482388576      1.3912816941754156
   121   1      17.080152718655498      2.7584203405942387     0.10430246473545149
   122   1      18.584377625243103      4.0372356972157739      1.4621681271518361
   123   1      17.182939933130982      5.6408230498641307     0.39850173233013475
   124   1      18.733450252526989      6.9227424749579454       1.562650898414722
   125   1      17.251247052980816      8.7693215895822121     0.25418553094356189
   126   1      18.960120667364873      10.022162386070702      1.4200446190749858
   127   1      17.355379615633787      11.416442299297845      28.591907627933161
   128   1      18.820651241101039      12.953460643287849      1.2573848021728382
   129   1      17.202605643169054      14.156428699677644       28.61124371747724
   130   1      18.565508349639906      15.578017408592373      1.3936292203830933
   131   1       16.85168341003946      17.157121892887645     0.20272896304841198
   132   1      18.527027630840614      18.936765749389846      1.4392458155885837
   133   1      16.947744766012601      20.057912693765036      28.648547415819138
   134   1      18.530098100138368      21.571468114420416      1.3099149658213498
   135   1      17.174999934034087      23.070053360179635     0.10917232240479954
   136   1      18.471515581618583      24.485780238120729       1.509381304718487
   137   1      17.182214389295687      25.741978921373292      28.504122002881417
   138   1      18.477757733602626      27.117276587523161      1.5151913271703497
   139   1      21.500841341334532      1.2174809966746911      1.4964549287114994
   140   1      22.978496349037606      2.6814200170342701     0.16629672858562106
   141   1      20.004210033616815      2.6712912452460515      28.640905762464261
   142   1      21.365056708657644      4.2014466318333561      1.4321211796521318
   143   1       20.15155056284377      5.4796044588282795       28.58877209916422
   144   1      21.512565748015444      6.8603215625585436      1.2636212447999242
   145   1      20.015280332398621      8.5328098613022139    0.097252657107185267
   146   1      21.278818178066629      9.9986922835246013      1.7134972121444556
   147   1      20.195293105143104      11.537616288911124    0.034148413753825942
   148   1      21.546433284225106      12.875673006804412      1.3697186200234335
   149   1      20.220111062525454        14.5520057356173      28.671882238283644
   150   1      21.564738142833292      16.037494143766935      1.5680534210282655
   151   1      20.221119312443669      17.272797454422264      28.644673643783538
   152   1      21.528192540836734      18.879477480422363       1.395163440649752
   153   1      20.062582534338837      20.301997496276073      28.395580195409465
   154   1      21.461105195456522      21.376870570716541      1.5554440289664615
   155   1      20.217570370609138      22.833085995025531      28.691244016584761
   156   1      21.482887678520608      24.337727079416144      1.4704794836874497
   157   1      20.145727543746087      25.727437909352751      28.648793940268746
   158   1      21.477447032849895       27.22691533097079      1.5168420554275719
   159   1      23.017502096355027      28.670346135932267      28.596555625951368
   160   1      27.217604639254134      27.303211190074364      1.6160748992873328
   161   1      23.220665914750967    0.024579340669822768      2.7525210349331797
   162   1      24.583382086131707      4.1249067442581397      27.466229176421791
   163   1      23.145266150352555      5.7039357451149746      28.486515576385234
   164   1      24.448699721160928      7.2084799020754513      1.4536078718328322
   165   1      22.716786020191527      8.5383180290353007      28.538810279816346
   166   1      24.456325741819526      9.8047281507359951       1.446644720197344
   167   1      22.855113626557447      11.247310533804944     0.07658893534346578
   168   1      24.388584796491575      12.718325905468635      1.3473462647528993
   169   1      23.078329427971727      14.297919195584617     0.27521141994915294
   170   1      24.478819040240879      15.833362954379064       1.502258566479314
   171   1      22.976089263328017      17.352136691054049   0.0072864094563556154
   172   1      23.176159191317137       20.18897502428797      3.0076578299340637
   173   1      23.027988613524084      20.024659896012864      28.623447358356003
   174   1      24.302362163088574      21.418494833947513      1.5267023625154694
   175   1      22.860460057108575      22.627978199500351      28.556956188247071
   176   1      24.445725104904717      24.314330023963361      1.3019274836671797
   177   1       22.81511035659036      25.620643690107855      28.611309994866502
   178   1      24.064472468006702      27.013249416727014      1.3885730489728185
   179   1      25.604668203051322      28.457188727273195      28.509441555132469
   180   1      24.462522528846574      4.5160022070944708      1.5829897961326538
   181   1      23.160904325314895      5.7197057719187834      25.692711471187391
   182   1       27.48277354942979      4.0932884187963658       1.445273317279691
   183   1      25.868173349764017        5.84045864337127     0.10851002835121323
   184   1      27.324916334993496       7.312775074996523      1.4868130020940042
   185   1      25.921611975200616      8.5900236310650726      28.600105445885326
   186   1      27.476014522385469       10.10528565655745      1.4227538791545513
   187   1      25.907312258361276      11.302905739311029     0.04845389024964103
   188   1      27.112285270343396      12.732831391454372      1.4103819242758162
   189   1      25.698369500547489      14.526765720110136      28.517608253443512
   190   1      27.228486764299515      15.726220942893564      1.2814912016536248
   191   1      25.837029879809347      17.081363346653244      28.630342372755209
   192   1      25.705197746926729      20.387924323362601    0.057317378903894753
   193   1      24.578299801932587      18.634016290486759      1.2982881851190891
   194   1      27.212578306767554      21.383322470053663      1.5497727765588944
   195   1      25.842810093237894      22.881375967627573    0.063429995995511537
   196   1      27.147536026436935      24.670460283113083      1.6273327530980293
   197   1      25.571516279717361      25.639123990655651      28.606820183504865
   198   1    0.037224912966792464      25.643037871236547      3.0259841681279518
   199   1      25.670951293299996      28.426553121334809      2.9120680322395875
   200   1      1.3919867500752605      1.0836503203827996      4.3816444193051174
   201   1      2.8195391942722061      5.7260990407255834      5.7928644635940794
   202   1      28.675572491739842      2.3846648200563316      5.7763513928842976
   203   1    0.036296188772098933      5.8366096929758866      2.7530833660906304
   204   1      1.4832230067270986       6.970959329905086      4.2644054827984199
   205   1    0.037939220932935912      8.7129319750580656      2.8807679469709613
   206   1       1.616510956530897      9.8519674680651761      4.3521661624253731
   207   1    0.093483026558374954      11.302602479716663      3.0919016631002183
   208   1      1.1903380379024506      13.003217622436436      4.3040676415408097
   209   1      28.641357743685152      14.332143250139072      2.9113692585649704
   210   1      1.3896401262766187      15.699057920002344       4.333398025139898
   211   1      28.658516834211554      17.099490939201011      3.0111855392952402
   212   1      1.5299321218990718       18.81368393798726      4.1141941394254848
   213   1    0.074345229145844002      20.116053919023763      2.9903301972996048
   214   1       1.541104125337962      21.500747740667766      3.9983712297631011
   215   1       28.47337410010924      23.009130662946426      2.7869997860338902
   216   1      2.7031004723282108      25.651565597557347      5.6434282304291266
   217   1      1.4020652745843114      24.324705161254897      1.4767339268091966
   218   1      1.4782829492445002      27.171921266576312      4.5430894993957445
   219   1      2.7102000375593116      28.418036458600156      2.8674687336571978
   220   1      4.1679606921946952      1.4610906322660631      4.1806788235530812
   221   1      2.5256898175002336       2.665428877128682      3.0846477983100913
   222   1      4.2383164060800427      4.3681911296543365      4.4383622875475233
   223   1      2.8429044715423184      5.6116023704045999      3.0136839083146989
   224   1      4.2509425883256506      7.1949802981915711      4.1737399491951166
   225   1      2.7361594174290422       8.592101468417475      2.7918430356619073
   226   1      4.1442776636409988      10.077870250692021      4.4408601603682616
   227   1      1.4976813776877522      10.042056120943165      1.4187549326210716
   228   1      5.7265009445733455      11.199160827351045      5.5968456374025388
   229   1      2.8367613504418854      14.415556049849485      2.7462319489546543
   230   1      4.3302988334756067      15.761261355126704      4.2630825516092701
   231   1      2.8899069794241443      17.166127326021908      3.0195524892246373
   232   1      3.9689326255925521      18.949383235924373      4.2540958648844569
   233   1      2.8456087347195553      20.023548338773558      2.5381948434811994
   234   1      4.1831816942191153      21.338533476089729      3.9656865745436933
   235   1      2.8502761055337262      22.933951708338721      2.8580366618306572
   236   1      4.2633721897227712      24.277584523931235      4.4119737598143578
   237   1      2.9210380465452763      25.558728932704501      2.9907787315012988
   238   1      4.4814697195447524      26.887432145400883      4.2553058011529608
   239   1      5.5872348089095327    0.013850535282654317       2.654930266241637
   240   1      7.1505769575020164      1.3435199550442918      4.2590187425316701
   241   1      5.6829296297663063      3.1309522705164516      2.8762200755066591
   242   1      7.4518438483650078      4.3576808182377631      4.0644111574545896
   243   1      5.5617106444288886      5.6341887109383944      3.0603786620423925
   244   1      7.0935403690350007      7.1088793111309254      4.2356494737458705
   245   1      5.9424116412468369      8.5496060720097429      2.7540127229609412
   246   1       5.564366509235386       11.42055184001711      2.7670529614213812
   247   1      4.2050044413553165      12.839337386900668      4.2179096449149363
   248   1      7.2160651000129645      12.590242289571449      4.1191389158677536
   249   1      7.1490201095802517      15.672873470309804      1.3810971987256486
   250   1       7.186622669425069      16.145539000432258      4.3914334898668548
   251   1      5.6138260292214515      17.376939594130683       2.865165508328424
   252   1      7.3570552132563902      18.697671425349437        4.51756254526933
   253   1      5.8144198930454873      20.034082914729645      2.9337129927891117
   254   1      7.2114730428600984      21.487063959649923      4.2970829668002573
   255   1      5.8367950160911226      22.956965444892919      3.0420630561580868
   256   1      7.0590207126869355      24.505024283206104      4.2517988043522994
   257   1      5.7469626858866487      25.388565258413443      2.5481967464176134
   258   1      8.4385490056996613      28.652948454513592      2.8836074891073835
   259   1      7.1151169520029667      27.311681114628929       1.391210022546715
   260   1      10.121496791402279      1.2877529936498038      4.2787813411332385
   261   1      8.5641748406043678      2.8053995109635128      2.8975604238532058
   262   1      10.114288683736357      4.5027443884629497      4.2032588460033828
   263   1      8.7561622412831515      5.7050611919404295      2.7801615451811128
   264   1      10.086533898361003       7.224227036163084      4.5158534910881363
   265   1      8.8635868405387104      8.5516909110015753      2.9702347034955809
   266   1      9.9886720039989321      10.295734212938148      4.6213401786192438
   267   1      8.5969063157568808      11.261769684241655      2.8727010228823127
   268   1      10.188038543120969      13.146425244079312      4.2580551212875282
   269   1      8.5829768137194034      14.127371016258298      2.7796377007147135
   270   1       9.845838602214279      15.725721116872318      4.3181509611742763
   271   1       8.410049862020557      17.210776809700814      2.8751407016489017
   272   1      9.9974588261679393      18.583944711833322      4.1221912672683239
   273   1      8.6501168894017173      20.283559306754423      2.9756597973339085
   274   1      11.486809901242863      23.196258559103818      2.7449034377823391
   275   1      8.4277076274790534      22.959371430636743      2.7341025400333581
   276   1      10.271039577427249      24.365516827534382      4.1891843551058772
   277   1      8.5996000122611846       25.84211285992064      2.7399700573643946
   278   1      10.067133828465435      26.982004793465229      4.3460305745189034
   279   1      12.891102949197084      1.3460178029436733      1.5453763372713964
   280   1      12.995969176074608      1.1241301913832111      4.2665710554133645
   281   1      11.582562861860563      2.7863082758785263      2.9215327896858545
   282   1      13.421033914082864      3.9951070250990535      4.3756068735555242
   283   1      11.746135132552627      5.7345473517886418      3.2030087462403065
   284   1      12.927108882717606      7.2133475913972456      4.4715253831029731
   285   1      11.528108942838049      8.5044459510791093      2.9290021571949221
   286   1      12.990955603366714      10.177740033833052      4.3874480715402466
   287   1      11.331589498766833      11.383487478575242      3.1228755660371825
   288   1      12.813085942027939      13.022268046112556      3.9812153502566989
   289   1      11.546049667492099      14.296361745807779       2.789038516783763
   290   1      13.128957514989082      15.795466674120608       4.269364123588991
   291   1      11.355649718233574      17.122706171195055      2.9546173385441836
   292   1      12.706213789889443      18.318724893858068      4.1523092163815258
   293   1      11.417577771962261      20.176633826915726      2.8397265722622929
   294   1      14.328036834593599      19.759412494474144      5.7693405630362271
   295   1      12.784220486748104      21.545241193826566      4.2977422641271827
   296   1      12.839092041094686      24.362881985373019      4.2099943862582654
   297   1      11.588808048808163      25.799468499310951       2.640844385127628
   298   1      12.830438149531217      27.211178409743237      4.3738310523103765
   299   1      14.439222282000436      28.512841846014599      2.8680084405234982
   300   1      15.607772087430837      1.3610254894590297      4.4432623658178168
   301   1      13.005949584527334      4.2886567655317567      1.1791390834973974
   302   1      15.903791677544994      4.2198077680111821      4.5244060447607088
   303   1      14.457055869552045      5.6014515903017594       3.038094586822889
   304   1      15.751996399720813      7.0318110977276103      4.2917663392851537
   305   1      14.469141850488063      8.6711202482580791      3.1681928600855764
   306   1      15.941634478428139      10.026101080289745      4.3337543775543814
   307   1       14.43979548717793      11.277101120110769      2.9205996446252458
   308   1      15.912637629477441      13.003394895707716      4.4854042629869806
   309   1      14.523080673306161      14.273348282974165      2.8767131882297412
   310   1      15.953727279154013      15.554480743436645      4.4566872749697408
   311   1      14.435516050141564      17.195936996190248      3.0235896780449529
   312   1      15.746035443545429      18.832161115201504      4.1105949602535699
   313   1      14.355849378082016      20.273404805678535      2.6655006196746052
   314   1      15.496221779275169      21.552350778064291      4.3247212675630706
   315   1      14.171807876519537      23.112222265407656      2.7486580366954518
   316   1      15.821076614600527      24.470066870668152      4.3749174001780702
   317   1      14.466617504269202      25.890749815226926      2.9001884192184466
   318   1      15.824457569430868      27.161340110764876      4.3010453724174784
   319   1      16.963647916505408      28.609931470334178      2.8879986914605107
   320   1      18.243518245054752       1.192523483393189      4.3195283954101349
   321   1      16.995912450157409      2.6272623624955824      2.9099579884930393
   322   1      18.410058869034938      4.1234620906020414      4.4418154599565973
   323   1      17.297813234133635      5.6354559227402783      2.9347138843805025
   324   1      18.729389257331285      7.1506725317721243      4.3409020508964495
   325   1      17.423422318004974       8.603684218431054      3.0014987315174841
   326   1      18.775429422335559      10.080019131735126      4.2951375938823375
   327   1      17.326817875635975      11.553696114849682      2.8239378831545436
   328   1      18.440364894267717      12.828993603495691      4.3894058872415718
   329   1      17.166430445080429      14.381585683309268      3.0066577638896219
   330   1       18.54593280246522      15.770968807830151      4.1945119359306346
   331   1      17.370661626475254      17.272752822544103      2.8573047075677094
   332   1      16.907750618623837      20.463143757335807      2.8945573598483159
   333   1      18.490873636812719      21.508097308028333      4.2883185228508784
   334   1      20.120044603888211      22.884960813666616      5.7466489858021195
   335   1      15.537184215380547      21.703112680883621      1.2221699025586643
   336   1      16.909218956123691      22.839410425401351      2.8036484913983153
   337   1      16.992831386195046      25.679352454148557      2.8604869178971395
   338   1      18.586019768878167      27.098362167078776      4.1458913478922108
   339   1      19.919484411007502      28.658268255872219      2.8811435593289252
   340   1      24.441810521148604      4.1282618951182579      4.2627653868912532
   341   1      19.930512753838091      2.6131475714164147      2.9745159506259657
   342   1      21.583388103271556      4.2811089248660759       4.197716887673117
   343   1      19.830410872398197      5.4693944354552801       3.148281380552318
   344   1       21.62112462105096      6.9957984659047954      4.1759808070555442
   345   1      20.150192415890462      8.3624567568636046       2.943422853343578
   346   1      21.341255162374384      10.193256455671007      4.3786252901067471
   347   1      20.113021589175489      11.776255183220343      2.8487102112300944
   348   1      21.533539698580611      12.862819764218216      4.4306249327038545
   349   1         20.040795965007      14.399446518635282      3.0463625408166632
   350   1      21.564089779474042      15.914496460281248      4.4495701423660012
   351   1      19.890556336138555      17.289015155020937       2.619412850112484
   352   1      22.818115968557972      19.895194534066921      5.7704576190114398
   353   1      18.594854385236445       18.73949141031089      4.2501102543977733
   354   1      22.852524643577787      22.671078051749834      5.8142515331768942
   355   1      19.986677577637106      23.034223506739551      2.7463494821991277
   356   1      21.473153069421059       24.24276336171123      4.2232341534299804
   357   1       20.07349031722611      25.737584713046704      2.8421585660260589
   358   1      21.660146019096594      26.940609805773082      4.2997528838114816
   359   1      24.399108872580801      1.3218836705050419      4.4096795510225126