dump/Fe_1350_20/steps_71 (written by ASE) 

1980 	 atoms 
1  atom types
0.0      28.699999999999999  xlo xhi
0.0      28.699999999999999  ylo yhi
0.0      28.699999999999999  zlo zhi


Atoms 

     1   1      28.578262615528008     0.07680528128403237     0.13823277276724188
     2   1      1.4612017020263115      1.5801710394055595      1.5934269742198026
     3   1      24.345773267155106       4.388386581545122       4.303624481986998
     4   1      1.3349876285040745      4.3659648105916364      1.2548699202629321
     5   1      1.3858077682538015      4.2528492287224493      27.198300248020729
     6   1      1.5456815946139146      7.1387893116794219      1.3948571444115039
     7   1      28.512904750075265      8.7349483812205158      28.668072295270306
     8   1      2.8277311231060374      8.4953376396313409      28.673485017304401
     9   1      27.049837563741264      10.232959971149135      1.4961427504450044
    10   1      1.4929292479581469      12.936294133010602      1.4889736184514848
    11   1      28.526669961249993      14.201062501987234      28.564077309276627
    12   1      1.2779898254026887      15.881428247005609      1.1707965118785075
    13   1      28.591047242437075      20.111956146132766      28.644272725378475
    14   1       1.311830145676449      18.603829911505454      1.4987413435258632
    15   1      1.4792732237460229      18.960384276592745      27.140292203732916
    16   1      1.3991880024878371      21.578116343470654      1.6124361677833816
    17   1    0.032787519692059112      23.062503608377167      28.569965455078975
    18   1      2.8193466554901074      25.937764541825057     0.20072715124420015
    19   1      1.3746152451975409      27.388821243977052      27.181360964294953
    20   1      1.4872028373898636      27.636588587602368      1.4410119157936612
    21   1        2.76399893354544     0.12671509812125797   0.0044486463715770639
    22   1      4.5797703765992539      1.5574522438700347      1.2715120396538957
    23   1      2.7112209279253787      2.8278176209470436      28.652602459668163
    24   1       4.359980504883521      4.1832505053892515      1.4551047097300849
    25   1      2.9223308303444351      5.4264696777374724      28.666000696493217
    26   1      4.3322045197804213      6.9522588466236028      1.1673323608925665
    27   1      4.2356378110127713      9.8495676531084762      1.3242917006454376
    28   1      3.0576889204580433      11.550652956295345      28.585701590205336
    29   1      3.2233983418807424      11.603773854306047      2.8962368935954386
    30   1       2.751797142335366      14.259317726884348      28.490327603470949
    31   1      4.5409409050461491      15.571568646188187       1.314345139262626
    32   1      2.8371627947584468      17.276044008312908      28.511943684551174
    33   1      4.1225639156191516      18.702378530645429      1.5798990156198545
    34   1       4.238982540897581      21.691863230863493      27.320458139194347
    35   1      4.5384449720129805       21.70644501184049      1.3648364210310657
    36   1      2.7244512064769335      23.153509057596548    0.078678080206623285
    37   1      2.9372722127464841      22.996455944988494      2.7445251167094393
    38   1      1.4842275847971369       24.60963010197802      27.233132595304671
    39   1        4.33927786137843      27.359163445665775      1.3401701285553815
    40   1      5.8988068483515192    0.076330763925024719      28.607800245510109
    41   1      7.2530023954606477      1.3534326401713193      1.3640104441348953
    42   1       5.766850566569186      2.8026418430934901      28.654657771710095
    43   1      7.2867826630812713      4.1794723306380233      1.5797342929907934
    44   1      5.7598036517306772      5.5646223517236963    0.015532736192812993
    45   1      7.1820543667786394      7.0809415085806657      1.1490527867626508
    46   1      5.6907496368678405      8.4965133379026145      28.664523356731227
    47   1       8.385726739551874      8.6749360556527577      28.664369502147995
    48   1      5.8202547221628862      14.246526760048853     0.12459769734649631
    49   1      5.7584545870240751      14.433259016047641      2.9183078689027075
    50   1      4.5231096888673381      12.869512170982738      1.4372760487867826
    51   1      8.5944555741773936       11.54739722144161      25.630923855516233
    52   1       5.556305893399422      17.347549664560535      28.661276386035894
    53   1      7.1113845716633506      18.511160974403531      1.3284580537124939
    54   1      5.6565588188850136      20.116634418518171     0.14082544477704467
    55   1      7.1606940301506601      21.655550189170231      1.1842808158843476
    56   1      5.9739807966991405      23.008564951306671      28.555022334284832
    57   1      7.1793371014055571      24.540950570194244      1.3567817817306831
    58   1      5.8467806835544396      25.769389245434745      28.604597220742111
    59   1      10.284775515650583      24.443134053083465      27.370520830356696
    60   1      8.5980914478591597      28.485989661328404      28.657709619373257
    61   1      9.9749872965903741      1.3573229858330029       1.591282792494235
    62   1      8.6819605969048119      2.7943995748745576     0.10877781784190574
    63   1      10.022984043270993       4.389207145151893      1.5942320005887711
    64   1      8.5706076055836782      5.7731304213210262      28.602448892758733
    65   1      9.9597367049798358      7.2669779326955348      1.3653050522735271
    66   1      7.0527249642546233      10.122214632321953      27.172339307188992
    67   1       9.991331720738021      10.083603659995834      1.5011321244863203
    68   1      7.2317309732592525      12.819603961641739       1.470916271752015
    69   1      10.127817662506768      12.867752545603398       1.483781453225971
    70   1      8.7059255344070152      14.494959274598246     0.04042299844068125
    71   1       10.03828854830549      15.970027811207467       1.356624861542842
    72   1      8.5401767041442174      17.148785771541853      28.598107341862647
    73   1      9.9665673100656225      18.796616209428951      1.2393970266340588
    74   1      8.3129482648946613      19.944818874249904    0.089985764400444021
    75   1      9.9616595005682615      21.525297280383253       1.469055456894079
    76   1      8.8832839330880056        22.8987378467687      28.658745513681907
    77   1      10.005452351973778      24.398965097356431      1.3294572737945598
    78   1      11.451446823669881      28.649650522410621      2.5953538181462581
    79   1      12.964217102787025      1.4677409393328431      4.3677990191375322
    80   1      11.381597704519573      28.658664902861247    0.063229980169194205
    81   1      15.604934151231042      1.3351774512755805      1.4308629511065079
    82   1      11.312395304868254      2.8668783200033539    0.017115239300539983
    83   1      11.310553123333921      5.7354048845100998     0.12692035177269639
    84   1      12.917766360339222      7.2074906004270778      1.3804706514948415
    85   1      11.371373664411889      8.5584135192795792      28.698254089209172
    86   1      12.901974355581226      10.052316771461708       1.363224557934803
    87   1       11.40359333962909      11.417910074745661    0.057417786978135169
    88   1      13.054793186797257      12.863574835669045      1.5311963069466286
    89   1      11.471653182349113      14.253956267063051     0.15079228382664944
    90   1      13.018280134866865      15.859060418332405      1.3991173962064876
    91   1      11.565267678285409      17.298920644828012     0.16028994019568482
    92   1      13.246558110949469      18.653394170554211      1.6734084344824167
    93   1      11.905770432828097      20.095399779428288    0.062534030696747303
    94   1      13.184899426196482      21.561398697630825      1.5650910647270266
    95   1      11.531051494182206       22.87283989916704   0.0079137639460668749
    96   1      12.756547056754128      24.430615743779484      1.4667687869114829
    97   1      9.8678669044172374      27.215745657424559      1.6140615560096749
    98   1      14.334807994630378      28.650759707474514      3.0265087671523072
    99   1      15.736011573301425      1.5412098632584186      27.251483033639605
   100   1      13.051678028907158      27.410013303848444      27.777475768429966
   101   1      14.265166558435535      3.0052463988078633      28.590217472461319
   102   1      15.761074893782698      4.4518811436517414       1.476742676399134
   103   1      14.411540779286907      5.6785904889007819      28.695102427045828
   104   1      16.063498366266412      7.2955388068734983      1.1058170659083546
   105   1      14.334378967167996      8.5299362009235313      28.622161303397437
   106   1       15.72105402835013      9.9330259814679298      1.2126070973239274
   107   1      14.218843779431467      11.442752811196698      28.691962031435146
   108   1      15.956815716109492      12.765193508296484      1.2442678142668901
   109   1      14.527639481129786      14.385110129492782     0.18429586975562401
   110   1      15.803053234673792      15.758308566252365      1.5567443374827916
   111   1       15.76149053991371      15.785110656429143      27.295440292803022
   112   1      14.444281722875818      17.363419614372653    0.047892650721496406
   113   1      16.063041175425756      21.587843973620373      27.065910912312347
   114   1      13.031231889813837      21.555349242185869      27.174945789394201
   115   1      11.545271603930049      22.899062118051681       25.91355108492624
   116   1      14.564182004291021      25.836473082420593    0.026627890236466084
   117   1      15.789156800837045      27.333032209501109      27.329400908794298
   118   1      15.674717962035917      27.492765533567084      1.5518897198939041
   119   1       18.46833802329591      1.4833735598990214      27.396092436500968
   120   1      17.285726442215836      28.652133633112129     0.12745465305312118
   121   1      18.614714035574767      4.4110341198519381      27.361993622146002
   122   1      17.239620818473352      5.8254021132907896      2.6311750557325695
   123   1      17.496945411044745      5.9723630835991273      28.592134426266643
   124   1      18.880409770479325      7.1071330209337686      1.4099267005129019
   125   1      17.339647228351417      8.6068031809755983      28.565831859145938
   126   1      18.629748428133265      10.197665737208025      1.4866149925709353
   127   1      17.104128169255237      11.311922071615083    0.039423364549190841
   128   1      17.050533797894087      11.373163793829367      2.7641812134781163
   129   1      17.263761700362117      14.209569979686826      28.599272251433135
   130   1      18.664391592329856       15.52988830045812      1.3720737801219804
   131   1      17.350810102963671      16.929172687395184        28.6526447162761
   132   1      18.845273351203183       18.78864831836103      1.3574455425619358
   133   1      17.481981653415072      20.139368233946541      28.578635478602841
   134   1      17.384411059618245      22.952023624617269      2.8594796240873275
   135   1      17.362501657911864      22.709211637810974    0.038156326844466668
   136   1      20.008962364632566      25.863754017159994      2.8488301719448832
   137   1       17.33095296652106      25.675489792146902     0.12381281309078536
   138   1      18.612466338768513      27.228793577863186      1.5003129108289393
   139   1      21.489790354746876      1.5286210946334107      1.2878733360973114
   140   1      22.989299441804398      2.8007287050801906      28.494318506106943
   141   1      20.163018204812261      2.7927271095729327   0.0049626754210521659
   142   1      25.563181036218161      5.9694835470326542      3.0056088890224562
   143   1      20.216312748310347      5.8296253815527379      28.561809642888111
   144   1      20.126203330941312      5.8330556151779964       2.706837363110945
   145   1      19.909963887130765      8.6266650716586781      28.593689670765801
   146   1       21.74951400625525      10.238340294540935       1.325760178570214
   147   1      20.091049655466922      11.484339415590391      28.556830961410427
   148   1      21.755060442759451      12.924463028561648      1.1930563609030744
   149   1       18.79736199654754      13.044849407448046      27.269824485765469
   150   1      21.727095648761313      15.852705648771982       1.449975322578267
   151   1      19.986836690229243      17.271564703908197     0.14244065334237344
   152   1      21.568992491874646      18.367905955936234      1.4545548159756883
   153   1      18.900678545569079      21.658340063352846      1.5482804473200069
   154   1      21.770569860445612      21.672952851216323      1.5216996628520409
   155   1      20.359974143546182      22.924528290850859      28.662591815634656
   156   1      21.631832492133618      24.232361408201132      1.4910702978267742
   157   1      20.151889697610162      25.946301144704886      28.625331282670587
   158   1      21.442438470144104      27.442252515103362      1.3098126861131718
   159   1       24.53582516817605      1.5687305034553221      1.4498735619411043
   160   1      27.149161240778195      27.338704879161771      1.3629526440601936
   161   1      22.958731051636789      28.598240903150213      3.0688421145543892
   162   1      24.376213783834707      4.4422732444789705      27.083844362511815
   163   1      22.898367585501113      5.5475887265390122      28.508523021465528
   164   1      25.740286582605311      5.5408668080619234      28.597228474199241
   165   1      22.656913450060181      8.4976333369083612      28.488797928735696
   166   1      23.098709003192731      8.6652329867104854      2.4040642693748051
   167   1      22.829365250761853      11.491992174806064      28.377247035401158
   168   1      24.194298944872337      13.151127439541114      1.5330655460366536
   169   1      22.862887051020429      14.520041951807757      28.555866223587888
   170   1      24.287486211211249      15.964289977125665      1.1257190178602177
   171   1       23.04289098771369      17.459197991256886      28.534203705579785
   172   1      22.964321409332943      20.260995709118244      2.7771222294854501
   173   1      22.939627114286711       20.19346587803981      28.632607541881853
   174   1      24.451375706869179      21.483362497507013      1.4071114731306564
   175   1      23.040250178423403      23.063530043054079       28.62080360867968
   176   1      24.218230336501303      24.392360307058741      1.4406129180446561
   177   1      22.833242805455622      25.896189315552657      28.455732346453203
   178   1      24.457130782068504      27.518728087582137      1.4498748592841946
   179   1      24.272832713856097      27.341044751121888       27.40611790147382
   180   1      26.086333637616246      2.7297117640221238      2.9697348901373197
   181   1      22.809939116931517      5.5712788152506647      25.685394001539976
   182   1      25.859233108169803      2.7183620095612033      28.689122064862325
   183   1      24.381005129513476      4.3783137347698338      1.5656949992464086
   184   1      27.389148332127409      6.9603977535969381      1.4716963351275925
   185   1      26.977296084382811       7.296120757578735       27.21085460939662
   186   1      25.808394166816896      8.4045495478928522     0.11751874552883232
   187   1      25.787737486482598      11.638743095331259        28.6045773826838
   188   1      28.688507830946545      11.386705113178865      28.503282356689482
   189   1      27.285647122765681      12.770355060766921      1.3157452746582405
   190   1      27.120790041158468      15.628824419836242      1.4776494391625765
   191   1       25.94090253589988      17.191555110050306      28.556727435361807
   192   1       25.90671597396852      20.190590364465365    0.079012865043932803
   193   1      24.327251746201657      18.701535739857828        1.35167902792657
   194   1      27.260381272849564      21.785376169794755      1.3284086360816447
   195   1      25.827725801167063      23.317575805986337      28.683846068612979
   196   1      27.272484077070636      24.541778111191249      1.3333632148797965
   197   1       25.33281225938212      25.822352459208112     0.12467562855649708
   198   1       28.65182662877346      25.890535862010999      2.7858857924396254
   199   1      25.923420654762879     0.12728829343200243      2.8235703545672641
   200   1       1.503307470780304      1.3014584615365481      4.2590398997971644
   201   1       2.850524375416581      5.7897446072869334      5.7807002513443537
   202   1     0.27963674777818193      2.6299212657307409      5.6310960514503563
   203   1     0.20083773529895613      5.6518999994188199      2.8010976726818626
   204   1      1.4410297812046344      7.2242213348228432      4.4090876363184046
   205   1    0.086833025200724709      8.5679111060528292       2.768411529365574
   206   1      1.3674156530539239        10.1339166604863      4.2138156378509111
   207   1       28.67567684020965      11.461044007698744      2.8773297675887157
   208   1      1.4765707003622661      12.779066346816116      4.2152120789371486
   209   1     0.18956895099546586      14.177101477360436      2.9007745672379537
   210   1      2.7241965361669602      17.209277046826138      5.6947341619995893
   211   1       28.63974857872417      17.044836848937905      2.9667889537494263
   212   1      1.3907786662390456      18.584391311040559      4.1504590731415938
   213   1      28.307081394468344      20.260770035616449      2.8522855316878237
   214   1      27.287647106404766      21.280663059235486      4.5482100781976387
   215   1      1.3020141575173301      24.115433402440974      4.0644214160495196
   216   1      2.9531816154074764      25.570384144867447      5.6376247086999545
   217   1      1.2385728139502603       24.29547406545327      1.5086919939106556
   218   1      1.4241581981019209      27.148790306323924      4.3410543193352877
   219   1      2.9934755637313306    0.037922833944606132       2.918674104036171
   220   1      4.5723952437670121      1.1884594943747402      4.3732380288015431
   221   1      3.0135571155288434      2.6698325841542534      3.0199482974865766
   222   1      4.3935178398381813      4.1917384515162581      4.3127782930741345
   223   1       3.085216947446511      5.9087382313210339      2.8545569877609762
   224   1      4.3421814180149285      7.1961252620081266      4.4447206540549811
   225   1      2.9210347240757701      8.5638685790824525      2.7168937238584814
   226   1      4.3301156206918607      9.8320443306277365       4.288009420042675
   227   1      1.3407348370663512      10.107362493968825      1.3657078016007851
   228   1      5.6596139319364269      11.601705592198213      5.5208496443826078
   229   1      2.9749930080418876      14.354350436277747      2.6350419322011365
   230   1      4.3268528304373399      15.875476816790068      4.2642987566471762
   231   1      2.7347365213338883      17.155127117569705      2.6797304921351492
   232   1      2.9013412535123719      20.191265997123796      5.5551852174319025
   233   1      2.7760870324609863      20.190129840632661      2.6902354449862393
   234   1      2.8566821549392025      19.966661501723934      28.668175069708912
   235   1       27.30516754050382       21.39295024154756      7.3535138088836005
   236   1      5.7635017087537603      23.071213901053344       2.880341740271751
   237   1      2.8529390852971361      25.974650381013959      2.7050420383697213
   238   1      4.3488949192194948      26.971471562296788      4.1645770964571991
   239   1      5.9204976074955979      28.684650368888757      2.8412096557712729
   240   1      7.2344416404233245      1.3507646907304898      4.2355006842838376
   241   1      5.7375780810349797      2.7362220157739903      2.9961101348900212
   242   1      7.2577141149278193      4.1965125612425371      4.1391757126290054
   243   1      5.6986990036128846       5.579996693025655      2.9698156457746263
   244   1      7.0781609634112597      6.9276197429208954      4.2171040447706352
   245   1      5.7181588098221665      8.1825983186033184      2.6212166657646314
   246   1       5.714748466355819       11.32790739090508      2.9037994994457956
   247   1      4.3750893887637128      12.859968980727832      4.2756672119588828
   248   1      7.1409592193809228       12.98338799072447      4.2204874851036616
   249   1      7.2238132753600208      15.880945415788922      1.3929748200576904
   250   1      7.0198723756194603      15.841984186914752      4.3312618275909101
   251   1      5.6407047860890547      17.291916114595924      2.5581788189992141
   252   1      7.0262739392388722      18.531060720671487      4.0151493763935564
   253   1      6.0663387549084709      20.235326484791816      2.7403182087590601
   254   1      7.2695758583681425       21.52747360574277      4.2881432988312387
   255   1      4.4069880302658104      24.421949373959297      1.2932794877476668
   256   1      7.5318007007423899      26.893581636705012      4.0383513854820974
   257   1      4.1628468384436124      24.343267532562162      4.1912208991646738
   258   1      8.6528376022850715      28.613164380318654      2.8941620011170608
   259   1      7.0589800244459537      27.199310600090559       1.482666348911686
   260   1      10.157709383175773      1.3663607901464854      4.4586721756735885
   261   1      8.7148065317326342      2.7278029282486385      2.9650934207992212
   262   1      10.037599819377791       4.195341138521278      4.2683203022143505
   263   1      8.6632764490559548      5.6059322171438382      2.9029316469614708
   264   1      10.002240838050252      6.8890859485584812      4.4463393068481833
   265   1      8.6074615439244866      8.5122531696533059      2.6938356981095226
   266   1       9.919747062467831      10.016486651224724      4.0290969983185301
   267   1      8.6342329188155684      11.416574170615082      2.8829647858039857
   268   1      8.6003528463690486      11.526325240974703      5.3255564631605194
   269   1      8.6271187424600075      14.239017711718173       2.711038568455125
   270   1      10.188004063300404      15.847775419268135      4.2687342271205724
   271   1      8.6618809021042722      17.262231250953654      2.6223019293052054
   272   1      9.9814843157592144      18.766619712021562      4.1982847266370875
   273   1      8.6770898599663031      20.235551852150461      2.6407800595640758
   274   1      11.356258175261972      22.972853416303533      2.6439344580604356
   275   1      8.7336709308084579      22.958531837140832      2.6620912616623844
   276   1      9.9458176360389992      24.430596275074791      7.0936732220149885
   277   1      9.8543940577113354      24.463972106021096      4.0979374203495622
   278   1      10.304760160638969      27.515491888624194      4.3540722028823611
   279   1      13.118735544953047      1.4844691664304137      1.4426119572252205
   280   1      14.447667481515253      3.0683303218462052      2.9068088055694106
   281   1      11.627353664525309      3.0721379831765838      5.7753091089859634
   282   1      11.632628235747942      2.8118645405031319       3.231734230447695
   283   1      11.372118635367359      5.8849199834001373      2.9915401780598248
   284   1      12.850983630875049      7.3059470829926454      4.4336723332110415
   285   1      11.472221892572046      8.5688396588128626      2.8281941866497959
   286   1      11.695454312356985      11.275931182667316      2.8980861009661982
   287   1      9.9338201975983154      12.948146931398945       4.159038094557844
   288   1      14.385692481967656      11.216046040887786      5.7502435235779226
   289   1      11.707359634749615      14.406663962796021      2.9594104287051026
   290   1      13.025339876502235      15.811309142279892      4.3419505964283882
   291   1      11.494612203998891        17.2968685467279      2.8815599192555919
   292   1      13.137067333834663      18.404902844554798       4.340164465179436
   293   1      11.397809404131118      20.035594796361075      2.6856100922080715
   294   1      16.001300651135733       18.45735111128975      4.4019144943384401
   295   1      14.446264454657843      20.036057275473169      5.6800761370389141
   296   1      16.017285915936778        21.7435563414809      4.3928485523837635
   297   1        11.4057107829346      25.889649885984845      2.7823246347339596
   298   1      12.975535230352072      24.401448857554964      7.0787847659937801
   299   1      15.971027356787681      1.4441494992500903      4.3214561777698437
   300   1      17.225697414485108       3.074985378862916      2.8270362005286973
   301   1      12.878191229184765      4.2988853061734256      1.4270039810780408
   302   1       15.90289841506852      4.5528575341958204      4.2998885858334095
   303   1      14.172906167128382      5.6486757006288455      2.9375932630464594
   304   1      15.650040199398276      7.1352512139612578      3.9864668200018856
   305   1      14.553665875511879      8.4994432124707373      2.6929629151439483
   306   1      15.692920534638693      9.8077029168499603      4.3794333289911265
   307   1      14.394656771767128      11.171113148880705      2.7803462461726771
   308   1       16.06300761373771      12.824109957573356      6.9789390482660512
   309   1      14.518676614451527      14.365877985824994      3.1374863262455515
   310   1      17.101253697950252      14.358474466669806      3.1367196960180728
   311   1      16.062661065424695      18.904706395405054      1.5353077140923803
   312   1      14.554364545608543      17.202436093395246       2.824966040566971
   313   1      14.710592508586876       20.08912731001935      3.1168494832419706
   314   1       17.36230763420108      20.084557927692064      3.0875154811710495
   315   1      14.664716011514146      22.947936892913273      2.8811133485947331
   316   1       17.38326657154257      23.178708606012872      5.6714636010855308
   317   1      14.364725490520955      25.637295190371159      2.7723221376655371
   318   1      15.818565194749763      27.068403597044632      4.3934497649640178
   319   1      17.084573404873101       28.66236041752062      2.8053287081107796
   320   1      18.584766379784615      1.5723451859839981      4.3497251519778661
   321   1      18.484946873800315      1.3383780403966514      1.5066319951782687
   322   1      18.796906733399208      4.5527488761628252      4.1825892827616604
   323   1      18.828096346765737      7.2942664564588462      4.2371284803481251
   324   1      18.721053477220195       4.388614545107143      1.4010370003207873
   325   1      17.254780733980127      8.4519247138747531      2.7733255219574051
   326   1      18.535107114273384      10.220226514479107      4.1072298382718699
   327   1      15.877854482680933       12.67837554700394       4.250174158748572
   328   1      18.648055788868191      12.887417875341125      4.4614463936333895
   329   1      18.545307315256835      12.766608851389156      1.3073165014486432
   330   1      19.067449405186927      15.530077626626346       4.382212490607408
   331   1      17.497657176921219       16.97749030493744      2.9078265307302527
   332   1      17.681956184017636      17.021802003065233      5.8455671282855022
   333   1      20.199465073611172      19.862224231003299      5.9650170158428804
   334   1      20.095508515713323      23.045563656734139      5.8840338245945256
   335   1      16.102814808393148      21.569066222279144      1.4587289408657389
   336   1      18.927806788686141      24.348778749595599      1.4937051003254054
   337   1      15.822998974260919      24.337995576725007      1.2884811999562193
   338   1      17.111660193190609       25.81428024266506      2.7346302754620839
   339   1      20.053653674255933     0.14182019992568945      2.9407129116788542
   340   1      22.986223123259848       5.728720997111501      2.8219895249265745
   341   1      20.134701896569428      2.8799343108416577      2.7248258760844468
   342   1      21.787630885592037      4.3427330425770174      4.2711738255566933
   343   1       21.50312802939311      4.2888092970022198      1.3250155187140993
   344   1      21.702890148383496      7.3077205423467566      4.5030083646756216
   345   1      20.094277780292536       8.625288332385507      2.6366085305315563
   346   1      21.555820722522501       9.796261551587456      4.3665701672697308
   347   1      20.330479663866086       11.24405819377683       2.614899974322646
   348   1      23.038079744658699       11.34602366975253      5.6089966013718184
   349   1      20.095997690453672      14.147052820538635      2.7459565824341197
   350   1       21.65959064570351      15.801356230394259      4.3943586781621979
   351   1      20.101444728136702      17.102622392622827      2.7401768745978754
   352   1      23.013085046097963      19.977892360226853      5.7664735995666296
   353   1      18.767327807916185      21.649873723956777      4.4390534722047201
   354   1      23.059855231692119      23.023008058573883      5.6529056635485624
   355   1       20.36960151780573      23.019146418485008      2.8803930800383566
   356   1      21.527300196815801      24.641944798503502       4.260406009937423
   357   1      18.520664726384499      27.159945821839379      4.1808825646267813
   358   1      21.334292642318214      27.257822005674637      4.2575687752128957
   359   1      24.338813609988264      1.5589829395914412      4.2888111487558378