dump/Fe_1350_20/steps_41 (written by ASE) 

1980 	 atoms 
1  atom types
0.0      28.699999999999999  xlo xhi
0.0      28.699999999999999  ylo yhi
0.0      28.699999999999999  zlo zhi


Atoms 

     1   1      28.500949348586747      28.634256709170547      28.641288231294244
     2   1      1.3256791396000736      1.5134034493641138      1.3336838644933882
     3   1      25.801883946278739      2.7788037287963543       2.871311008351793
     4   1      1.6766586456527872      4.3812514095800914       1.388091664904721
     5   1      1.4896399141452561      4.1029731754333127      27.238343746757948
     6   1       1.634682882429046      7.2445800249131933      1.3387311772150723
     7   1     0.33298256471966942      8.5800165877735388      28.618930396189118
     8   1      3.0451021634546707      8.9490261776085855      28.468508393339054
     9   1      27.851228959509683      10.375642717606526      1.0412844837725295
    10   1      1.3556412498148576      12.590898582722742      1.2330102120288078
    11   1      28.645378031598113      14.303472181150054       28.64976859867679
    12   1      1.4380074840146098      15.712584806533538      1.3963603818353365
    13   1     0.11807043345147868      20.231683317419577      28.654515153986299
    14   1      1.4923938666118273      18.613438923473431      1.4495203677363391
    15   1      1.4110250754817588      18.629289905383335      27.216725477161095
    16   1    0.036416104812464475      23.001493180984408      2.8643674942715398
    17   1      0.1541845830962334      22.990148192467657       28.53874056508376
    18   1      2.6738413068987077      25.851516086950156      28.596320880552504
    19   1      1.1998210702099794      27.081194103366823      27.170066279840086
    20   1      1.5214238471303596       27.68493711646008       1.502790748370683
    21   1      2.8677096984721397    0.020318378625872279      28.612467320824422
    22   1      4.5174773491011813      1.1660730001217308      1.4667806254938689
    23   1      2.9677177681609033      2.5585548267023479      28.532903400667237
    24   1      4.4104885700589334      4.2576363695987762      1.3886606156817491
    25   1      2.9282494008562274      5.6148740851716861      28.537143749398897
    26   1      4.3879799176914904      7.1699025495415407      1.2471840196224782
    27   1      4.5084442502262725      9.7479439587870917      1.2728817635805738
    28   1      3.2874036744140285      11.499016752748435    0.052242968741882195
    29   1      3.1058474220409771      11.558592380840373      2.5700037660124595
    30   1      2.8706229384893538      14.504803653530793      28.651379805528524
    31   1      4.3703993677027153      15.876128191043076      1.2912422725479811
    32   1       2.826773147633173      17.225446012530899     0.16624973668274381
    33   1      4.4878094699301467      18.590884580177708      1.0581660273633238
    34   1      2.8331032753490302      20.063852540488153      28.522966462826776
    35   1      4.1358045858426813      21.618137489922699      1.2198354106529119
    36   1      2.9024045039942035      22.956146697295644      28.462480820973809
    37   1      2.7785075591363837      22.931607945047595      2.8807944432968817
    38   1      1.3775339705502714      24.342656429631262      27.022540042835175
    39   1      4.3968639977906818      27.241280194878012      1.4958536957223487
    40   1       5.971889472851645      28.548535377834501      28.660494483879631
    41   1      7.3074583888062516      1.4046354253556264      1.3315510697541519
    42   1      5.9123336673425175      2.9292412763772866      28.641997216303579
    43   1      7.2466251876219987      4.4397114715816937      1.3959518696344717
    44   1      5.7667819533212192      5.7768059827089022    0.076631862483793736
    45   1      7.4599288331015385      7.0918613461431121      1.2796050793145817
    46   1      5.9041790062489792      8.4159914750605456      28.432698227843435
    47   1      8.7506864348103353      8.5562107010233479      28.597331056435369
    48   1      6.0993312379595661      14.487328882880604      28.530446172561557
    49   1      5.8375718020468481      14.621571310272467       2.721274571207108
    50   1      4.5184666516109333      13.330512887050261       1.339425317846404
    51   1       8.515479379234236      11.325639421231653      25.807222224766896
    52   1      5.9217692763577165      17.144056351745718      28.388413868168502
    53   1      7.1707302725414799      18.842824110106218      1.4154632737216515
    54   1      5.8053900406524459      20.282364599316217      28.523977004740079
    55   1      7.2660969882945352      21.694120650703404      1.3597688651794555
    56   1      5.8499050464741478      23.027701067365943      28.602656962806083
    57   1      7.2822320559381382      24.458427960591898      1.3528172751364316
    58   1      5.9156920597348179      25.764174634331912      28.632589129409837
    59   1      8.4538829325040226       25.88279478865114      28.362499763484401
    60   1      8.6755205339901007      28.502500524024597      28.672966773639573
    61   1      9.9947635400019212      1.3522457509141299      1.3298520473632724
    62   1      8.6961469153539692      2.9549936909144847    0.047922494151134781
    63   1      10.169261325344193      4.3002187788302413      1.4962073434221219
    64   1      8.6196158383800174      5.7136290165205255      28.577018826073431
    65   1      9.9113034132521651      7.2092000750803438      1.4709394508550186
    66   1      7.3022223236851582      9.8794925711790977      27.387184907788868
    67   1      9.9828548910025354      9.8821760446596585      1.7290904268820453
    68   1      7.3938316336811116      12.944435320777785      1.4634760347839801
    69   1      9.9982864693790692      12.950757969318786      1.2217405986904069
    70   1       8.611783827180151      14.684817918196158      28.658327832350555
    71   1      10.213487578547019      15.918248311713944      1.3382409127933108
    72   1      8.5804307659946844      17.352361074025509      28.547894275526193
    73   1      9.9003746892150151      18.523867313870408      1.2023911993357956
    74   1      8.5938652415979284      20.222387022538946      28.485930074549362
    75   1      10.159645654335353      21.289462990121383      1.2012457777989081
    76   1      8.7364808820928115      22.918714063061444      28.502678340802092
    77   1      10.020860952902149       24.40115515560883      1.3442960989470869
    78   1      9.9974102398233438      27.316303905965732      1.3141365056444112
    79   1      11.526910286574802      28.650388668293779       2.913956597889912
    80   1      11.537149094066297      28.626933576372497      28.560605857771126
    81   1      15.645984210289724      1.6484051262933344       1.763465807646956
    82   1      11.301382167254985      2.8955860781740732      28.570127214970114
    83   1      11.627278279568305      5.9297436003274937      28.655357250034701
    84   1      13.060852037170768      7.2762763904356627      1.5771817968462527
    85   1      11.385664374789883      8.6890381690064373    0.011999571716262364
    86   1      12.580710293568556      9.9913558907832005      1.6188136224766139
    87   1      11.421134611720948      11.416082468666756    0.011516356404581528
    88   1       12.91714552403803      12.844770940558583       1.478102307005384
    89   1      11.496881345684265      14.451670181444376      28.667561257229398
    90   1       12.95393213706077       15.85524907576349      1.1429100862648156
    91   1      11.244583706078675      17.212286892589542      28.545276267924525
    92   1      12.752328572205599      18.811405755179649      1.4098191393623318
    93   1      11.466577293206521      19.996864517908833      28.415222015989514
    94   1       12.93907516243029      21.567718139202661      1.1282502097430329
    95   1      11.344701265804513      22.973007761134106      28.379983308906901
    96   1      12.998021148621691      24.197556914217344       1.220833849829807
    97   1      11.494562474795554      25.828245026819285   0.0086368851237125406
    98   1      14.114073922424925     0.26572026970607537      2.7944324569188201
    99   1      15.527899638925962      1.5011727760076166      27.063406210097671
   100   1      14.360605534643977     0.16272495043263002     0.16222680671083917
   101   1      14.180429670402482      2.8694553583298661   0.0080571307381319401
   102   1       15.89171938073256      4.3002607242653941      1.5821764249908603
   103   1      14.265021313483912      5.8896642209253152     0.13879328220199322
   104   1       15.62663040368493      7.2792503852501538      1.5016542481520658
   105   1      14.301768717353895      8.7740245783478663      28.662251926475083
   106   1      15.677110530413838       10.09272348922299      1.5026551152625971
   107   1       14.29194964131821      11.610253902342002    0.091699335103385279
   108   1      15.661875609705499      13.029138212003929      1.4470643584084999
   109   1      14.436691504171757      14.352539486708496     0.12621343004672103
   110   1      15.862452335520132      15.861636005405702      1.3826882641248408
   111   1      14.275632652745918      17.427176162441707     0.12836246655303962
   112   1      15.763671172426829      18.711009507530733      1.3922078439133758
   113   1      15.673046078542656      21.395311007379391      27.431989229240727
   114   1      14.387692848473293      20.019481188638192    0.080200154808062474
   115   1      13.119047518605321      24.412381916750419      27.065414740644062
   116   1      15.932264345287495      24.226380960432433      1.2891337071163893
   117   1      14.267745055885138      25.645520267266328    0.076795610158455971
   118   1      15.616358826889147       27.18831627192916      1.5130344624596437
   119   1      18.529795536146214      1.4910624445411502      27.524449570708473
   120   1      17.036979254810316      28.532857342232095      28.687154643777816
   121   1      18.499709521944911      4.3856433189519786      27.556738952289152
   122   1      17.133363362594388      5.5819066361160496      3.0855583206163066
   123   1      16.945943551376505      5.7705828577655085    0.083991320508243886
   124   1      18.563454260738169      7.1644400347869572      1.5573751550137431
   125   1      17.129059291655146      8.7305149611016066     0.27332575646591978
   126   1      18.727937236982509      10.236999085534414      1.4459126972065184
   127   1        17.0414760883573      11.466390084162967      28.698534820021425
   128   1      18.694308155542267      13.169864622637816      1.3164188223665976
   129   1      17.206630847027451      14.411994249131638      28.681964548124739
   130   1      18.481533695436283      15.837102476189191      1.3075736365424524
   131   1       17.31397830502268      17.296975398379963      28.609323296712034
   132   1      18.576055786466373      18.707238956819928      1.3160554230150401
   133   1      17.267699087175565      20.058024401473595     0.12665270307235219
   134   1      18.847465689234664      21.326876394945518      1.5222453409877625
   135   1      17.295044189551852      22.724656162585994      28.479453076575588
   136   1      18.721130223690007      24.187842956960655      1.6232057133065598
   137   1      17.183915244587649      25.712945347441323      28.618432168379755
   138   1      18.562995571911095      26.932979363912558      1.3811106485956548
   139   1      21.513874970756707       1.336313232403006      1.2093322531251043
   140   1      22.920154434371113      3.0612742155350814      28.694981302317874
   141   1        19.9837735866518      3.0117506730811581      28.671493033488733
   142   1      24.253476153695562      4.3698319613321797      4.0739143425317241
   143   1      19.923166611800678      5.8049047209997902      28.680208729320015
   144   1      19.859381796494759      5.3842166610762527      2.9734304988863816
   145   1      20.068689308353658      8.4701702619433821      28.620611535001689
   146   1      21.722664224622108      10.106004259389421      1.6720757086017553
   147   1      20.127763099608615      11.274614399379958     0.15581792657103516
   148   1      21.595828755298189      12.784177999562131      1.3925288499957338
   149   1      20.003486975757323      14.589721836871144     0.11876117726360472
   150   1       21.74253530231427      15.821997569915302      1.3996565878910474
   151   1      20.042463424577136      17.098408473433818      28.619294458260256
   152   1      21.625288468509876      18.453863874889201      1.2933530125656256
   153   1      20.237946155290647      20.090092279007248    0.035840620156034307
   154   1      21.378671830268534      21.572339960805518      1.4858700125089519
   155   1      20.137168889521693      22.950806044287702     0.15246639448617977
   156   1      21.473848102718677      24.648504201533076      1.5531123975159964
   157   1       20.03108890377905      25.778572259481052    0.023482207106405893
   158   1      21.632356274485872      27.174395391595692       1.365509372480062
   159   1       23.08791747851469      28.690059702908361      28.592496128193972
   160   1      27.382732177880516      27.380848253991733      1.3633836927662399
   161   1      23.121366547582181    0.010915196939640904      2.8812313902636664
   162   1      24.687088509730103      4.4061562385422652      26.966237454957643
   163   1      23.059487446598851       5.596294781986443     0.02679724534762043
   164   1      25.867863641430102      5.4133489455489192     0.21295806736045494
   165   1      22.984548731652602      8.4626437836664294    0.077762085495396718
   166   1      23.001726315803698      8.5802495093875795      3.3077264169207861
   167   1      22.828913509714937       11.49573110001422      28.650065959504687
   168   1       24.38264385991738       13.10226422509087      1.3959945902909907
   169   1      23.099742258788435      14.364262574466073      28.633957300017645
   170   1      24.559461520503945      15.818697439270721      1.4320464823295422
   171   1      23.087462654524572      17.123695867829706    0.051891468328210504
   172   1      22.710957954564151      20.156457248351256       2.766848972383765
   173   1      22.973661969312481      20.239250113461495      28.661222930679784
   174   1      24.565595411953623      21.489796774447438      1.4808241346742068
   175   1      22.807371994408889        23.1830765359074     0.35888605038392074
   176   1       24.42857688169817      24.385990566280103      1.4217466294971124
   177   1      22.948498553034231      25.794227356630802       28.55141728849658
   178   1      24.341720872265903      27.078322692374169      1.3528668180919012
   179   1      25.800475751213202      28.483686217750119      28.546055121036574
   180   1      27.183133160218016      1.3414244730232101      1.4891327933208915
   181   1      23.014652309588527      5.5078585751942777       25.96134565664882
   182   1      27.371788757983683      4.2519442728424508      1.4787855059067971
   183   1      24.342948112350115      4.1661269629591722      1.6815986919472021
   184   1      27.647736761878384      7.3782273758510701      1.4481927606697231
   185   1        27.5494664523743      7.1618468749965158      27.371308575354821
   186   1      26.060767780972952       8.561309499535529      28.678325585483165
   187   1      25.695728212543919      11.371745958825848     0.15041673774293254
   188   1      27.234334307431418      12.833844237138642      1.4892676258555759
   189   1      25.959781967244382      14.224980921017343       28.69575303013481
   190   1      27.309771069813859      15.830797969915286      1.4868269368994791
   191   1      26.070557138257595      17.409943611585209    0.076613573262875462
   192   1      25.951147447101629      20.127165103968711      28.646139451646278
   193   1      24.307551968106658      18.867226591493637       1.339812693112344
   194   1       27.27561230556147      21.708717059905243      1.5423697573089714
   195   1      25.978864444523683      22.973923892759462    0.028183167626400506
   196   1      27.199167289919707      24.245481242940148      1.2789206965213216
   197   1      25.918747629625599      25.861732468199939      28.682830246699442
   198   1     0.19778797344558718      25.832319432744299      2.8990131871638947
   199   1      25.971269344282163       28.68505932667232      2.8968560965687011
   200   1      1.3599386080203772      1.4648753034526758      4.4087487382103205
   201   1      3.1203528006704029      5.6786501186934659      5.6879632334723675
   202   1      28.682336513285069      3.0270187581910131      5.6271505446946843
   203   1      0.3123055691538198      5.7446884833249827      2.8702093105284279
   204   1      1.6447164850579277      7.1829753693421949       4.482484084707222
   205   1    0.078595352502748614      8.5538709388144483      2.9186789027846567
   206   1      1.7576097141296141      10.029886232339823      4.2409735878880719
   207   1     0.24999253300128504      11.439674495047562      3.0674117127805682
   208   1      1.5523371782517759       12.81908865212444      4.3125516284702705
   209   1      0.3477794149314154      14.355068059156704      2.7469636617303426
   210   1      1.5383609532715603      15.630641791373714      4.5406188975969251
   211   1     0.32185294938494974      17.109804872990061       3.016378504457931
   212   1      1.5616752572476238      18.682794548037432      4.3648015856306648
   213   1      28.625437121961728      20.214712870968867      3.0406188501467653
   214   1      27.385077385060701      21.583948052478174      4.3928350652785371
   215   1       1.521055189414281      24.375492896371778      4.3129602791742743
   216   1      2.9096112858457479      25.598181128637286      5.7778662800128506
   217   1       1.576747972263536      24.284610402388193      1.2867417508746477
   218   1      1.6511655045880176      27.222626780779109       4.377955847335965
   219   1      3.0116726860346685      28.608886471435103      2.9623348377560417
   220   1       4.114346147945442      1.4951535829993634      4.1040792879819445
   221   1      2.9232120749502433      2.8623501242430973      2.4638871758820979
   222   1      4.3774096190378806      4.1852584638651633      4.3530158051382486
   223   1      3.1782149867251364      5.6387712231386482      2.8220344772781463
   224   1       4.333226272419668      7.1804516076692089      4.3425589527990276
   225   1      2.9334489408171955      8.6148928410414563      2.8702557265319011
   226   1       4.483877762755978      9.8378097672038258      3.9674027109622965
   227   1      1.7305432815612676      10.059595763909599      1.2132179257642508
   228   1      5.7252233258360778       11.51950027219476       5.520083735660787
   229   1      3.0788624269039344      14.432595503004151      2.7503064681808271
   230   1      4.3503194606954017      15.813688380967012      4.3679342652793345
   231   1      2.8994984171349043      17.293398127253205      2.7451397936824815
   232   1      4.2606533389133237      18.690523508624452      4.4097205468716441
   233   1      3.1162951637764031      20.060409135115012      2.6791896227810503
   234   1      1.5635505633738731      21.597125548747741      1.4194348665437349
   235   1      28.663469507362581      20.080541379144652      5.6749118846761935
   236   1       4.375678212671029      24.416485394463045      4.0213498256238811
   237   1      2.6789044597254947      25.902938047677182      2.7392352904855111
   238   1      4.3304330760742644      27.023344529360426      4.0332122762004321
   239   1      5.9169348386915299      28.684779924570197      3.0051066636269663
   240   1      7.1307889139635838      1.3075213966246899      4.4482440799277541
   241   1      5.8319993028314814      2.7158196033633439      2.8801623562546133
   242   1      7.2530881517982086       4.368517735707889       4.345340189625893
   243   1      5.8225216426920898      5.7694066059516285      2.7819832301237168
   244   1      7.1594023426988214      7.0020245531717542      4.4337128199603146
   245   1      5.9278558523346572      8.3267706512369948      2.7230780839789195
   246   1      5.6039986418698255      11.471836306498563      2.5232266015076332
   247   1      4.5310337665009079      13.058328287880141      4.2387799797318513
   248   1      7.4619731403336012      12.958683119719353      4.2114340882770476
   249   1      7.2268014891644343      15.982602319127526      1.5667615819046086
   250   1      7.3377909744628962      15.677343337999137      4.2785680546305676
   251   1      5.6936077448333311      17.392118534743279      2.7925209790407042
   252   1      7.1458374472142836      18.797831470264434      4.4207521946471511
   253   1      5.8875310577982551      20.222553109385704       2.549207746863702
   254   1      6.8892086652402407       21.55721462137879      4.3511991507212526
   255   1       5.732494978790089      23.109586838087008      2.7361884766123907
   256   1       6.861669420517309       24.56654489211078      4.1861599449316929
   257   1      4.2373287060189524      24.712918407297423      1.2692150000004629
   258   1      8.6010844732152982      0.3208899807749076      2.8063525323878258
   259   1      7.4935382312060357      27.212522006599727      1.6650485606008949
   260   1      10.072752950964222        1.42457441225265      4.3221413147752097
   261   1       8.613334912890668      2.8587278123490707      2.8301647795695537
   262   1      10.173046648747389      4.4095848409114708      4.2295794778765661
   263   1      8.7011101391885042       5.685256438496392      2.8517566494523749
   264   1      10.162728068002396      7.3058788377768629      4.5386219658700666
   265   1      8.7134402445619976      8.5446758302833974       3.154925617767125
   266   1      10.097392695117822      10.043775617024064       4.572226973655142
   267   1      8.8106757170537797      11.449459470287254      2.9679406285018746
   268   1       8.810944418751733      11.544459529410261      5.7704014093638003
   269   1      8.7563824917789237      14.386208029559295      2.7423738664796362
   270   1      10.330783896618703      15.676185371471247      4.4312723635252667
   271   1        8.76010451656588      17.184226955488924      3.0677803326610595
   272   1      9.9250833799552467      18.531084242001061      4.4389056360450745
   273   1      8.4976240803524359       20.19882310373902      2.9660855545620781
   274   1       11.56078819830225      22.967050874126073      2.6605414666127207
   275   1      8.6778755241515917      23.032412327370434      2.8144529773369635
   276   1      10.147131623374349      24.223109354995675      4.2135866805276292
   277   1        8.68655003308956      25.499840596069159      3.0349861363122108
   278   1      9.5929714976711509      27.173952112065017      4.0145645723459715
   279   1      12.733560929784316      1.5886749782589735      1.3511169201934536
   280   1      14.056141057820835      2.8119554393982162      2.9669665822854885
   281   1      11.504406887850591      2.8043630500887273      2.9809448683972488
   282   1      12.855999090682626      4.4731267404397723      4.3959841591502276
   283   1      11.502646880053369      6.0829710422486816      3.0070215072003146
   284   1      12.938082402429359       7.230400242154321      4.3510911322810175
   285   1      11.677078268083353      8.6965409470929398      3.0592631378498378
   286   1       11.49726759572372      11.562353578588962       2.906202095594276
   287   1      10.198729693811371      12.954290068206541      4.2801988478684843
   288   1      14.242900391780974      11.405451936176011      5.6398957850242004
   289   1      11.622774544445811      14.407350923064111      2.6890588929773243
   290   1      13.058766914405625      15.835362546775961      4.4329309833409063
   291   1      11.421844254198362      17.281708870127495      2.9314444368633654
   292   1      12.862937287481747      18.610438773212046      4.1506453107806678
   293   1      11.268657343893386      20.115214875638003      2.8719694623004894
   294   1      14.423942163276847      19.937791658225944      5.7599510904993627
   295   1      12.807530627274605      21.475567427971807      4.5866517965989271
   296   1      12.690611627783284      24.355759438882785      4.3278579475337482
   297   1      11.501158687691721      25.743879214203798      2.7837109373130819
   298   1       14.16396396775542      25.744719928123267      5.7369531449351925
   299   1       15.39492584121388      1.4473426529897881      4.2323380154100434
   300   1      17.063465008338209       3.056743711707135      3.0496653822839499
   301   1      12.801775356932987      4.3168529946491017      1.3136495514990207
   302   1      15.591753589095831      4.2298220683714014      4.3061921153877387
   303   1      14.107695195267546      5.5029932365264109         2.7850953551124
   304   1      15.641351037095486       7.079366503536197      4.2242902997385281
   305   1       14.38462754057903      8.6638003187634585       2.994242438839378
   306   1      15.666330269479189       9.826846108076122      4.4117162820893894
   307   1      14.287732602714307      11.585803335311356      2.9606841287200338
   308   1      15.840116483137756      13.098770680953164      4.4247480138109943
   309   1      14.470535171112038      14.642598331333595      2.8409484346707465
   310   1      15.941394754382397      15.827548287366172      4.2493348476947981
   311   1      14.463895907101739       17.25149123147331      2.8123528284045967
   312   1      15.783581126569294      18.747970017316522      4.2550524632743594
   313   1      14.217829776845736      20.014970052021891      2.9743691339874681
   314   1      17.176696976048024      20.178303790273365       2.907448921896655
   315   1      14.193609053487849      22.634935319178123      2.9062415176455003
   316   1      15.690807268744328      24.377735603362531      4.2622724332106809
   317   1      14.271177116045759      25.546056541242649      2.6101941750227287
   318   1      15.535220107368646      27.274684340577497      4.0763007584856537
   319   1      17.186316579655919    0.057451779638006517      2.6945972847601523
   320   1      18.536643035525664      1.5423571619890701      4.0094636996607989
   321   1      18.651763742637062      1.3081732117782718      1.5113217134731247
   322   1       18.54728686345095      4.3339294928408014      4.5014456930026912
   323   1      18.710319058481044      7.1600058857459938      4.2425270939037727
   324   1      18.495672942970284      4.1524048896061911      1.2503658785829213
   325   1      17.066618921086647      8.6355959885531632      2.8952881714124312
   326   1       18.53072317128597      10.039639916547761      4.3422396551055611
   327   1      17.046187959228742      11.676320864410219      2.9493981171986032
   328   1      18.705288351956465      12.906376238518577      4.3000467075159907
   329   1      17.141954492075207      14.450495306100022      2.7110898333140767
   330   1      18.663972513710565      15.821582664967966      4.1957021646728743
   331   1      17.161196564881958      17.408072545728203      2.8053330731466759
   332   1      18.518579004198326      18.511937932338807      4.3712882164653912
   333   1      18.660666971225286      21.480949618876561      4.3649637871434628
   334   1      19.951080808406815      22.976905193558711      5.8972061787437795
   335   1       15.88970110441235      21.797175803447285      1.2617114241237231
   336   1      17.130860710011472      22.721290809254572      2.9728626537296132
   337   1      17.070256633787249      25.575586321764792      2.6489274600324726
   338   1      18.372484283162144      27.186538051750219      3.9952948340204206
   339   1      20.119663440964604    0.052271576436851375      2.6325595955741168
   340   1      22.984090222958855      5.9237266205011023       2.915692719268439
   341   1      20.164169175084378      2.9901089802642091      2.7360522176088251
   342   1      21.696584278603218      4.3760768308668796      4.1090260322164935
   343   1      21.560421554757674      4.3007855387495484      1.3680493745987052
   344   1      21.349476428409254      7.0755077627496759      4.3235946777451071
   345   1      20.266621831801256      8.6397549184091549      2.8974606915008678
   346   1      21.518639618898444      10.334764682867791      4.3440850111571692
   347   1      19.967193395133748      11.436588405107962      2.9228808367669998
   348   1      21.283590195736426      12.781660708982237      4.4475003125062615
   349   1       20.26034962613846      14.546061266526799      2.8099067165436149
   350   1      21.660362124127399      15.621305296652643      4.4047313138751774
   351   1      20.029393492149968      17.408235030022386      2.7964215648917845
   352   1      23.102856623789076      19.840494599438514      5.5950880326958945
   353   1      20.067348651904396      19.984054833259201      2.7702433228855172
   354   1      22.918849187911476      22.962997132726446      5.7642702493871818
   355   1      20.096717751808413      22.912372987739335      3.0463265039200782
   356   1       21.54002543692523      24.336304606582768      4.2734873681392411
   357   1      20.122279183964107      25.749778906902886      2.9783232338127212
   358   1      21.421043988261019      27.419437426014049      4.3166851079665918
   359   1      22.908222942785383      2.8339712090512661       2.985969255843163