dump/Mg_700_5/steps_81 (written by ASE) 

3995 	 atoms 
1  atom types
0.0      32.100000000000001  xlo xhi
0.0      55.598830921999998  ylo yhi
0.0      52.130399999999995  zlo zhi


Atoms 

     1   1      31.829333440824549      55.449536483522905     0.14913309890940268
     2   1      1.4295211820236695      2.7582408263251663      51.983389339350055
     3   1      1.7581114583587913       1.017002511764717      2.6542224509222057
     4   1      0.1190905482421957      3.6968767243010161        2.47599434346842
     5   1      32.083251465648161       5.749407454759325      52.029124159056479
     6   1      1.5960607458446046       8.396180189269332      51.729055035612909
     7   1      1.3252160718074859      6.5371998970726759      2.6825652896616585
     8   1      0.1509169236261535      9.3851560540694017      2.5972825284014953
     9   1      31.943373194418978      11.335483733252934      51.999436942303575
    10   1      1.7514914554624448      13.970497817709203      52.019195739694098
    11   1      1.6370445472576214       11.97162469312409      2.4947233913027493
    12   1      32.080205675642731      14.725848621671719      2.6026979525930307
    13   1    0.059038186133012455      16.459833778767546    0.026554075640692575
    14   1       2.103894837073168      19.515605688636978      52.000955958620139
    15   1      1.9614401760060585      17.679462346379761      2.4898138595388617
    16   1     0.20917483760466801      20.304900826525373      2.1431151754926194
    17   1     0.40432701945314353      22.358394656030043      52.103446161452531
    18   1      1.8915835665887413      24.935103978440473      52.018881539254544
    19   1      1.6318636645187456      23.133949974918099      2.6895706908269381
    20   1    0.010117042136325307      25.870705396677707      2.5199209171318531
    21   1     0.37482552161338267      27.749139396202143      52.001483890778552
    22   1      1.4813404941738819      30.404225503175891      52.084409829528248
    23   1      1.9438048389210316       28.34990605349245      2.6587501819614467
    24   1    0.088598202989580543       31.41125424029239      2.6790308205974656
    25   1      31.987327795342917      33.271956730224325     0.40336718094109147
    26   1      1.4255733710790452       36.01453871895567     0.16992458017513937
    27   1      1.7446328314956665      34.156758405096561      2.7763326506017223
    28   1    0.068676030979625213      37.056554802934926      3.0707807891093704
    29   1      32.053634861735695      38.751730759481667    0.035143324877663862
    30   1      1.4580987320296719      41.907390901964966      0.1503323673253962
    31   1      1.4750861299346545      40.162590362152976      2.7232467305672512
    32   1      31.995795657624971      42.759044336617983      2.7467376759507327
    33   1     0.30449456719919943      44.486347014445883   0.0080951218097328817
    34   1      1.6109194791282626       47.33423984848244      51.924615772766707
    35   1      1.9721373577193546      45.607999567966807      2.5175147638599098
    36   1     0.38672594161030638       48.42178008575479        2.53944176926221
    37   1    0.052696044941447757      50.011245934187485    0.078472060818601738
    38   1      1.4865527014664808      52.677368309672744      52.012256921544022
    39   1      1.4718902718868596      51.068304596245717      2.4510856218016119
    40   1     0.15039049591556833      53.863488152615403      2.6808467504177615
    41   1      2.8766317443191656       55.21833161521198   0.0065597726858804229
    42   1      4.6568042152081723      2.6697587071076372    0.065440262356819351
    43   1      4.8034772320304144     0.73463060262246882      2.5403377570284764
    44   1      3.1138554389342308      3.7434026913796625      2.5406067494124596
    45   1      3.1371754729147638      5.5454006959635826      51.847855311903722
    46   1      4.5132729798479234      8.0865492126565961      52.064596023593552
    47   1      4.9152281998445195      6.3590154698520909      2.3686380018476885
    48   1      3.3886818950275814      9.5277105696619326      2.7150839952236376
    49   1      3.5112853528176728      10.864944359673247      51.883990947946742
    50   1      4.7813553629923735      14.162421471179261      52.078329762881225
    51   1      4.9642274203644305      12.451849872780965      2.2786447190133661
    52   1      3.2250239387088526      14.810847258874276      2.6529829748771836
    53   1      3.0873915969360768      16.785255314560182       51.94543040390792
    54   1      5.1042453513904125      19.910110725158219      52.034682935066201
    55   1      4.8799987632609572      18.204111930509796      2.8861581196317623
    56   1      3.1841860784571647      20.464351448750314      2.3595526838444423
    57   1      3.5688081549154478      22.399473524782987      51.970938393860344
    58   1      5.0315098559352984      25.191903150116307      51.898784920875315
    59   1      4.9701164509006066      23.012779604042585      2.8213675924309349
    60   1      3.5215527231674701      25.626506194285732      2.5946940328366517
    61   1      3.3785023539544898      27.613945623461817      51.561957852323381
    62   1      4.8296861640335758      30.443778084406262      51.994319221048706
    63   1      5.1526984776289071      28.195681726600963      2.5635158214840148
    64   1      3.0451636459921745      31.400493479518904      2.4255268591811827
    65   1       2.887186105271236      33.097158941064976     0.20079703746607724
    66   1      4.7717784410753419      36.259694014446488     0.31664081461624843
    67   1      5.1600679406185277      34.237956866226064      3.0907337173808314
    68   1      3.4314012771476086      36.641639901052855      2.7748373043508585
    69   1      2.9832196491581846      38.766131150896243     0.18429146087780046
    70   1      4.9073447643819073      41.770076332856995     0.13565358073513281
    71   1      4.9450720466290292      39.822136197724745      2.6086088739360256
    72   1      3.1760160710198897      42.787530166614054      2.6750556530760763
    73   1      3.4339906779767646      44.588640079541427      52.126027551174296
    74   1      5.0350381535225193      47.255510295754021       51.98195532905784
    75   1      5.1368972064069647      45.542972038002013      2.7117195069574991
    76   1      3.1429349863349016      48.267696264257552      2.5542173012419855
    77   1      3.2852835288218971      49.914425351017911       51.99449660165093
    78   1      4.5947880081770283      52.641056642390147      52.097702744336786
    79   1      4.8409740533050192      51.055161798668358      2.6964978787105753
    80   1      3.2631141751749908      53.515152546779277      2.6672710919181903
    81   1      6.3850027026961529     0.13723125193622998      52.033048873225923
    82   1      7.9948977798619874      2.7678646128594369      52.051609605294075
    83   1      8.2350193114121559      1.0056033294579954      2.5679350857348937
    84   1      6.5828404464173111      3.7529978520119531      2.7378828135956592
    85   1      6.3936094929512413      5.6178403670428025      51.995122717922818
    86   1      7.9754910839547364      8.2183638111532638      51.962729630479856
    87   1      7.9051499015946307      6.3574982231309356      2.3824804415094132
    88   1      6.3271319779248802      9.4754495533597041      2.5393332768297103
    89   1      6.4690933746573869      11.021348989164123      51.795175613587823
    90   1      7.5255325468395604       14.24183197378588      51.836940623480878
    91   1       8.164425812911082      12.447209826913118      2.5712496932980926
    92   1       6.095546310236613       15.15293612534454      2.6506818120924689
    93   1      6.3633884628754567      17.240665966999085    0.065315185135358778
    94   1      8.1914552225066579      19.750472199613505      51.885837512504395
    95   1      8.2438316130691618      18.082431054374247      2.3226019383486238
    96   1      6.7992817840733357      20.579978229373836      2.5649776076453654
    97   1      6.5728828469916358      22.528340962496738   0.0024581823220495599
    98   1       8.046133847964505      25.059369678329116     0.13063789525230743
    99   1      8.0854320075823782      23.092855271891771      2.8891539599619769
   100   1      6.8067647466235313      25.678318223690209      2.8751543774553117
   101   1      6.6837391991753998      27.850919467125024        51.8049000195129
   102   1      8.0453773496886036      30.718047225617205      52.026089272601354
   103   1      8.1150984724055082      28.716624005499039      2.6984965569814281
   104   1      6.2819610449533796      31.447305495139233      2.4021916855079035
   105   1      6.2509500886261087      33.176516804669852    0.027550417591329389
   106   1      7.9704335884900779      36.068487641089064     0.14305899195576641
   107   1      8.0150756991294205      34.391746754306581       2.878181087569474
   108   1      6.3975084797173789      37.177455052819013       3.040431147470124
   109   1      6.3702452095448869      39.060444223713596     0.30257616048070585
   110   1      7.7654113537448115      41.859480736972856     0.22594511613644519
   111   1      8.2429239570757904      39.723317239109235      3.0531438325711857
   112   1      6.5240322072498902      42.712398455810238      2.8843146666677928
   113   1      6.5300643648589078      44.478104134625269     0.15319332546508369
   114   1      8.0656721627419241      47.161589581069556      52.050263069080593
   115   1      8.1254212426091303      45.374749180395298      2.4466029838400942
   116   1       6.463574723488744      48.433880488631893      2.5416541039581952
   117   1      6.5555697896589695      49.914767032921183      51.872607735127211
   118   1       7.496600028894024      52.918299755024798       51.86375250585705
   119   1       8.280775495313355      51.055905126956091      2.8533947271329301
   120   1      6.5239594540845776      53.826758723251515      2.6465057635088791
   121   1      9.7570533777906618      55.570240691666854    0.020065826891117352
   122   1      10.998765957867136      2.7196055505055048      52.005078048744707
   123   1      11.298312659799254     0.93435559765665888      2.6202457731172317
   124   1      9.6240350115568774      3.7389950976380404      2.5064018108713015
   125   1      9.5243256064324129      5.3082390782483557      51.763803288153035
   126   1      11.055140000790136      8.2771201607052092      52.082474073359734
   127   1      11.169868725180113      6.3798266443607394      2.4825860730672438
   128   1      9.9913243120099171      9.2151616322852981      2.5888929128677822
   129   1      9.6744768383026525      11.218331248079327     0.17644406885073741
   130   1       11.24495537286462      14.070752516375643      51.973107630286883
   131   1       10.98926694131163      12.464286274650972      2.6752317486650816
   132   1      9.5471813575100946      15.299053870117389      2.2376116149015322
   133   1      9.4229790236320756      17.120535179958569      51.735615702003294
   134   1      11.401808143188511      19.620323045921619     0.33876291987697782
   135   1       11.21352592278576      17.752786711055297      2.7391532504088749
   136   1      9.8671394715856291      20.678771164016872      2.4386881268752969
   137   1      9.7778986897418179      22.644858566953864    0.039744674120688966
   138   1      10.931192960223592      25.392492941434028    0.049269528208772312
   139   1      11.455548642435712      23.176401598346047      2.6896625082388996
   140   1      9.6468334753674103      26.159711718510589      2.7171209791663475
   141   1      9.6812968187960653      28.018965292132595      52.088227365786672
   142   1      11.157000395415546      30.508300923387672     0.10851754492906633
   143   1       11.36481515925848      29.274618470315616      2.8626111924091373
   144   1      9.4625267448196144      31.666502904122936      2.6448411894624648
   145   1      9.8537900791600563      33.721129446453695    0.031862935641107648
   146   1      11.150527122078289      36.354985214625245      52.032474511143064
   147   1      11.344039395028108      34.493403658168852      2.6280298885044595
   148   1      9.5866369761226515      36.939922189707126      2.7078684944345559
   149   1      9.7282298650481742      39.146887402315599      52.034198661098991
   150   1      11.490049724325086      41.917344557166423    0.087187446942443889
   151   1      11.165082257823654      39.936714054450931      2.7288122167866966
   152   1      9.5046630614253189      42.618517727330264      2.7291947014340989
   153   1      9.7218636667339062      44.227798887021379    0.030054779699315345
   154   1      10.876414331602934      47.504335417287862      52.076778479210631
   155   1      11.231121821879716      45.194417860979151      2.3588771571376292
   156   1      9.5104747506029437      48.150044021723986      2.6721309849123642
   157   1      9.6483092170700075      50.295717904131635    0.095499498761120183
   158   1      11.206005214154972      52.927990220286624     0.17009918582005679
   159   1      11.273280148900765      50.957374568474215      2.8995548727814064
   160   1      9.4513233134591044      53.723586389357784       2.601217706520925
   161   1      12.925742578118212      55.315259285644629      52.030141600246296
   162   1      14.299309365875839      2.3673793965600369      51.716343568356621
   163   1      14.470016984634258       1.126562280063087      2.3984978612568257
   164   1      13.265591138626824      3.7860739885727335       2.318061909720436
   165   1      12.827837490463576      5.2801229517395178      52.004663486057737
   166   1      14.562646780207873      8.2479041652169443     0.17375848986430484
   167   1      14.473126801614843      6.4552704419575146      2.7455743889063773
   168   1      12.882606566428189       9.185086458995297      2.7600431479277105
   169   1      12.603064771654887      11.178165501911119      0.1539042809588459
   170   1      14.358749905072388      13.979482668085197      52.058482804031073
   171   1      14.046848987180619      12.058212368430647      2.7189339408270849
   172   1      12.741604587183534       15.00574433055416      2.2288168206106995
   173   1      12.588054033556288      16.972195238608638      52.064726801468218
   174   1      14.880518760632071      19.841576057339644      52.045884661936441
   175   1      14.133101532916594      17.822772331105973      2.5714142809563083
   176   1      12.955832714774033      20.752748551091582      2.7337375193766431
   177   1      12.941203257844547       22.34780180251277     0.18339550120926212
   178   1      14.116456866769274      25.237339739817628     0.13168213839993026
   179   1      14.477904349685044      23.512710753839016      2.7816189374827434
   180   1      12.568471507306279      25.876526309827725       2.715254397452052
   181   1      12.930658484476455      28.017172693621564     0.28210155496890466
   182   1      14.307308845085421      31.085763646975323      52.019356206919227
   183   1      14.394200732715376      28.964736800018219      2.7090422446969562
   184   1      13.077243528124571      31.839441542290174      2.8748008268652541
   185   1      13.048849000825264      33.598056519854474      52.027198745317193
   186   1      14.366577441877391      36.419023954092438    0.086857281544116066
   187   1      14.284235482325689      34.587382176771342      2.2361997712806434
   188   1      12.472553659609757      37.483111473009423      2.7693299316700677
   189   1      13.069581073217265      39.195944723901157    0.055517518818404145
   190   1       14.70636585351223      41.733653714489364    0.038478982463100581
   191   1      14.372589490950416       39.83236866332382      2.7248441689663632
   192   1      12.922259762213734      42.535515635180474      2.3320559125434674
   193   1      12.944918250301678      44.409762478009647      51.996473054983674
   194   1      14.606307249982681      47.304521086597425      52.085527797557383
   195   1      14.213073197685191      45.364278236771128      2.5562857186833789
   196   1      12.802799498332758      48.319259996535877      2.5409275194367771
   197   1      12.750260763529115      50.203443714699524      51.952782803905514
   198   1      14.481013154486256      52.546423375832887      51.978557169718812
   199   1      14.329441988570865      51.052936347394365      2.4764504005844969
   200   1      12.975959999717254      53.614622035303768       2.716556048043397
   201   1      15.978995648951823      55.485776444814221       51.93376730889694
   202   1      17.627101521314458       2.806695323614004      52.065159768015704
   203   1      17.529759851412024     0.98302052767710268       2.579481523887714
   204   1      16.228908943118633      3.9153782785832729      2.4185231010425361
   205   1      15.885640626200374      5.6194463118101599    0.085494970424146985
   206   1      17.825638005530369      8.1625156231811786    0.065865099584507203
   207   1       17.66490467827656      6.2931592127173168      2.5318258276234817
   208   1      15.749271154096608      9.3371888669100169      2.8110705883984459
   209   1      15.905495735290069      11.357430950528025     0.14801759064934378
   210   1      17.434449443502704      13.904158286943201      52.063944300332196
   211   1      17.402651663777984      12.163316666724716       2.589320183609972
   212   1      16.055087314761067      14.834767939726765      2.6056763627310873
   213   1      16.264073811238688      17.113182250315557      52.063448237928057
   214   1      17.768916996752672      19.909948559653138     0.11281672105643992
   215   1      17.723525225703725      17.340133283715659      2.4154189646083251
   216   1      16.128779554454869      20.389285462186926       2.584980685335029
   217   1      15.953890348474832      22.638309651068088     0.31516421336644018
   218   1      17.767716041154127      25.049004333213858    0.042459455322637861
   219   1      17.436365615020438      23.382815324460758       2.816993538923307
   220   1      15.782985201152643      26.175532216642701      2.5028142766555139
   221   1      15.623002477672063      27.629509765061297      52.098870259380931
   222   1       17.48972184830086      30.729846965136552    0.067168497349573142
   223   1      17.395635477966984       28.81640990626622      2.5495346087513635
   224   1      15.954600836927106      31.503837579437221      2.7473148205887341
   225   1      16.439742029786348      33.700650949448622     0.23409208973938564
   226   1      17.769869089985544      36.288847923605665      51.840079597168128
   227   1      17.573072227351659      34.370508662634101      2.8962736299689538
   228   1      16.223644747228992      36.981921473124764      2.6133783137604096
   229   1      16.229300038003565      38.890541630967206      51.923563314002934
   230   1      17.711051023917197      41.749659697506239     0.16384109866150257
   231   1      17.604341796177827      39.911626439105682      2.7016546136129063
   232   1      15.943078182664616      42.971037335306143      2.5460428970560809
   233   1      16.074636928301484      44.740871502458248     0.41934396308304489
   234   1       18.00196470661712      47.253646245846284      52.079253249723479
   235   1      17.757998591109111      45.449389823308557      2.6627053826721543
   236   1      16.054047072689134      48.365205751311564      2.3206219165896544
   237   1      16.132538356868803      50.108108293962722      52.101780136876471
   238   1      17.595368299798604      52.589513681194369      51.831382710052424
   239   1      17.560294397262854      51.027791599943207      2.5067822329700649
   240   1      16.073017198783639      53.925600255461653      2.5091809308854174
   241   1      19.271475456106248    0.097346764422436532      52.012676428310947
   242   1       20.79024879413587      2.8546261820053904      51.871182688312366
   243   1      20.912805041846543      0.9169577944449262      2.3686474159258579
   244   1      19.190112181849045      3.5275614736685381      2.3195713711353427
   245   1      19.439081001182728      5.8544954730712009    0.018148531824597396
   246   1      20.791091038140969      8.7746065624826262     0.39217302637883278
   247   1      20.904426913413744      6.4099015157666557       2.624363925541739
   248   1      18.954566558837278      9.3180952464001425      2.7012054578819207
   249   1      18.950230691987279      11.003486207499465     0.15477345132571618
   250   1      20.657291027842525      13.819160906724907      0.1686581454005128
   251   1      20.655823914573229      11.679438252005705      2.4750750389738183
   252   1      19.250864301942119      14.734771451107862       2.844643685069705
   253   1      19.607844713459134      16.581749634195745      51.986587558755545
   254   1      20.964076527913846      19.361819167536982    0.041164964632071588
   255   1      20.772315569515222      17.661000810290595      2.8626518006960016
   256   1      19.400657699233768      20.328938612542373      2.4843733885551909
   257   1      19.429666324167929      22.508467879847384     0.31004041529493676
   258   1      20.630091640366427      25.168849991883899     0.15144001494240131
   259   1      20.944387562156443      23.409160743640985      3.0541347940529251
   260   1      19.168482148371307      26.168516983470944      2.9223652936006896
   261   1      19.100299437532122      27.911776080043357     0.06860349409664962
   262   1      21.109741601739589      30.574737855050586     0.08838099305261829
   263   1      21.203446880031766      28.832037452630377      2.3509624128837725
   264   1      19.413863945861674      31.268384109965815      2.5181067393628234
   265   1      19.558258404355009      33.499523884952708     0.21594628121933296
   266   1      21.223683145227472      35.998436486063333     0.17280224395779747
   267   1      21.117072819395972      34.456330504721812      2.7016092971105392
   268   1      19.267584433811091      37.113312408756258       2.580307213480304
   269   1      19.174548173392118      38.824920257939326      52.079050809056639
   270   1      20.840343076970331      41.575007735825409     0.23304609422639266
   271   1      20.809112693191683      39.486280841676994      2.7044472813011331
   272   1      19.236105370823875      42.576009154538596      2.7861325598474922
   273   1      19.308943629247626      44.461273746051475     0.12133846516187995
   274   1       21.15927515243138      47.363264347427979     0.11737908044408762
   275   1      20.976825885585523      45.111737067674689      2.6004805169000851
   276   1      19.236439197622619      48.227542221051728       2.515588333369287
   277   1      19.414102294157985      49.976714253305879      51.885166954614917
   278   1      20.904482912282418      52.908157345785902    0.038064375095933321
   279   1      20.857015052797923      50.832167778732007      2.4465736368688291
   280   1      19.066416856434312      53.907838715416155      2.3389518484109431
   281   1      22.426406850232496    0.074440634352876775       51.77778436357071
   282   1      23.961744841126396      2.7220849468046735       51.87342827655646
   283   1      23.999240048998946     0.78399391592668666      2.1317533911256561
   284   1      22.555634118699157      3.6756756602682183      2.5498901918069397
   285   1      22.569409492173232      5.6930553637932588      52.026784095847873
   286   1      24.132538687608911      8.1690608593241674      52.094202885752466
   287   1      24.130616106223943      6.8054236114327358      2.5104250673246957
   288   1      22.767832364125756      9.5438391631249093      2.7067529573122449
   289   1      22.806877232872882      11.023656548879016      52.108938096257333
   290   1      23.801905100828513      13.971925866006181      52.098085138720009
   291   1      23.771425045038242      12.355884955210906      2.6467550234590731
   292   1      22.438727963110637       14.96582188631708      2.5528801047611851
   293   1      22.550983554926326      16.768925898176789      51.979113741729272
   294   1      23.938605311551019      19.418345807536948      51.895473848573431
   295   1      23.909378713167676      17.713970333137159      2.5604913481232163
   296   1      22.454873072827901      20.589435260792087      2.6741551839148543
   297   1      22.680308032437932      22.163790594011761      52.124693160276195
   298   1      23.988741602042676      24.958641767360188      52.032223772820345
   299   1      24.182251233277288      23.189520328641255      2.4703286220754599
   300   1      22.722694217738795      26.092828113907611      2.6938624015225971
   301   1      22.397932936148226      27.887844197617675      52.001554621059256
   302   1      24.445501732632863      30.739741196732467     0.45384506086603321
   303   1      24.352651038439131      29.007174816439864      2.5563958347982814
   304   1      22.521045976136772      31.790303175241917      2.7930396593078419
   305   1      22.786222858614245      33.505293244157869    0.017951492772546519
   306   1      24.223308344300854      36.157175733472528     0.33362355070975069
   307   1      24.313173690852569      34.295323112915263      2.6134685493432004
   308   1      22.701072306982372      37.134983234757854      2.6944684262745797
   309   1      22.335430921468653      38.919059420572822    0.029471373896666059
   310   1      23.973628577430631      41.778480207528716      52.057050145209331
   311   1      24.115497000313706      39.973286616159903      2.5690353688136094
   312   1      22.691759855128236      42.561934155785053      2.7245109895844668
   313   1       22.69835984679111      44.752400157656247      52.130248966499522
   314   1      24.231492835534826      47.390917606655847      51.944074557552959
   315   1      24.497310464894095      45.708648709948093      2.4289664262469715
   316   1      22.575911286201215      48.332689583016709      2.7410516504913858
   317   1      22.245762847325651       50.21687098148336      51.976458978947889
   318   1      23.899833325368157      52.988577384562916      52.020194600305828
   319   1      23.949568105463459       50.74394640501508       2.573004037996137
   320   1      22.734885966021753      53.748515414627676      2.4862865173112745
   321   1      25.591196447025016     0.15978533700973713      51.959089542830725
   322   1      27.131828805548054         3.1051117816814      51.833760028589914
   323   1      26.935150827586956     0.88830483021423967      2.7182298972557994
   324   1      25.684186335634312      3.7679057139996939      2.3015990220673093
   325   1      25.675332689603618      5.4530037488220868      51.896805008632882
   326   1      27.505260047817494      8.1818883639306073      51.913129358723936
   327   1      27.133890916256462      6.3608256934106295      2.5377213688179534
   328   1      25.858438481489511      9.3950631403380864      2.4270381429835362
   329   1      25.779526096530088      11.282960092405204      52.062753305206499
   330   1      27.196006548555719      14.034749782164795    0.051670099811702466
   331   1       27.12790298225416      12.295742647431522      2.6206339068658275
   332   1      25.525469459536989       14.97195955857943      2.7263317091872428
   333   1      25.575129872229216      16.790691442093429      52.107580657301725
   334   1      27.417887119838682      19.480407129472631      51.903426245604791
   335   1        27.1625047286023       17.47454524340079      2.5237697161334722
   336   1      25.751015133091347      20.113122985641869      2.7670490837736041
   337   1      25.833958383863624      22.275920599141095      52.111082911301757
   338   1      27.461138961781604      24.852670569480068    0.073489658383237233
   339   1      27.026934661641821      23.005675807477761      2.6534215819234888
   340   1      25.770484357308984      26.053396318659043      2.8525530631672567
   341   1      26.071511074369742      27.655872944119206     0.17725383582079143
   342   1      27.424966554078527      30.359100813663218     0.10443411416634396
   343   1       27.48931100799788      28.664787685692453       2.630761457461595
   344   1      26.014574762644138      31.689440026369855      2.9448809704359697
   345   1       25.73741102310456      33.556060955311985    0.072375293252055842
   346   1      27.190333630111688      36.062175865596416     0.35881556802705195
   347   1       27.50109633351973      34.332130092169805      2.8666131568774293
   348   1      25.830649994835845       37.15283828465126      2.8883200241871001
   349   1      25.491455679660014      39.043047523345734      52.085575003049655
   350   1       27.50066426008993      41.776609506614776      51.830632200443304
   351   1      27.357975324854443      39.799296174579169      2.6660840831909223
   352   1      25.893875079855857       42.78837475160887       2.362487854341365
   353   1      26.104143191156872      44.616244791655305      51.938040877036222
   354   1      27.677653651789281      47.233225950524343      51.853651434640447
   355   1      27.425668677897942      45.422858439275799      2.8373678673905895
   356   1      25.906183875084182      48.156672800313999      2.2990757996633548
   357   1      25.810020769128506      50.347257111580049    0.041159411546758444
   358   1      27.417466070014772      52.863008047913205      52.001923980126669
   359   1      27.275386832870243      50.569646718472654      2.5136969597989176