dump/Mg_700_5/steps_51 (written by ASE) 

3995 	 atoms 
1  atom types
0.0      32.100000000000001  xlo xhi
0.0      55.598830921999998  ylo yhi
0.0      52.130399999999995  zlo zhi


Atoms 

     1   1     0.21498669280936505      55.534672681391179      0.4888788704496021
     2   1      1.5034257839371876      2.9746675090142372     0.14073732366748865
     3   1      1.8209112488236658      1.0104304871860701      2.6173597881282169
     4   1     0.07518713267933258      3.6141985634810765      2.7445619361418423
     5   1     0.21616785567181326      5.6038332039481622     0.29896987298448896
     6   1      1.8849309862154897       8.219485753254558      0.1827625557642151
     7   1       1.998421263793136        6.46451582263429      2.6207170326271032
     8   1     0.26017461816093213      9.1461924414493261       2.818115222229459
     9   1     0.48845986100044769      11.158813646462116      52.113885336226694
    10   1      1.7882937165151294      13.750383636851842      51.993569123953471
    11   1      1.5221508599861069      11.835046700650652      2.8583208418189217
    12   1      32.042647810833074       14.50513260846208      2.5809485282018749
    13   1    0.090497721669821299       16.62835854269025      51.939056568862476
    14   1      1.4834496709621134      19.179480661743888    0.012666913262601897
    15   1      1.8081996473741238      17.349159594464961      2.3667751971649547
    16   1      32.037444681639052      20.518342150371787      2.6029336430357408
    17   1     0.27128798066209342      21.967989207397579      52.073155405941662
    18   1      1.6291292713622454      24.944949430232771       52.05710567499569
    19   1      1.8898034737101757      22.794526841575554      2.4188932479783078
    20   1    0.087616118466555204      25.994792264261683       2.614523770079229
    21   1      32.042061333082152      27.880984439148747      52.033405360876017
    22   1      1.4639342968807947      30.489568342849147      51.951561320022023
    23   1      1.6510743799884631      28.581514898870445       2.412647906526272
    24   1       31.84179406185633      31.055899610983701      2.2820123652128128
    25   1      31.910617675982888      33.399892071131873      52.001018326184983
    26   1      1.7281601076908897      36.132318283431303      52.064913452892291
    27   1      1.5780118375398196      34.372736213911089      2.5753457590180786
    28   1      32.094253598159888      37.453139036151477      2.4229642207265569
    29   1      31.877069273829431      39.153519329228757      52.079690066409363
    30   1       1.609160468760064      41.873943624421685       52.11799113842865
    31   1      1.5714551197518905      40.185427058543965      2.4590664159842865
    32   1     0.15239062094603076      42.671912775981298      2.5602906568466217
    33   1      32.056976017573994      44.603326477097362     0.16114935480485182
    34   1      1.7817968451248176      47.289189854981664     0.11725388831886324
    35   1      1.8460901090849027      45.435995953060647      2.6833857221937008
    36   1     0.15188962448344548      48.426023279929282      2.6148392435722383
    37   1      0.4041511468947358      50.000058464642436      51.958098044143675
    38   1      1.5797658671873294      52.848990588903909    0.004020690545906566
    39   1      1.5227612506393402      51.263652639989061      2.6894943781690048
    40   1      0.5035060987398583      53.978145428309141      2.9292898816177662
    41   1      3.1492244241937595     0.23408119695757207      51.974003617214542
    42   1      4.9473754816401527      2.9172805623457405    0.021490267308272627
    43   1       4.708212581628846      1.0361209929442146      2.6142510561123964
    44   1      3.3227764353830413      3.6678135550771853      2.8021344327742903
    45   1      3.4060618714232036      5.3245860908245879     0.22290496241230137
    46   1      4.6611444441743357      8.2410763462509333       51.96661899247772
    47   1      4.9882102797097305      6.5840648794500849      2.6115528368170358
    48   1       3.378348374944713      9.1926303083271499      2.5591865356929784
    49   1      3.5543917571872896      10.969659328015904      51.885218409332886
    50   1      5.0973052351622519       13.66421475299679      51.753323817909617
    51   1      4.6682839990091569      11.727749510275824       2.510189879648181
    52   1      3.4101783309516387      14.348812089264866      2.2913032875531005
    53   1      3.4952211275921856      16.433501706401927      52.077404434049491
    54   1      4.6196605206969812      19.546338136946961    0.019018137223233672
    55   1      5.0309954040000742      17.767169694986197        2.50854765190061
    56   1      3.3430522615163238       20.07178835354328      2.6466310837955414
    57   1      3.3511987056606265      22.290925366243162      52.007638226437571
    58   1      4.6265342977690764      25.066056309419178      51.830274677770355
    59   1      4.7838312562761676      22.983443808948262      2.4012504858960417
    60   1      3.2001179221025282       25.76346885367656      2.4081262759179789
    61   1        3.08886384653061      27.966358661198388      51.950501939817748
    62   1      5.0261400981844364      30.350443705429136    0.078324937981321105
    63   1      4.7319187673728251      28.524445264224706      2.5133441408876749
    64   1      3.1757657161586863      31.526188316358059      2.3467441634748902
    65   1      3.0915342916309281       33.34642538527622      51.930917511289081
    66   1      4.7171734050905449      36.313887591123539      52.062701990748991
    67   1      4.7527170826365035      34.343406848890105      2.3050060815971491
    68   1      3.1228955721103402      37.176073973463886      2.4295704097621553
    69   1      2.8976982497650297      39.204303070842954    0.019097094048618514
    70   1      4.8368269588473591      41.560005098655623      52.031440408655598
    71   1      4.8636318568082286      39.524201726925035      2.4688590657989598
    72   1      3.6162075192677245      42.707115540973248      2.4135430259654842
    73   1      3.0078350355110519      44.598753840243333    0.037276943229488373
    74   1      4.9480473932488147        47.4181010386963     0.45648083222969404
    75   1      4.9222978103182804      45.380204838631776      2.7638858831362558
    76   1      3.3877462655339903      48.293226913816106      2.7446743650298386
    77   1      3.3320966653944173      50.190763045994508     0.22018495349210299
    78   1      5.0706869293312202      52.866887996959626     0.24277687329513076
    79   1      4.7540807729600054      50.887876003828829      2.8402420914210942
    80   1      3.5626936612173381      53.954385503486876      2.7689341543142505
    81   1      6.2196842856747745     0.15712113043807377    0.040669575444397948
    82   1      8.1155232971509861      3.1969788913724062    0.045299109790088624
    83   1      8.1294109593503947       1.211896432131637      2.3655737277919018
    84   1      6.5282456523736858       3.352223829925328      2.6859155333103333
    85   1      6.4823456821742402      5.9775295524398304      52.011341409727038
    86   1      8.4807109663927864      7.9862627532157004     0.27307765556990987
    87   1      7.9857198018026603      6.5642395054406011      2.7812671440466992
    88   1      6.3816130152821797      9.3600439205121191      2.7613632630702969
    89   1      6.5457157543796711      10.733342921546903      52.074350269616573
    90   1      8.2309700030816764      14.021787799744343    0.099330841357491345
    91   1      8.1769431297858173      12.240276585942985      2.5623477485864763
    92   1      6.4351477138838904      14.996504647154973      2.6795561188176302
    93   1      6.5828643147045467      16.571162491748183     0.13207410520960045
    94   1      7.9018274164658635      19.318571952246714      52.022001343612295
    95   1      8.3267442803424654      17.651323747820893      2.6087897567413187
    96   1      6.7491079883689542      20.211854564855329      2.6094534862547594
    97   1      6.5456004607742901      22.120283383537984     0.31798751198718334
    98   1      7.9749519769767829       25.36325263794641    0.075465329083730479
    99   1       7.978589057499911      23.332500930672897      2.2717097342206896
   100   1      6.3159390059117841       25.78509811549743      2.4637783669807023
   101   1      6.1067472724230774      27.760639210848204    0.040409667883712766
   102   1       7.869797550841942      30.577609532590699     0.13465279195312629
   103   1      7.9914905375173868      28.661358286097158      2.7442225164626501
   104   1      6.6514595815624569      31.494798081234741      2.1660823471161907
   105   1      6.0993019543519926      33.479217243614599       52.00664742211584
   106   1      8.0682295909187722      36.215209648260732      51.993868469881221
   107   1      8.0371611240901295      34.296556725945877      2.5256245133075543
   108   1       6.347557159603757      36.971175695211812      2.8574503159278208
   109   1       6.582202724063638      39.140484152581116      52.097564367991424
   110   1      8.0454123416175989      41.805164361342769     0.23659930879540067
   111   1      8.0889740841386395      39.663040808646748      2.6944043392633259
   112   1      6.6313858309120075       42.69022411796184      2.7991189460043864
   113   1      6.4214536288879973      44.389984312982726      51.969334863531927
   114   1      8.0431200431815579      47.237856235752787     0.16808960876007722
   115   1      8.0119892225543037      45.756321625360648      2.6722964480331908
   116   1      6.6668397372795685      48.646922770981455      2.9395837610122522
   117   1      6.5816735523393506      50.153709208695609     0.10960133467126469
   118   1      8.0704487394762321       53.00837012644913   0.0027034497813045138
   119   1      7.8411308034225113      51.227499783954862      2.4346920242947019
   120   1      6.9544541005618798      54.127901204616194      2.7378635870809847
   121   1      9.9330919353878269     0.28432268478085138    0.032653119253564455
   122   1      11.387623720959505      2.8404729026071323     0.14112350626269926
   123   1       11.42555878808996      0.9247860819541176      2.5569313375963447
   124   1       9.731025297979059      3.7637795629252442      2.8529279997017851
   125   1      10.435466952421351      5.6791008054477636    0.022541900419043692
   126   1      11.738568001001779      8.3885615169396921     0.10241060676740316
   127   1      11.317969697382603      6.8746912366273447      2.6267828854687481
   128   1       9.816295460828659      9.5987844122380945       2.532041869445532
   129   1      9.6657444495971898      11.208252333462385    0.060632457607029226
   130   1      11.437818846483214       13.79103846911385     0.09840831620308059
   131   1       11.37754638934387      12.198218564169999      2.6423461325502573
   132   1      9.7510470178423621      14.845978921165758      2.7902219501791503
   133   1       9.883192751180836      16.558054725406326     0.14959395826554697
   134   1      10.943490806164991       19.49506868231277     0.04216983765971026
   135   1      11.400879879315271      17.834693745565882       2.617811383495821
   136   1       9.461187722658245      20.709881999847557      2.5053804755088787
   137   1      9.7815105168788232      22.228267465831117    0.029428798336228353
   138   1      11.386891893334607      25.139431056841964     0.27694736867448799
   139   1      11.043541588405663      23.352956430023514       2.506824812121986
   140   1      9.5591257050020193      26.209084415870304      2.6360002518991124
   141   1       9.857177183138905      27.700528154679347    0.034541369987602495
   142   1      11.533849985534104       30.86643192400151    0.028512315420063161
   143   1      11.193828617101536      28.894794353033483      2.7079100856440559
   144   1       9.694156976876025      31.493068698349457      2.5956214096466246
   145   1      9.5918076506621972       33.52632939159021    0.041406603478114333
   146   1      11.373233650397816      36.310311427551845      51.979205949060166
   147   1      11.333800667877624      34.221262152560428      2.4694833933431881
   148   1      9.6245294722533945      37.122697862872684      2.7512837563885344
   149   1       9.701502183229433      38.952957880335305      0.1068221950047378
   150   1      11.701059301889341      41.449228647705866      51.841388996133119
   151   1       11.26676404307347      39.592568680602156      2.6191522565829568
   152   1      9.5080646643529683      42.686532931271145      2.6716462797063674
   153   1      9.7762414674300153      44.553003230641984     0.18279193400390528
   154   1       11.12207905674561      47.154285142284913      51.975799137431579
   155   1      11.432762681402775      45.259426161094488      2.5488012003106646
   156   1      9.7448992242388712      48.010636901976284      2.6785267662092549
   157   1      9.4864364679239213      49.823828112521561     0.19011804161357379
   158   1      10.944044063418493      52.473012858140237      51.943809521993984
   159   1      11.126786728325287       50.81634878320623       2.550124738966681
   160   1      10.047165106781636      53.812863701528478      2.4906643207543189
   161   1      12.975991403560345    0.037118257047546947      52.031420098129274
   162   1      14.762898597923257      2.9192736433485584       52.01033582981723
   163   1      14.449140538691003      1.2178930461335027      2.3766445695348724
   164   1      12.868036232774461      3.8515051348418385      2.4629504863757909
   165   1      13.309629097500933       5.649628796782074      51.881969111289898
   166   1       15.00631468222279      8.5729784797805539      51.546624665497944
   167   1      14.570895047792614      6.4271706089385301      2.3822025567428273
   168   1       13.04537869885448       9.346394493806482      2.5322777811200678
   169   1      12.877207716440395      11.087413423294239     0.16776293254124749
   170   1      14.556602243198347      14.087597566729439      51.924018152047438
   171   1      14.712752666381009      11.922147460568651      2.6667319563998144
   172   1      13.152959626905734      15.067524481897509      2.5465592325041224
   173   1      13.131202033511775      16.661437964218472      52.055600662009347
   174   1      14.394155817863865      19.645377441752842       52.09190827073396
   175   1      14.607198600078382      17.583267853721875      2.4071230831593469
   176   1      12.701678054902327      20.602742218837633      2.4652283922665172
   177   1      13.026508148421327      22.496210449530448      51.958638250700474
   178   1      14.247606326629754       25.35826470391082      52.078421330285053
   179   1      14.314478018484309       23.12530558296168        2.69165158235558
   180   1      12.809701814772888      26.282959399306058      2.5188562712172429
   181   1      12.823425383876266      28.207492771741045      0.1492901457858701
   182   1      14.612583804072024      30.850889870624453     0.16534189894148432
   183   1      14.600501065728968       28.86373407007591       2.557514156072922
   184   1      12.866503670808067       31.64558750111912       2.713831239947154
   185   1      13.116999690067136      33.530338571894212      51.938649712387736
   186   1      14.650843471852285      36.205023679840089     0.44291580673169589
   187   1       14.50589622214169      34.205942739205739      2.7160158690983338
   188   1      12.693069448330467      37.127078416267217      2.2864952959039337
   189   1       13.26124519289945      38.871076032366069      51.828761102026689
   190   1      14.721541290009547      41.645655851031265      51.839897656167203
   191   1       14.72138448449985      39.695662427776391      2.6047448047943269
   192   1      12.632552409229065      42.575501921825527      2.4495893299830911
   193   1      13.042363740815691      44.352755949050959   0.0068556134295048501
   194   1      14.216401862400048      47.337639182379768      51.978554397031374
   195   1      14.555243865087666      45.324249248937257      2.4273491679679644
   196   1      12.810590528397462      48.054982758900259      2.6727420230433401
   197   1      12.776339215795005      50.122503723897815      51.822958766497727
   198   1      14.245806705454122      52.874060289757026      52.041092753258283
   199   1      14.180058670591643      50.989904365847771      2.2262810151126335
   200   1      12.882822309950843       53.75904753786056      2.4519995574729649
   201   1      16.276237297445611    0.052277549643233993      52.078939961194763
   202   1      17.735950410702856      3.1227450496970053      51.725774951649484
   203   1      17.349239449791721     0.70195463543923653      2.6138961997277139
   204   1      16.237506787337761      4.1884878528841094      2.5315730855404515
   205   1      16.483399969092655      5.9920472761588126      51.916143505568265
   206   1      18.131356183955404      8.5796742572240703      51.984142863194613
   207   1      17.823206048208071      6.7656531512125175      2.3833854428145504
   208   1      16.355792289523475      9.2267599101490703      2.5455906376729711
   209   1      16.417575306738737      11.208752388781091      51.970039283477028
   210   1      18.059071560302876      13.923245357997693     0.11405381521305392
   211   1      18.183755334505584      11.971527047237165      2.3337142230012788
   212   1      16.313956025104009       14.82866075374587      2.6587667558218646
   213   1      16.204238239015005      16.660083716470396      52.095734228220955
   214   1      17.787540286526085       19.13079293584336      51.666579281138105
   215   1      18.029130674518431      17.526875821145023      2.7045250926507278
   216   1      15.919417191290249      20.447088683746916      2.5057466514196443
   217   1      16.098313655742498      21.989692189125865      51.920278404179214
   218   1      17.196185041764718      24.895623584177393      51.985955234699375
   219   1      17.527850460221366      23.111252520755293       2.517644647837459
   220   1      16.009232886688512      25.783049711095096      2.6400145187035231
   221   1      16.288535673323338      28.133137973844232       51.96689468383174
   222   1      17.693244626828882      30.399376351140631      0.1488717420547668
   223   1      17.666090402221233      28.610462201830071      2.7056333673253326
   224   1      15.972528275226308       31.84841422123359      3.1631690172329772
   225   1      16.356961057395424      33.190486201678183       51.98676903700035
   226   1      17.725240478479606      36.103697777531977     0.43714627379446214
   227   1      17.728985373478427      34.240338536173788       2.923057287857648
   228   1      16.247233898041305      37.175103354755144      2.5094260019865415
   229   1      15.963325523392749       38.81255689296411       52.09670207887423
   230   1      17.772869253106148      41.821255882610309     0.39049078530978426
   231   1      17.999025629676005      39.933050575267217      2.6994335510195193
   232   1      15.710174193651083       42.41905235965006      2.6756430721836684
   233   1      16.103369281018786      44.315343227002778      51.843042669399068
   234   1      17.431066104026552      47.264065245370809      52.073219519151181
   235   1      17.755767611162735      45.370200661908655      2.5972023788361627
   236   1       16.06575382559177      48.291219884733657      2.3473804120416295
   237   1      15.987076650745234      49.961065191654285      51.960361535467449
   238   1      17.710874520233354      52.763458809347448    0.064487890410440243
   239   1      17.253574614075536      51.105284860900454      2.8128370428378213
   240   1      15.943068014334425      53.845548248944048       2.832986020695794
   241   1      19.031846391581222     0.46317822032068351    0.013776283641907852
   242   1      21.137840887075821      2.6540317620075418     0.10290465335663167
   243   1      20.902496753217214      1.2717359035570288      2.7675741150742454
   244   1      19.177664078144829      3.7333590649346289      2.6027066134316326
   245   1      19.635528399512783      5.4538595357251012     0.18339183368831316
   246   1      21.520209959144285      8.5007371136774434      51.862781637039049
   247   1      20.892965778719965      6.7065519713708701      2.5553336763770997
   248   1      19.912596159034702      9.3004278748988796      2.3901867122102596
   249   1      19.861318993809071      11.201417231006424     0.10722722982989841
   250   1      21.306403038047865      13.710983121594445     0.23719687384370453
   251   1      21.644060521444079      11.854666327275151      2.7608407009856353
   252   1      19.428822318188566      14.808528641802827      2.7972500521570582
   253   1      19.456485519359919      16.475837763521856     0.16842258032783641
   254   1      20.815900983036094      19.054508977901026     0.10552896187268951
   255   1      21.027307667095531      17.304268450365267      2.8423843956926391
   256   1      19.258645853706248      20.336158439100554      2.3716773010062044
   257   1      19.171690466594274      22.308875812658641    0.012168842339137261
   258   1      20.852112047463343       24.57169776921835     0.21099044498102623
   259   1      20.533873018996744      22.856991402068527      2.8112598621832579
   260   1      19.403620828717663      25.844855631680495      2.7162078891352541
   261   1      19.219386428280892       27.51884622346072     0.33130720217296694
   262   1       20.75531231190369        30.1578294145611      52.078464476799496
   263   1      20.869376855860473      28.776659899891147      2.6161487122362974
   264   1      19.106679064204368       31.25444706486455      3.0073630307052439
   265   1      19.600339029724761       33.22209176074368     0.35010316298855237
   266   1      20.878789018580662      36.277532472486676     0.43603290460060273
   267   1      21.197514487802753      34.133631530806078      2.7702004051705496
   268   1       19.26919359644986       37.01347311982056      2.9775404470478577
   269   1      19.061466476890899      38.791281390551205      52.118409362582625
   270   1      20.946795217072449      41.521232532582722    0.049273946960193708
   271   1      20.950697336215846      39.654550645318729      2.6446470036662122
   272   1       19.62208199966144      42.591587203385004      2.6878843516085889
   273   1      19.568085995958814      44.129201402382122     0.27218736936657195
   274   1      21.080401818606635      47.350012227093757    0.058277912820103139
   275   1      20.935391203607811      45.361045895009298      2.4187597892064554
   276   1      18.911124639568374      48.147451583609524      2.5395808232926393
   277   1      19.123265614905272      50.254609740053894     0.29152373985928814
   278   1      20.864087942060799      53.552811998090689     0.11034439125884526
   279   1      20.715650276394896      51.198013141409376      2.5301560095430524
   280   1      19.232241869739813      53.768523356377642      2.4581251547364067
   281   1      22.474595669096011     0.42880334946051324     0.10011838776025436
   282   1      24.272926815126286       2.873158414275498      51.989036744950894
   283   1      23.928197178084424       1.179979295335944      2.6251808847655553
   284   1       22.71320216726216      4.0141529424149329      2.3971436726322404
   285   1      22.871469569508779      5.6405298811810454      52.067548422152051
   286   1      24.484800667591092      8.2945488725768453      52.122541752622382
   287   1        24.6082649062797      6.3592543380319855      2.4916560856497179
   288   1      23.048890559606029      8.9941860251083945      2.9188825238753791
   289   1      22.991047142814434      11.127004539776763    0.024774026298612722
   290   1      24.291946785267886      14.003668820522856    0.061846002833457502
   291   1      24.528089037885746       11.41069156463767      3.2253767507045126
   292   1      22.669370317253829      14.808642427178317      2.9388808805719182
   293   1      22.523417594049228       16.64966472856992    0.057535725472265965
   294   1      24.177307328362417      19.385932010903836      51.864973974245622
   295   1      24.258874430011851      17.513770371308055       2.691447147141218
   296   1      22.499578518469576      20.111495457163763      2.3911280921193212
   297   1      22.425642853850295       22.02334524391382      51.820896947447068
   298   1      24.063130829248884      24.931305357512745    0.067267925411267263
   299   1       23.78241968624058      22.883928972623345      2.5711938578444955
   300   1      22.313416841320734      25.605627368876704      2.7745032707233674
   301   1      22.594997861510787      27.543790745040504     0.13045852631061947
   302   1      24.321372147022725      30.487134255078931    0.093292471193100857
   303   1      23.781978372860038      28.185663320987889      2.7410757538197856
   304   1      22.839963962777301      31.175738510011055      2.6234407627923391
   305   1      22.458620143786671      33.082549592522504    0.050249862236178056
   306   1      23.827886307424638      35.974042550918945    0.089578884863678349
   307   1      24.126061865857782      34.296362039438137      2.6451305442833317
   308   1      22.617464553656315       36.90155861167942      2.6654963198461599
   309   1      22.045024942815964       38.82213017774842   0.0067437218772131782
   310   1      23.620899072979796      41.892651773818002      51.966646242641971
   311   1      24.159100998089219      39.956926476987647       2.538565038147083
   312   1      22.502992532182095      42.636335264414058      2.5621680209350095
   313   1      22.647606885133804      44.626327050927507      51.973115251076926
   314   1      24.016369781447995      47.452271142251703     0.33238577223923127
   315   1      23.761073866281038      45.258589491908943      2.3507888215425279
   316   1      22.568995728326318      48.480714700087127      2.7850891391910655
   317   1      22.344692819813396      50.385473113635314     0.14326146658761552
   318   1      24.219979742803652      52.949123488342771    0.031589919592588209
   319   1      24.426066870222357       51.15183365497677      2.7807634238501722
   320   1      22.474549458744395      53.933442893082116      2.6178809665849982
   321   1      25.843540310824238     0.32745810670689612     0.12777637121099031
   322   1      27.464264015127338      3.2265719596055313    0.081485242383602469
   323   1      27.563293640624387       1.149000709514868      2.7936115804058068
   324   1      25.957097366027082      3.9579193704876015        2.68856482129303
   325   1      26.237028930169295      5.4921564361314514      51.845775872644147
   326   1      27.773921884071108       8.340411107211807  2.7929236140153075e-05
   327   1      27.654432381563275       6.380645818518687      2.7184528709964781
   328   1      26.336883524788032      9.0848794791832326      2.5392162143650618
   329   1      25.903918892160036      10.884595862490981      51.996218515668403
   330   1      27.494288526446709      13.868236486372682     0.16376236273605535
   331   1      27.764526714077721      11.915746464358199       2.774414689516524
   332   1      25.789208482600703       14.53849197759822      2.5584207468406164
   333   1      26.011906821317343      16.670911846651268     0.20698765726294188
   334   1      27.288679903430708       19.46736307314848     0.18498297186687887
   335   1      27.596625872608122      17.616872132087906      2.5279445427177833
   336   1      25.919207511841432      20.477060354119057      2.8870864786472583
   337   1      25.711903442430557      22.162034033907627     0.20357333279032608
   338   1      27.434495869020417      24.867766776805002      51.935589887468737
   339   1      27.541937003794533      23.057898864717988       2.385515116378162
   340   1      25.733579479597317       25.63483197674374      2.5660506278977673
   341   1      25.661141905737207      27.532299139895969     0.11539402673827406
   342   1      27.353989326188831      30.750239008719525      52.017175425408396
   343   1      27.183960371795337      28.618349624119649      2.7147402092903161
   344   1      25.821733150102304      31.644711274687683      2.6351471662575094
   345   1      25.810542626410911      33.391659359310871      52.059091415759383
   346   1      26.916924421151101      36.122780264177635      52.050858981696841
   347   1      27.398904605749436      34.358479517944232      2.7429155019255997
   348   1      25.714385843219826      37.020461376081329      2.8078816172376397
   349   1      25.636006103506613      38.865256979386857      51.909499357812322
   350   1      27.010300229206397      41.558328713986349      51.896638645383184
   351   1      27.284034189031221       39.94431605355274      2.5913858306367499
   352   1      25.556091153229129      42.626829071406213      2.2511671833480151
   353   1      25.586480940310867      44.705324659990538    0.050592400852041121
   354   1      27.290796161741227      47.096624799802569     0.18611194285001434
   355   1      26.954961159500439      45.431079934448434      2.8070817431746575
   356   1      25.915897447077093      48.006134309319627      2.6785286206059449
   357   1      25.559477101083722      50.375845331018425     0.19970559477050354
   358   1      27.632767452904428      53.046122611723938      0.1361416328718103
   359   1      27.462277729572111      51.044602554990533      2.7730549225595662