dump/Mg_700_5/steps_71 (written by ASE) 

3995 	 atoms 
1  atom types
0.0      32.100000000000001  xlo xhi
0.0      55.598830921999998  ylo yhi
0.0      52.130399999999995  zlo zhi


Atoms 

     1   1    0.070193970605456693      55.306624128855965    0.027492389868979641
     2   1      1.5410299474035509      2.5756108210618058      52.074353017344393
     3   1      1.6690361087573371     0.73489250269686335      2.7043578632371639
     4   1      32.091918287538121      3.8171561727692018      2.6099678430147102
     5   1    0.018647267989922875      5.8245926084323552     0.18236832274034903
     6   1      1.5102244831475549      8.3878353994559376     0.14790057486212319
     7   1      1.6937006402305779      6.5328284339276035      2.5208206921766694
     8   1      32.044401123564448      9.3108105930049696      2.5595583507127873
     9   1      31.896179738280402      11.249807482736744      51.972052621892885
    10   1      1.1494108342312532      14.117846958984654     0.14306376036714072
    11   1      1.1873134105677658      12.262086905445711      3.0005057617441095
    12   1      31.973982513660989      15.148125449998803      2.7571893182366543
    13   1      31.462195839090107      16.649105667081241    0.064601796601217329
    14   1      1.3636135120934396      19.322318591143315      52.113067577580743
    15   1      1.5311584889678673      17.578894904448962      2.6236679232011189
    16   1      32.086025911654225      20.457806583609933      2.7047019774000711
    17   1    0.056405652574703757      22.247922796211153      51.948907525009126
    18   1      1.8400294169358984      24.798545774637038    0.042423847477129656
    19   1      1.4967969187062879      23.134464379526406      2.7305736502077704
    20   1       31.86339903100421      25.823789926999773      2.5502958457599871
    21   1      32.007400342026187      27.709322453625859     0.14319537651241185
    22   1      1.3864641153431767      30.554320116729553    0.097165755536054194
    23   1      1.3487918776165551      28.605360956230278      2.5094895642441326
    24   1     0.18246212670486761      31.676654241677355      2.5310091504555743
    25   1      31.905076506086754      33.271499208484315      51.832724352531905
    26   1      1.2589103140433449      36.335150368946877      51.987157570417047
    27   1      1.4168550271392084      34.625343765634625      2.3343639908658469
    28   1      32.017250959739023      37.182993425912962      2.3868419168597357
    29   1      31.784528003370013      39.004062459043773      52.076276735376027
    30   1      1.4125175598204143      41.991661625416761    0.053765919862787843
    31   1      1.3567102456807034      40.146008376680811      2.5454332661228425
    32   1      32.096865816559784      42.747985151125071      2.6766620305055935
    33   1       31.88422387297522      44.394212222893046     0.11660548835314054
    34   1      1.8646251839404893      47.405286432022578      52.032510711144774
    35   1      1.8333176137253901      45.222054921706963      2.3214774226421806
    36   1      32.008585448134504      48.110228889548118       2.484768847969903
    37   1      32.026897784770391      49.835274946997664       51.88807284841748
    38   1      1.9646609966672535      52.788020085203485     0.03964656342223153
    39   1      1.4839347145320552      51.047857991849163      2.6284796541179301
    40   1      31.980577113022488      53.607135607408686      2.5506282778110765
    41   1      3.3009149102147908      55.463194866178867      52.058132987158459
    42   1      4.7911415959754198      2.9298012842922936     0.04475855017148786
    43   1      4.5354914122262437     0.83013062851225561      2.4140901516514517
    44   1      3.2730525810436548      3.8150578502593797      2.5710896272167729
    45   1      2.9745984194641659       5.728755920946945    0.035619406635605103
    46   1      4.6239751249231036      8.3749696528028501      51.904531541635777
    47   1      4.9670282256676499      6.3401823367813002      2.7153525695731719
    48   1      3.1196845374043507      9.1801100249025769      2.6879217149901704
    49   1       2.765575174517144      11.396804546242526    0.063908926140833586
    50   1      4.8777943476667209       13.92714767911087     0.13747490571029558
    51   1      4.7072805273936726      11.960369907443839      2.6748416022989545
    52   1      2.9528064192666648      14.727067178090078      2.3920615800576415
    53   1      3.0420975707876465        16.5541026599081       52.09104629033321
    54   1      4.6289853724974606      19.602795139641994      52.069545731863251
    55   1      4.6050856577979671      17.539607381874902      2.4061324225858436
    56   1      3.0054923472315425      20.529693818847353      2.6264223717212714
    57   1      3.0343121820922776      22.214340809750798     0.30065732411069646
    58   1      5.1147198158896385      24.827724224188128      0.2351233575151965
    59   1      4.7916203756666329       23.16574457969682      2.5344752558281227
    60   1      3.2324806701178455      25.744434655874752      2.6614602330611778
    61   1      3.2673522129486203      27.328509796044528    0.078648225819250739
    62   1      5.0427921670075753      30.279607294049676      51.913978522613789
    63   1      4.8131593310944609      28.448493188710891      2.7469992528578082
    64   1      3.3832268678640172      31.243658563747246      2.5259711545946635
    65   1      3.1298909102647512      32.974246116571955     0.21403952344076008
    66   1      4.3306433818241388      36.280164192731959      52.099299124472118
    67   1      4.7047316580168701      34.442919310615103      2.3570535194604894
    68   1      3.0209365316298573      37.263015698640658      2.5954504702840069
    69   1      2.7452589553220559       38.93095865838152       52.08346481466458
    70   1      4.5159841161580898      41.698486942116041      52.121690381908202
    71   1      4.5230506077680808      40.002942837998539      2.6689994583556822
    72   1      3.0001738436501935      42.534917586062313      2.6452942099555927
    73   1      3.1889335984663894      44.718676846334382       51.93635625270678
    74   1       5.169945567042654      47.342860086390267      52.109756010999469
    75   1      4.8664244358727284       45.50389541692681      2.4868343879455801
    76   1      3.1593771771184866      48.259530240443006      2.5573457271513029
    77   1      3.5056121087387302      50.143503490509907    0.038096108933900648
    78   1      5.1626040540660982      52.820749897445666     0.34899291862234449
    79   1      4.7215928710614978      51.002189156858982      2.7261325645954284
    80   1      3.2325207860190379       53.74409937784786      2.7245765213025255
    81   1      6.1602946507665637     0.17284346135174694    0.074483522559968818
    82   1      8.1137386602727819      2.8697829340470755     0.16273981089196557
    83   1      7.6475073512949576      1.2371793187838134      2.7662734010540708
    84   1       6.561115913995013      3.8577881223721358      2.4286486004923313
    85   1      6.3248947254106875      5.7649415244094619    0.049541303524221633
    86   1      7.9889316301249647      8.2611093975415866    0.093967695438932242
    87   1      8.0264642241101125      6.7634713099209813      2.5641655748641199
    88   1      6.0843957537391065      9.4173102405285825      2.3417192186973459
    89   1      6.4533890291851357      11.123376822215954      51.967565418130611
    90   1       8.032057303797453      13.851023908340723      51.907443707869348
    91   1      7.9455478863013509      11.947713980456225       2.285165929526725
    92   1      6.3402737186609661      14.693099666555069      2.6532380828528903
    93   1       6.103824904263945       16.57415040658675      51.951547259539197
    94   1      7.8933957989374228       19.33574811658367      51.970290178121125
    95   1      7.8621788948776743      17.318558049095483      2.2256584529484549
    96   1      6.6270990554530194      20.610930204956766      2.5389212438390603
    97   1      6.3719414008044302      22.234729775222647    0.064011871924243471
    98   1      7.8972994439313986      25.119096082826399       52.12017922023702
    99   1      8.1330439252853157       23.17144076173485      2.5350597769167615
   100   1      6.4990049599950552         25.944152885628       2.643928143886352
   101   1      6.4535224614269913      27.500825367818472      52.063351016486244
   102   1        8.10738593182786      30.516812282395474    0.043262395919822304
   103   1      7.7496070219318662       28.94927419986772      2.8000126972306414
   104   1      6.4672625972395972      31.661025831751655      2.8038431286273662
   105   1      6.4533669808092631      33.432198276024984      52.115936353440524
   106   1      7.6742808000768497      36.284657822175596     0.25782391027492252
   107   1      7.8491971232158724      34.085503516089645      2.6092881406987183
   108   1      6.2194370287811402      37.070427903356681      2.6156747938789318
   109   1      6.1202003741769735      39.265229120499178      52.099944506990198
   110   1      7.8055862497193118      41.907725509845122    0.097929268045763435
   111   1      7.7783190537576248      40.075060419366928      2.5332820046522246
   112   1      6.1811044897828387       42.50781295912055      2.3842023104614647
   113   1      6.7764536376599782      44.514676949730976      51.917841985185952
   114   1      8.3894853211919287      47.379949263072653      51.868201751524239
   115   1      7.9339278339030246      45.349412997897005      2.5772632102074522
   116   1      6.4421293288203181       48.42571734433983      2.5693122394483945
   117   1      6.5428170444805236      50.207826186498963      52.097732239486369
   118   1      8.0493862627713337      53.012415504521385     0.14951240444204469
   119   1      8.2698597547627308      51.317286679811218      2.7507214263589379
   120   1      6.3768556986908749      53.885913094442941      2.9443064737880404
   121   1      9.5542279202925755      0.1183489236741882      51.890468269050871
   122   1      11.338165129576735      2.6387594973724462      51.963692054905408
   123   1      10.942543837630508       1.112004105000489      2.3345364679345435
   124   1        9.68754607956512      3.9722726386999034      2.5473132145502615
   125   1      9.6274862857568433      5.4361805607074931    0.054006762975967564
   126   1      11.480067048156311      8.2323427244999721    0.035962468357549932
   127   1      11.214954086967072      6.3332313531439119      2.3450224925878156
   128   1      10.060785572505267      8.9746635082674882      2.5056016695687617
   129   1         9.9996832332554      10.699259221263905      52.056657318289751
   130   1      11.185011419304779      13.799826951754742      0.2676152610927105
   131   1      11.420480815439497       12.02088703877391       2.593737519939507
   132   1       9.281446686574105      14.585976375215386      2.6794374960490059
   133   1      9.7420968389762201      16.678103203660175      52.032898762289243
   134   1       11.12127932003356      19.477950003702002    0.033210852107314268
   135   1      11.144261199184088      17.441777636097591      2.9162918942226299
   136   1       9.540688322967096       20.51058739742988      2.7914454206359998
   137   1      9.5506444259778629      22.209786652941183      52.119802205836713
   138   1      11.139393866480319      24.839719377385325     0.39659942403292803
   139   1      11.215952224542727      23.103288214508783      2.9222007178074101
   140   1      9.4837309374421306      25.991254792553928       2.815740242873725
   141   1      9.6405702345684858      28.045198421160912     0.27799629666333991
   142   1      10.992613890162476      30.594730064722768    0.079609388733277872
   143   1      11.042504118089758      28.939091957502761      2.6164865081501216
   144   1      9.7001540062675389      31.624432361487845      2.7678939199140595
   145   1      9.5418241312608654      33.520574465659806     0.14237284711706646
   146   1      10.944964388088833      36.230642786323287     0.26555978575153266
   147   1      11.035267296809419      34.344810408632533      2.6112301876053126
   148   1      9.6591463783486873      37.159397993245641      2.7527069267243909
   149   1      9.3883892795133725       39.19358747612003      52.020183482987399
   150   1       10.78645294849415      41.743737083248696      52.003856828233715
   151   1      11.148785516652531      39.797338087025743      2.6268122028606502
   152   1      9.5952059132107177      42.770154069554287      2.5203512220197051
   153   1      9.6471402972319531      44.555347987920051      51.972588656440884
   154   1      11.554135015040767      47.227603943109777      52.000503825777542
   155   1      11.227246804042496      45.474639632925154      2.3307031090402552
   156   1      9.5129195361772538      47.913731856327658      2.5504298092419408
   157   1      9.5236016606791694      50.479285456978076      51.874623869586983
   158   1      11.162007415167597      52.748694086287671    0.031067497943223665
   159   1      11.177304047327155       50.70760575133319      2.5798373226693587
   160   1      9.4416869982255438      54.121691806707886      2.6804753114369331
   161   1      12.955576969005481      55.552731493513342      51.946701802254893
   162   1         14.647857188503      3.0686948426085578     0.21005825394752517
   163   1       14.29782819116337      1.2839110303272132      2.3081291810046407
   164   1      12.815827154550707      3.8225234340659822      2.7418758940733312
   165   1      12.862708491274997      5.6345939763329778       51.95104342579905
   166   1      14.575892549028234      8.2450792782124829      52.001301029282196
   167   1      14.267003475701648      6.5571176270453408      2.6897685764793464
   168   1      13.076492824125701      9.4161118962269423       2.434163851163158
   169   1      13.105303068902654      11.109912816567023      52.009702024425259
   170   1      14.681212195622853      14.010975511188018    0.084123845780117057
   171   1      14.555380241904087      12.097667730077793       2.372678589970433
   172   1      12.789043247198675       14.67882652807152      2.5956199733732821
   173   1      12.783356502475478      16.757991369652288      51.899374754526555
   174   1      14.130307101198792      19.229761454781652      51.955608331379544
   175   1      14.361345326014801      17.385635438093715      2.6667147047209778
   176   1      12.691088806648052      20.470288092809799      2.4830107946977651
   177   1      12.513363718895059      22.179051057888209      52.043453405350938
   178   1      14.074444864393945      25.182996509932792      52.068500645549705
   179   1      14.443788944815505      23.209815656084519      2.5679209019059486
   180   1      13.139532480953372      25.891307116796746      2.6543499341293888
   181   1      12.827764517957872      27.926393846429136     0.37524195734827615
   182   1      14.386421691727852      30.677784156854869      52.117198209959781
   183   1      14.572932978548609      28.768757215024216      2.8252715919699538
   184   1      12.771302177962912      31.833637136022066      2.5471429695292591
   185   1      12.779922390675033      33.408769487454208     0.06486984992488537
   186   1      14.035310625367474      36.007663862043088      52.072802303015806
   187   1      14.274134758027721      34.574993450028074      2.6691909014142676
   188   1      12.583000911772547       37.12260575010442      2.8726171471458342
   189   1      12.798861581626763      38.975307705150428     0.15642978653283066
   190   1      14.333739005204674      41.629352435884243     0.21730565423915629
   191   1      14.458537733743837      39.946098642003363      2.4511774509303454
   192   1      12.727276609667273       42.63601343842204      2.8418384578690814
   193   1      12.823619087620933      44.230994196731579      51.924953989897517
   194   1      14.751027123879133      47.623771249855807     0.15681961883973691
   195   1      14.414732418298019      45.326757230052813      2.5846850419392733
   196   1      13.064964321397039      48.202018482893287      2.6548862885179645
   197   1      12.946368511942589      49.734926033872263      52.092139543847615
   198   1      14.443449021920467      52.875187039153182      52.058161284373483
   199   1      14.152522324096434       51.04242154726812      2.8407532688529291
   200   1      12.497530428042753       53.99489997029211      2.5317830477218619
   201   1      15.853625474289348     0.13156690941152488      52.111200587190005
   202   1      17.438254361370635      3.1019747073508008    0.038908098587711368
   203   1      17.501103763025011      1.1494865074492167      2.6671692528332116
   204   1      15.908419329936498       3.816858201779767      2.7142414454535366
   205   1      16.123545442669212      5.8228423285150797       52.08215428322071
   206   1      17.645104758604706      8.3447414329982141    0.050389493689426114
   207   1      17.746106081138578      6.4470357171400234      2.6882165372578366
   208   1      16.096963931676225      9.1159181944787679      2.4010248747204681
   209   1      15.958698629349767      11.214418691086941      51.888663993019449
   210   1      17.658478582382592       13.72043391003036       52.10620552082252
   211   1      17.485222581110435      12.010275990011033      2.6553718566934279
   212   1      15.913181253022545      14.944870068347772      2.6602681297435411
   213   1      15.884043543361612      16.873160259511618    0.010801094270339142
   214   1       17.17834243585424      19.697537028756994      52.021649700494066
   215   1      17.452590753417351      17.626473617216242      2.4317744148538747
   216   1      15.759655575168802      20.512837886509164      2.4826088024339494
   217   1      15.592523775085343      22.459412731681574       51.89885889197199
   218   1      17.384674124601602       25.01348247443855     0.12661416366224931
   219   1      17.764483479056796      23.162915580931806      2.7642183705767862
   220   1      16.116643935716379      25.951684302874167       2.925864344018251
   221   1      15.909252599666951       27.87424657187589       52.02582608599851
   222   1      17.343400848949901       30.57336675737514    0.068082332186769984
   223   1      17.729504197955976      28.844189119343969      2.8758372174002855
   224   1      15.706367298884162      31.501703042250849      2.8404697332308939
   225   1       15.89569794810796      33.511872573388665     0.17336638318828301
   226   1      17.716618927967822      36.186581250109867      52.006972961286422
   227   1       17.43787146449306      34.730152390652364      2.4301653657459039
   228   1      15.985982936481438      37.384343560047135      2.5554168636440124
   229   1      15.876959367871285      38.789007991797504      51.864147053402426
   230   1      17.550278116150711      41.549105456973031     0.19184742288219805
   231   1      17.594714646050559      39.889982387532768      2.6461529995188897
   232   1      15.990491618159972      42.575082963206356      2.6116165586408027
   233   1      16.072961427572238      44.272856336141629      51.726586218241664
   234   1       17.77879528026736      47.119596835584332     0.25441022521081608
   235   1      17.632621487707926      44.930774628204333      2.3716060413817432
   236   1      16.048710590476936      48.199200884770441       2.783021858051177
   237   1      15.930986603937818      50.015088390227511      52.127059190058198
   238   1      17.707373172289088      52.792323183583484    0.029820089129149782
   239   1      17.053033700755869      51.021444679060423      2.6293190345876201
   240   1      15.613590313722025      53.658980029666772      2.4710884744664674
   241   1      19.072312926656686     0.11890753329125116      52.060299978730058
   242   1      20.987924211432034      3.1042145665529257      0.2963099668165719
   243   1      20.739885976241347      1.0198193624906655      2.4807566180581389
   244   1      19.140009891408329       3.856843679968506      2.5262537805994385
   245   1      19.391039419203235      5.7222739489675885     0.10650603556802581
   246   1      20.812117340086726      8.4653946955259052     0.23279956658316206
   247   1      20.827474640433159      6.7221491342117785      2.6962862337887916
   248   1      19.217626756344412      9.3830880504331038      3.0693214555519086
   249   1      19.164766134067694      11.064900251770545     0.18010989130703975
   250   1      21.135734892441963      14.360248895122522      52.129330425737429
   251   1      20.790421668299164      12.357329941497408      2.5648535983272054
   252   1      19.108646177974595        15.0487431801497       2.499585531060216
   253   1      18.870698749640667      16.900893576612773      51.961804483361782
   254   1      20.548631460752052      19.294282625613548      51.710872004994094
   255   1      20.679708175603512      17.653564459813843      2.6039948602156398
   256   1      18.889958170809209      20.275598192331795      2.5208025940278596
   257   1      18.964500492660513      22.253671031250814     0.13313765941399827
   258   1      20.735211605264041      24.870691875995195       52.11785587165307
   259   1      20.746015748611484       23.44196972991752      2.5203113636476209
   260   1      19.260002170464741      26.059526313819134      2.7647191008929894
   261   1      18.937864635135824      27.635444767834841    0.073303566427543806
   262   1      20.494959849489334      30.323569890162045     0.15763786338198654
   263   1      20.939291071027149      28.612349719790284      3.0192193195933474
   264   1      18.959314927823421      31.834754460757612      2.5850080987547361
   265   1      18.816893362553675      33.233098478580473    0.016305312218156065
   266   1      20.841820444694456      35.740974268571982     0.13647322590851044
   267   1      20.534654651219252      34.234586151005985      2.6058956728386224
   268   1       19.18775034426816      37.175079620367136      2.6627561769809187
   269   1      19.355405237671636      38.719359612446553      52.033503361746796
   270   1      20.792736018114496      41.520211550885769      51.924667845501325
   271   1      20.684440573888178      39.838192792910576       2.555293845444901
   272   1      19.164449338029236      42.535363934495983      2.5572609782765756
   273   1      19.144728416388286      44.239299260399441      52.106307497723265
   274   1      21.065970168310209      47.007213398228117    0.077328641611705648
   275   1      20.767682137669865      45.415458802153182      2.6445991470545906
   276   1      19.249977801544617      48.152531912291906      2.8701873760832299
   277   1       19.13636957911794      49.838925321341833      52.095517946619964
   278   1      20.575060585062417      52.872054408946425    0.066939014673379885
   279   1      20.702200336384593      50.823127555394677      2.7095819153226586
   280   1      19.003148553954606      54.023821088287043       2.727490742356526
   281   1      22.262037216179252     0.17806235526709061    0.082474793200578753
   282   1      24.066998883609177      2.7912546963303266      52.074692297735069
   283   1      24.033043487880118       1.152877426297102      2.5880364916211231
   284   1      22.361449940585402      3.7381979106130734       3.020552031330701
   285   1      22.560566825357739      5.7858157848651857     0.35498514167974177
   286   1      24.218069288879185      8.5246470078703602      0.0819397646679738
   287   1      24.094358410036683      6.7511338070600484      2.6639448756078181
   288   1       22.60726476312033      9.2196859028775897      2.7559787848128279
   289   1      22.139241584367046      11.278186520435607     0.22951748385548801
   290   1      24.081951698961525      14.343900978948426      52.112771477788058
   291   1      23.920175072435008       11.90589570819262      2.6180458213997944
   292   1      22.545820798036612      14.906290008814391      2.5889704325545506
   293   1      22.088060644015695      16.887374665935432    0.025910016136793907
   294   1      23.653541520314239      19.755126554589239     0.21379772604791061
   295   1      23.531473602684631      17.761959430289799      2.8590401694517253
   296   1      22.109302079743834      20.405910538711971       2.499563027660642
   297   1       22.56084170491793      22.444609879023169    0.063274237368390454
   298   1       23.99264874748712      24.983295140782836        52.0261935778531
   299   1      23.810891140182946      23.317976530424065      2.6371446012409572
   300   1      22.389696075635484      26.005478108033603      2.8667559670187299
   301   1      22.050756208469146      27.671383966888136      52.065267750439794
   302   1      23.902872260711142      30.183621437894338    0.087357296989167485
   303   1      23.910010040532541      28.668324391205068       2.709373570097021
   304   1      22.454470066556723      31.494914309532295      2.7664301025910336
   305   1       22.37491895741379      33.072653017880334     0.21703711973967996
   306   1      23.928022843134791      36.058634796089471      52.090285811666902
   307   1      24.208359756713929      34.097349458090193      2.7657694713780465
   308   1      22.427673786095689      37.164700287603694      2.6700585486602715
   309   1      22.396750583237178      38.788618249397615     0.22304088742500933
   310   1      24.031197945366593      41.718722818211504      52.102729984765638
   311   1      24.218526968141749      39.667843048229663      2.6670821835401499
   312   1      22.240851451553628      42.070289761299222      2.7517297537061669
   313   1      22.362897706838993       44.30643499077803      51.980538520913385
   314   1       23.94381876384768      47.367600538494017      51.996460060599517
   315   1       23.96706573106351      45.361179353263026       2.499267494676332
   316   1      22.380020645290497      47.988287789553148      2.5863272593272497
   317   1      22.058726256158362      50.038503619084615    0.015560502038412123
   318   1      23.834803138071535      52.915436595797964      0.1202445878020551
   319   1      23.841874509640085      50.909261481443579      2.3942363324456495
   320   1      22.373191992338139      53.769307790362845      2.5237874634192448
   321   1       25.57818146980075      0.0787709391540415    0.046650800650546359
   322   1      27.292950469115798      2.6351659259946514     0.27054823401662587
   323   1      26.869529409561704     0.68233324246437832      2.7862019791093133
   324   1      25.755697980889764      3.9319852692071944      2.8896008858617952
   325   1      25.570349562011668      5.2301226184569343      52.107710991545204
   326   1      27.080506375651741       8.344010880581191     0.20992784266197598
   327   1      27.229989290535187      6.6470056395512147       2.729011807605509
   328   1       25.67014446961441      9.4779583567933159      3.0716459978922148
   329   1      25.531194834001077      11.316920140849536      52.010619642306494
   330   1      27.160051678511309      14.109929687031194    0.056040777532324337
   331   1      27.104444136685537      12.405358647183478      2.9150184213554051
   332   1      25.506137153403309      15.427729383985996      2.6917224055259026
   333   1      25.422702543591566      16.904197434199858      51.928285877468426
   334   1       27.38362201105684      19.729041771799082    0.048876612761498489
   335   1      27.385501185241555      17.711267315926307      2.5913392600428953
   336   1      25.615674504027048      20.198055261840977      2.6627624352237778
   337   1      25.652945792459075      22.283769330363135      0.1285581382294245
   338   1      27.110231435788627      25.018626261157742      52.125263800385071
   339   1      27.167385917075645      23.289366883178864      2.4223428820077277
   340   1      25.546014677834382      25.719641632155817      2.5441280002944882
   341   1      25.554236524683393      27.599229525919895     0.27578997176964737
   342   1      26.900154119027185      30.422555935883867     0.13054550193471356
   343   1      27.103036022924385      28.847785060650555      2.7897633078409902
   344   1       25.48304878788047      31.445569356966303      2.8067488847030684
   345   1      25.754121202553321       33.39093925201864    0.013629273841530785
   346   1      27.093809046765958      35.978494001794758      51.718997725383339
   347   1      27.306770999488005      34.252201090968477      2.4774823681187801
   348   1      25.523190752238079      36.961632321972495      2.5321765134661853
   349   1      25.598427628399396      38.822425897325061     0.10785765764505637
   350   1      27.113450958752789      41.645591573053103      51.652353965407649
   351   1        27.0425332184459      40.209388145090855      2.5236329679302361
   352   1      25.116205738856813      42.470660360885319      2.8105133579434476
   353   1      25.769262247793321      44.432656229973567    0.022741271043176938
   354   1      27.286423565077289      47.236727151736012    0.081511934608540018
   355   1      27.228379811607486      45.423379256872167      2.5180041245944667
   356   1      25.757755142126868      48.017216225632062      2.2517891961219032
   357   1      25.830313236227969      49.892966099534583      52.103383053301272
   358   1      27.181801997814201      52.805507947543958    0.097023767660740098
   359   1      26.938485504864541      50.723407331474142      2.6262593769215186