dump/Mg_700_5/steps_11 (written by ASE) 

3995 	 atoms 
1  atom types
0.0      32.100000000000001  xlo xhi
0.0      55.598830921999998  ylo yhi
0.0      52.130399999999995  zlo zhi


Atoms 

     1   1        31.9886448929234      55.394815344944327    0.029118286370910497
     2   1        1.75283137493996      2.8922118594671993      52.086287089395469
     3   1      1.5014667122705183     0.99840358461731438      2.6035586184337993
     4   1       0.338841894367717      3.6271156713561332       2.405127962258768
     5   1      31.988467841162283      5.4138472612122603     0.12315019350364943
     6   1      1.3171173736565951      8.1311143735377041     0.16267301263075212
     7   1      1.7215681809363219      6.3069960095976381      2.8519138726481206
     8   1      31.832718311400868      9.1815739822880715      2.7094948144352067
     9   1      32.031959914026878      11.108051218967816        52.0823948312959
    10   1      1.7781156282107562      14.047452214326665     0.17186765632028708
    11   1      1.4595897525575769      11.764415787791465      2.6833911153631775
    12   1     0.15900854087511895      14.630178788558792      2.6982354847192589
    13   1     0.11321202769177457      16.708872790616702      52.041364515490898
    14   1      1.8498263095534679      19.311709233278819      52.071883083661866
    15   1      1.5799110797162954       17.68069823532279      2.6364119272586195
    16   1      31.951208406232389      20.476804991610457      2.2664299783041324
    17   1    0.062932922026043281      22.013484386882507       52.04825077506635
    18   1      1.6977576175261371      25.074489940300868      52.018059112441684
    19   1      1.5684924868748598      23.147090802322818      2.4376683606118386
    20   1      32.056052097214348      25.833689334383752       2.495990601043645
    21   1    0.049746957314654991      27.627318628983662   0.0035147174580462876
    22   1      1.3441982276548794      30.340783389920105      52.047314833451438
    23   1      1.4038068964104369      28.775532778853933      2.5237253621960765
    24   1     0.24325469159656668      31.661015536304692      2.5065742747356659
    25   1      32.041932272287831      33.452444793539414      52.029826582033074
    26   1      1.6768552494465501      36.057971311467576      52.008007042924312
    27   1      1.3576102031894173      34.274836149958929      2.7720603801317831
    28   1     0.10851157540821776      37.219617211106076      2.7476513375018161
    29   1      32.075293844866664       39.09873697636209      51.815269069230588
    30   1      1.5647627854234158      41.939307942260143      52.106809803062013
    31   1      1.3786844809863783      39.945988946922895      2.7955358838788871
    32   1      32.036653148340839      42.498718099922101      2.6107163946371443
    33   1      32.034360260797932      44.397246767034872      52.130377473845471
    34   1      1.8170603489547437      47.596427964630742      51.925231182746458
    35   1       1.537939678287833      45.145534863904402      2.4184728270128946
    36   1    0.046994741828863013       47.89328658297044       2.569796674842721
    37   1     0.11891859036439051       50.06335618500102     0.32561676048097909
    38   1       1.712230199009847      52.914754948805218    0.070625128548831309
    39   1      1.4586601582928143      51.020954556390556      2.5886636114311172
    40   1      31.756899619405974      53.969278227753151      2.7716585103162141
    41   1      3.2296497793019983      55.511419110654629    0.044988181538651757
    42   1      4.5949584635309044       2.571616918182841    0.091425841035264105
    43   1      4.6520403428012829      1.0272011683225561      2.6414993089267176
    44   1      3.1316515119418677      3.7965543249688691      2.4446570592396522
    45   1      3.1848526346374566       5.538862640824183     0.10464922703283219
    46   1      5.0690959741957613      8.1200765067410536     0.20711189890148204
    47   1      4.6749107517824386      6.5263684968794742      2.7681699190866524
    48   1      3.4849062132586379      9.1964688374094496      3.0090117117262642
    49   1      3.4172916913541087      11.014095600046506    0.058416240807851752
    50   1         5.0339749662147      13.543311057405894      51.821310973127254
    51   1      4.9520478809844546      11.945158423514558      2.8747765371471639
    52   1      3.5090487720206309      14.685052255429023      2.6269906530582032
    53   1      3.2088682364284096      16.458621936494428         51.871571977037
    54   1      4.5664021711419061      19.387396295861357      51.933898597162298
    55   1      4.9502992700340904      17.338898450873767      2.3631149661623847
    56   1       3.153152177368443      20.308875470150245      2.2889522027989457
    57   1      3.1942750765987999      22.264689664310662      51.921912730556535
    58   1      4.8301000901961677      25.027861538313989     0.23914414098332878
    59   1      4.6561591236030218      23.110948037015785       2.544821932079715
    60   1      3.1543194933584355      25.770115044535174       2.447490489885586
    61   1       2.961882374937709      27.999861301678152       52.01592045158192
    62   1      4.7578048525369248      30.574434632422825     0.18209196281332093
    63   1      4.8001223790213698      28.555742304891822      2.5458447999210083
    64   1      3.4430329599251639       31.84458446963859      2.8420709372055626
    65   1      3.0862203234111965      32.918155823933461     0.23475958998447638
    66   1      4.9538607618707653      36.294959695695773     0.20027021812228901
    67   1      5.0682973565232645       34.42444803762131      2.5740824519217669
    68   1      3.1515552755300322      36.837020130161406        2.64896660490363
    69   1      3.0242775752634952      38.763676631106762      51.979778215103536
    70   1      4.5662568291158383      41.824548451586011    0.062687590003024221
    71   1      4.6402620461015145      39.533697920757035      2.7661822556288045
    72   1      3.0076180956994376      42.298977636212769      2.4851235111730769
    73   1      3.1625971904673831      44.701956095100122       52.01947299280706
    74   1      4.7026393909947855      47.446533422700661      52.060500212477749
    75   1       4.736454881915388      45.363187926549344       2.490138840678259
    76   1      2.9462488898054668      48.222863002688364      2.6572483662932345
    77   1      3.3711148142030964      50.077267429186477    0.081324692601769777
    78   1      4.9551253148232002      52.813082446614473     0.22557580335529825
    79   1      4.4491768289331963      50.902778246253888      2.7304503228151185
    80   1      3.1495932367540873      53.813766151184765      2.9437681800221158
    81   1      6.5137820452741089      55.449200212018908     0.21626783096892849
    82   1      7.7145511615876767      2.6827933402375566     0.29638445808271979
    83   1       7.774610989623187     0.81365506179372493      2.6872865113910209
    84   1      6.2222474767041174      3.5989518196530939      2.7756206943286559
    85   1      6.5067712176175405      5.5796920723457033    0.010599357202360162
    86   1      8.2405565651588315      8.3234042532029164    0.020960358660515342
    87   1      8.1235668948405166      6.2890412267467228      2.5869503839497372
    88   1      6.5438602381593025      8.9261356592483381      2.5085422283694663
    89   1      6.6251150557833833       11.05059717086464      51.893452477031452
    90   1      8.1433380636244905      13.740932448198311      51.883224972034981
    91   1      7.7554425683610955       11.98786402466553      2.5464246314864512
    92   1      6.9080297037313736      14.957956885125085      2.3647135962643002
    93   1      6.3467648327713579      16.435572462416705      51.908384546685284
    94   1      7.7904059131737897      19.565895449388204      52.024328381260176
    95   1      8.2445026114249913      17.564891837989109      2.4048956389740135
    96   1      6.3875119098988122      20.054608737336665      2.3272104908450735
    97   1      6.3995590758622729      22.531638198248377     0.19795395162067594
    98   1      8.0023627738498799      25.071706344163385     0.24908230782733146
    99   1      8.0736538591081448      23.002084455289065      2.6247250904381993
   100   1      6.0699184979704217      25.883868684672741      2.8654036440690396
   101   1      6.3684663087658162      27.590831797407649     0.11513953049413088
   102   1      7.9272928320096572      30.527878161320146     0.16605808951425871
   103   1      7.9577569798927916      28.473022465395186      2.6042088350026629
   104   1      6.6698474673878705      31.270992939745692      2.6739235057162389
   105   1      6.2355272731863991      33.269956382993811      52.028947300929161
   106   1      8.2806645389647695       36.13350958360747     0.20052873774649502
   107   1      8.1684092707476772      34.232438822943166      2.5552452178911298
   108   1      6.4197223009079405      37.082671696023809      2.7709005797125852
   109   1       6.110540379009989      39.005631938822368    0.043302119267536562
   110   1       8.095312494835829      41.214637735803784     0.25543102271007151
   111   1      7.9105481392036641      39.720179771140998      2.6336843764365576
   112   1      6.1827820813291092       42.21425324317768       2.449429402754689
   113   1      6.2777719088192967      44.550323993898154      52.100770418828063
   114   1      7.8350906186868707      47.344866235950981      52.111161890973968
   115   1      7.7711238081867693      45.248679851938867      2.4351265434920379
   116   1      5.8836952804844778      48.310616287933478      2.3109013135210383
   117   1      6.3922970856344179      50.039647008682252      52.058760155006041
   118   1      8.0455419224475904      52.599376406626234     0.11123651164344184
   119   1      7.7214021624251625      51.036365806488014      2.5047422658380909
   120   1      6.2529434799353396      53.859277929279891      2.7964564043691769
   121   1       9.503031400975317      55.519969326086724      52.124515266488906
   122   1      11.227630287534446      2.8442716715692797     0.15005950250440622
   123   1      11.018921456156662     0.80694999774332177      2.7559201465679242
   124   1      9.4879484476543983      3.7383054040638215       2.883926145027135
   125   1      9.8011097884809502      5.5956025083788425      52.067033184245936
   126   1      11.359035832279089      8.4908215125656756      52.099778128038132
   127   1      10.985738551833858      6.8003370324105639      2.4847173344162017
   128   1      9.4698450550951758        9.52545359625746      2.5015947506312837
   129   1      9.7587363517522334       11.23745480082864      51.996348437709152
   130   1      11.390231931598555      13.802432624956362      52.052315880898227
   131   1      11.255251896749442      12.085954726099308      2.6514357917027995
   132   1      9.7770321818200951      14.643257189932692      2.6640947112418871
   133   1      9.7437831105174091       16.50814612002139      52.076414261585846
   134   1      11.350321164381699      19.357730226439923      51.932451630403925
   135   1      11.546228279844707      17.581179433274315      2.1308688001142193
   136   1      9.5677501991322433      20.406480711455149      2.3912231583066017
   137   1      9.7597750324143693      22.115734570840786      51.947821182691193
   138   1      11.158998440401886      24.888130365136476    0.041207399211968018
   139   1      11.371798367135094      23.248454454902419      2.9087970759673185
   140   1      9.7547551209627912      25.773559190300215      2.6162106608747551
   141   1      9.4052035213904368      27.858822074732156      51.905108887198324
   142   1      11.406070786461351      30.375014313806801      51.947347599506358
   143   1      11.002042022003954      28.610150188118826      2.8002911549218137
   144   1      9.7596508839264065      31.393156456605293      2.3996826909433771
   145   1      9.6314386438906272      33.023219108195143      52.010620085315388
   146   1      11.528933574726569      36.054733054554511     0.16476678487843255
   147   1      11.338271579327825      34.060920758901766      2.8299033238649489
   148   1      9.5549079847260039      37.028877501885269      2.8351380341516581
   149   1      9.6067841758762711      39.312672668249178      51.998467707154191
   150   1      11.326410112206908      41.879984290891095      51.967502548415936
   151   1      11.173741502456627      39.605136819171406      2.3708075639079889
   152   1      9.5706335463696224      42.482507584148472      2.6496069607406096
   153   1       9.155728010696178      44.062946836957209     0.01683742219634558
   154   1      11.135054401315303      46.901225192860657      51.909979292698608
   155   1      10.789760758436195       45.20161092976408      2.5287137479420965
   156   1      9.5343772933752522      48.067135412830304      2.5982928608514029
   157   1      9.4215512467049063      49.940843077723123    0.020277877046022793
   158   1      11.259136242074305      52.847125092999335      0.2476161468420785
   159   1      11.204480361234445      50.949552701291594      2.8301117548298409
   160   1      9.4532531966811053      53.730374662847282      2.6100171701195229
   161   1      12.552875871947172      55.548077985841914     0.51798174429530219
   162   1      14.570358070446128       2.892696797423906      52.014445352318937
   163   1      14.282744563388327      1.1540913696099042        2.72509627889497
   164   1      12.722874746823898      3.8358195690437742       2.520673788212453
   165   1      12.823821385546063      5.7672178972140156     0.13427944137264369
   166   1      14.298496399421515      8.3988350186183105    0.041798835061900082
   167   1       14.48085038282988      6.6336299819944342       2.508370251263714
   168   1       12.50709180678664       9.291870236864348      2.6071421706723341
   169   1      13.003795534671116       11.09735476385154    0.052116657371118168
   170   1      14.667082075283096       13.80350554074707      51.719349821573736
   171   1       14.54056162546313      12.433092541018366      2.3177809758081147
   172   1      12.851798651117145      15.008281953655516      2.5895510537307427
   173   1      12.932195163118461      16.405707311363074      51.797759778694846
   174   1      14.459380182353248      19.490869199425077      51.948710900557089
   175   1       14.64483835777297      17.674553227139082      2.3820293529143455
   176   1      12.741067213156635      20.497467405416174      2.4646554657724682
   177   1      12.492510161316208      22.010480943535601      51.972961998297492
   178   1      14.483875363137408      24.952738412375759     0.35394453103906792
   179   1      14.336951755443366      23.253609245345743      2.5330907450022844
   180   1      12.869968395893471      26.018586718993429      2.7347881306925972
   181   1      12.524566772000696      27.742082779032025     0.19217945156109784
   182   1      14.482707663962271      30.760808467316625     0.11401401637306947
   183   1      14.092800012583542      28.732932086954278      2.6251335427613567
   184   1      12.742770081828006      31.494032851657575      2.5980786772131017
   185   1      12.518304888043728       33.32443726751022     0.22663731622807337
   186   1      14.315327144308485      36.244388659508296        52.0500414487217
   187   1      14.585092515628736      34.280772971969412      2.8003775820623797
   188   1      12.884727235325508      37.119026592368812      2.5508507270410785
   189   1      12.763378368415127      38.792314991013974      51.600850006834492
   190   1      14.291008437265276      41.503515923546807     0.16642847291306237
   191   1      14.349839572854915      39.729874725998862      2.3558346076628962
   192   1      12.581834910051247      42.461703085398412      2.6055732016957327
   193   1       13.09037104654702      44.378632748990881    0.061634547803952139
   194   1      14.471947724409233      46.902604494803953      51.938200002780057
   195   1      14.531989785078274      45.529002254839945      2.4865392179025987
   196   1      12.604547556079925      48.094249545605166      2.7330688776858154
   197   1      12.275169256233902      49.670165976049596      52.072346618702802
   198   1      14.253378911468827      52.930241774303525     0.15836675169779166
   199   1      14.111674899623914      50.860242417637259      2.4609882990405123
   200   1       12.55216623271629      53.604118836342543       2.687616448196763
   201   1      15.854067523881989      55.535290517703402     0.11671474857486706
   202   1      17.674362273438863      2.8258738750668271      52.076148685434539
   203   1      17.479076675931172      1.1776272017318936      2.5981915742859298
   204   1      15.859081378427602      3.9138700261800423      2.7313998830626067
   205   1      16.192237364958764      5.5178136705319165     0.10737617059193784
   206   1      17.530223378943724      8.2001295583298646      51.993354395956509
   207   1       17.46383272579213       6.536189763695285         2.6703165417173
   208   1      15.748174200993118      9.8207547163662703      2.5258885831782605
   209   1      16.426543961634476      11.158348142714461    0.029768444539644959
   210   1      18.259843393712149      14.023043623830555    0.034022947526163645
   211   1      17.889863789957065      12.165180688751201      2.7082408836294474
   212   1      16.305544372480593      15.197586045412045      2.3926425526124881
   213   1      16.135212966283344      16.777272023681704       51.88611469105259
   214   1      17.773654982305107      19.578415666007668      52.066458100094138
   215   1      17.659452519788431      17.942606273691524      2.5170133026412707
   216   1      16.060268013685963      20.688973378982396      2.3352616339977978
   217   1       15.57932793623592       22.32765795229907      52.083006897216386
   218   1      17.709746709083177      25.051249267367464      52.050451078843992
   219   1      17.570276534988661      23.190690429528505      2.6042902817039497
   220   1      15.830449378533102      25.940871571870581      2.6217543427537646
   221   1      15.975001542290048      27.640718150518698      52.032722057597105
   222   1      17.646973401881958      30.704531037901123      52.007835359769039
   223   1      17.617146226261951      28.962744789635515      2.6383467526343454
   224   1      16.524711295735241      31.662254297880516      2.5579075812500776
   225   1      16.002038794669105      33.525756207667442     0.33115786289257632
   226   1      17.771377819975708      36.321776706713379     0.11032599114687704
   227   1      17.644916821445797      34.562118656208391      2.4631315861161669
   228   1      15.917325571786501      37.123676299651301      2.4466644156723829
   229   1      15.854420938082631      38.783478092859362      51.964409638804867
   230   1      17.735590625318096      41.870552367275295    0.070588033349130136
   231   1      17.476899234153176      39.808622072933517      2.4106184404947917
   232   1      15.796420367578875      42.364937509339128      2.6314990835958341
   233   1      16.174153517928826      44.459525790262191      51.980097244016967
   234   1      17.818625873972898      47.142424179340743    0.074933969897449187
   235   1         17.783590368357      45.419385574243393      2.8473068926169138
   236   1      15.827128177288548      48.531813276226984      2.5542675092084823
   237   1      15.801752901693414      50.315245473838928      52.128228209373844
   238   1       17.42981772594198        53.0154489981118      0.2518489065374519
   239   1       17.53586987908977      51.206546404336095      2.6645306646323497
   240   1      15.679930210606438       54.04681987962342      2.7376686226677083
   241   1      19.088781069942829    0.081680978672712234      52.092521467639841
   242   1      20.565079352389382      3.0794933529203243       51.96962402165979
   243   1      20.574890687763105      1.0920648362710599      2.1668636210523951
   244   1      19.110465115106336      3.7054637150916636      2.7048017713011721
   245   1      18.922759291418544      5.8074999080499738    0.058008667823266143
   246   1      20.481889149557109      8.6580120636328424     0.16064970806765391
   247   1      20.851663153413657      6.4066940879086829       2.426141247253518
   248   1      18.984900069499226      9.0330533612054644      2.7184232917818791
   249   1      19.368650378172887      11.398376677228038      51.974230376070587
   250   1      21.135075610031606      14.136322147798813     0.36669953474948508
   251   1      20.943896103267154       12.04679221728702      2.4202754817088215
   252   1      19.407444586181427      14.982906571267151      2.8112570846034548
   253   1      19.467564703842417       16.97614119980409      52.009775576645914
   254   1      20.800785083030174      19.640422977954316       51.88453463623933
   255   1      20.902222253298621      17.840147716886175      2.4244726674881307
   256   1      19.498575809139716      20.534593749751515      2.7517643143734811
   257   1      19.430880963162778      22.288303838541353     0.34637301154628358
   258   1       20.91377039195822      25.005699770131077     0.21074511809042462
   259   1      20.591779738176378      23.388928608151804      2.6794176363190507
   260   1      18.666093565625683      26.135442443318027      2.7401052837068169
   261   1      19.294727140939397      27.677848881495994      0.0343047694772129
   262   1      20.740308600809783      30.459052134354259    0.050722496288550481
   263   1      20.767881275668817      28.604651148183915      2.5379060429318465
   264   1      19.357440339909612      31.601613972556578      2.6013167654421272
   265   1      19.036147188201866      33.322631709046256     0.29015966261844889
   266   1      20.452681927347829        36.1033945241469     0.20656540083613678
   267   1      20.438565893482071       34.08822726929602      2.7618382805579071
   268   1      19.488707853289391      37.236776262511185      2.7631395666255383
   269   1      19.440137611366442      38.943862526005304      52.079953403291483
   270   1      21.044412901106273      42.019748617055697    0.037911669836964951
   271   1      20.906811448395981      40.266364035037263      2.5531335426200514
   272   1      18.994062812437818       42.60727573360095      2.4359665128820365
   273   1      19.161347882280367      44.563251553617128     0.23659397933030701
   274   1      21.172967517624812      47.343536672527016    0.030730895492387306
   275   1      21.016792702539256      45.195937042482463      2.6076082425807097
   276   1      19.044130139918096      48.460853432999862      2.9989580369550604
   277   1      19.100365015514623       50.08080919752085    0.095166365961831492
   278   1      20.560365065239733      52.848493925242366      52.093549718892554
   279   1      21.133472056549412      51.273750117738018      2.8082723661669817
   280   1       19.26023722634163      53.819847580344153      2.7818065334047204
   281   1      22.535979967921207      55.572335075598026      51.890615268734635
   282   1      24.249581732411418      2.7933000254532638      52.119083607443947
   283   1      24.405801744045242      1.0511230635188256      2.6246518617977608
   284   1       22.52439368728519      3.7761591264005094      2.6418323871662737
   285   1      22.585915388689042      5.4477725906144716      52.093681861293874
   286   1        23.8694901232764      8.1993437972747962      52.030784834120901
   287   1      24.022541649629016      6.7421496407459927      2.5380836958911965
   288   1      22.528108315190771       9.112973532260451      2.4437320822695798
   289   1      22.611410804500384      11.038511024518622     0.12846575664638105
   290   1      24.059667844270898      13.960217011713381      52.017683898965863
   291   1      24.412380601869675      12.423625228785932      2.5555962884788994
   292   1      22.704806270776817      15.226071259895921      2.9040781242451428
   293   1      22.844875614788243      16.981231293512582      0.2261297407044604
   294   1       24.08546899710522      19.702724994784386      52.015275291163903
   295   1      24.151760814186776      17.883728369762974      2.5494147751609106
   296   1        22.4732123939799      20.331752753100506      2.3388823598737947
   297   1      22.266003974682025      22.064063565627357      52.033302310963315
   298   1      24.035632414567814      24.966478592056674      52.014448715870607
   299   1       24.04830620006998      23.187222885505822      2.4422257130567187
   300   1      22.286109282977336      26.190237391784603      2.7975387379367098
   301   1      22.331541217598847      27.650126855199538      52.128210872524711
   302   1      23.932324977555119      30.766178849668417    0.063795475203177812
   303   1      24.131414968683725      28.860761670617308      2.5934465854467295
   304   1      22.453105003523849      31.664551926337083      2.8263449572418309
   305   1      22.401123921579945      33.710573359619566     0.14281680842510883
   306   1      24.395506609751664      36.102576603977099      0.1811335162460801
   307   1      24.224208316082152      34.414366378621786      2.9214939260578938
   308   1      22.507201076907336      37.133846040287366      2.4310774766177161
   309   1      22.383285055323714      38.870872382626409      52.094190860606567
   310   1       24.06591975024396      42.057165882604195      52.115316066958179
   311   1      24.216979857661105      40.088971454395313      2.6664454911822171
   312   1      22.918434784580242      42.520007591272652      2.5005377736302217
   313   1      22.587256095768726      44.672544900280521     0.18716297455325279
   314   1      24.105106105350131      47.310206505982393    0.083258965108326158
   315   1      23.920228274775866      45.345811163265132      2.7431581535462657
   316   1      22.554267506116886      48.327068544873732      2.6105969039207557
   317   1      22.293339897633565      50.258902069093352    0.049442006190154084
   318   1      24.358281778275895      53.116917413766558     0.17291938087164871
   319   1      23.983925724777247      50.936629640169556      2.5681095081193321
   320   1      22.724791656685465      53.859587453161957       2.559292756903353
   321   1      25.482278346812627     0.10312893346028415     0.25542891618057839
   322   1      27.013237166239485      2.7859458643938755     0.12537870261123427
   323   1       27.39614390819111     0.69664658239018074      2.9244148009453914
   324   1        25.6979162510296      4.3656453601348888      2.7535212105775226
   325   1      25.588969498742735      5.7543500397871732      52.090793054370828
   326   1      27.094525818266945      8.4491136883607343     0.11157424244829113
   327   1       27.31001679755704      6.5190566693879992      2.7708088930460266
   328   1      25.606143550458807      9.4031533489385595      2.5010445336204001
   329   1      25.559372283627351      11.160398777070316    0.070167876891138042
   330   1      27.289370434404422      13.855239255469014      52.081362091660836
   331   1      27.376398626535281      12.066939143848364      2.8233775118256617
   332   1      25.953611544103996      14.957144864847917      2.8200209191573102
   333   1      25.865540443041965      16.570174775429397    0.023152720399993099
   334   1      27.061893763591748      19.377691917670173      51.387690860774271
   335   1      27.067435689112621      17.844692485108251      2.3572291101556706
   336   1      25.572481262123731      20.402483272506426      2.4880990049436131
   337   1      25.922239677352859      22.233818799143481    0.081098073203150461
   338   1      27.219728457517014       25.16920493046635      51.881139407144843
   339   1      27.131618995057906      23.241845923105355      3.0139319213793399
   340   1       25.49722505391631      25.888417222893082      2.5041689227675277
   341   1       25.25081927622233      27.896422182055499      52.051887921219439
   342   1      27.481000409214939      30.494390484491845     0.36624390739055185
   343   1      27.235379202267417      28.548143196816529       2.895738189340296
   344   1      25.465502369438827      31.730174887884331      2.9963274161994313
   345   1      25.714542793334914      33.482173501416625    0.080138507035396864
   346   1      27.362720093813991      36.172616865685121      51.966393556698094
   347   1      27.511044928070987      34.128274109089858      2.7928442741042807
   348   1      25.925435193938537      36.882745264762917       2.731018385136752
   349   1      25.531029716766756      39.324836650807924     0.15648092645372039
   350   1      27.459939719051754      42.003521452888847      51.979517781043803
   351   1      27.283847225583916      39.794155675981507      2.6117428383632206
   352   1      26.006076092745754      42.643166155505384      2.5934212235819327
   353   1      25.788056849812939      44.557488414809839     0.29943975647023113
   354   1      27.606883195340867      47.256990581255018      52.073445374503187
   355   1       27.64538891548192        45.3744181221305      2.6535206134937046
   356   1       25.46284182901795      47.994057517422256      2.5697283531169046
   357   1      25.822000123267244      49.934160937322559      51.961734533428647
   358   1       27.56147031518876      52.947752342982824      51.914270771675426
   359   1       27.29572695483526      50.744297839321753      2.5673626748972698