dump/Cu_400_20/steps_21 (written by ASE) 

1980 	 atoms 
1  atom types
0.0      25.526554800834361  xlo xhi
0.0              25.5265548  ylo yhi
0.0      36.100000000000001  zlo zhi


Atoms 

     1   1      25.493466327685315    0.032480360053443215      36.025930806898486
     2   1      1.2280499274064389      1.2663863836845171      1.9322762573422767
     3   1      25.462083103677482      2.6163045128101072    0.016537445293272397
     4   1      1.3338918261710466      3.8873580491570165      1.6628036994399504
     5   1      25.449022014244797      5.0487323662026542      35.852120448366556
     6   1      1.1549476831742456      6.2654007836180634      1.7446027525526351
     7   1     0.22982866619335418      7.6461981260515355      36.076584781116765
     8   1      1.3286156846426875      8.7631532099338063       1.810857720215461
     9   1      25.495968663560152      10.373427066096603      36.099256954451775
    10   1      1.1688929214493722      11.480136754427171      1.9022930573134653
    11   1     0.13404114089362149      12.825840734804986      36.039104003249456
    12   1      1.2335927198900845      13.999118631371873      1.7854102842943229
    13   1    0.028477526764071285      15.339410139418526      36.046018969170845
    14   1      1.3625170339008505       16.45860761776623       1.928367617702655
    15   1      25.418025558042142      18.002335534047603      35.968424297890444
    16   1      1.2892375298243477      19.178110648659242      1.7287006015930604
    17   1    0.026148132256968132      20.441820543574902      35.976198644853262
    18   1      1.2854456943087129      21.745231311572244      1.6700281974850448
    19   1      25.411958919006373      23.102856761366084      35.997065760185563
    20   1      1.2513516708851871      24.309381142709142      1.8575146042244681
    21   1      2.5008198967847788     0.14030984982924155     0.22490170360937339
    22   1      3.8678803149626662      1.3135200264074107      1.8703125380834067
    23   1      2.6067043294092915      2.5795995862578551      36.090300108360132
    24   1      2.5111173117624204       5.030791559001627      35.970157369911632
    25   1      3.7473364813636514      6.1424500387881169      1.6091917768504904
    26   1      2.7264016291620501      7.5053462921855498      36.073563672055698
    27   1      3.6780826871203103      8.8077875209073184      1.8126890689922808
    28   1      2.6099567251210902      10.034749667915067    0.080710001611157781
    29   1      3.7228791399770613      11.354672673764059      1.8890278342692906
    30   1      2.5940506994634447       12.61082062411562     0.04221754203497307
    31   1      3.8010263274836724      14.037069923641408      1.8346279771736038
    32   1      2.5941448343280231      15.286819406560216     0.08978079833316327
    33   1      3.9000571683841496       16.53993015500744      1.7340428778560295
    34   1       2.554529433223895       17.89072786530997    0.073515504618376401
    35   1      3.9381962353842073      19.141584913933514      1.7378067077226667
    36   1      2.6324670024372292      20.367000087893505      36.013245149615784
    37   1      3.9032800278395205      21.707222657468876      1.6058080825549712
    38   1      2.6989268545798231      23.137857807888256         35.982951496016
    39   1      3.9880931347013782      24.228991286384321       1.917589866083153
    40   1      5.1442982300317466     0.17668807993709348      36.064543792558567
    41   1       6.336398012380605      1.2438269770987602      1.7138120277570008
    42   1      5.1365634033345078      2.5365911964530818      36.027576431031697
    43   1       6.108412517552873      3.9076782003487041      1.5975159822515372
    44   1       6.262374562660999      6.3009811035984322      1.7745960792877224
    45   1      5.1124791627753119      7.6400614205591912    0.017768128278760276
    46   1      6.2027203662504435      8.9926523841175428       1.826762802061012
    47   1      5.0064868031640399       10.08743794040786    0.045329571288345825
    48   1      6.5028835108429996       11.39045034070865      1.7455566586611668
    49   1      5.1541815647729861      12.652720319806471     0.14085511684672844
    50   1      6.4220124001861283      14.011921848199222        1.86594310051247
    51   1      5.1551509822822075      15.247852070662905    0.018760827206949663
    52   1      6.5197458707963358      16.490669867718296       1.893988472735203
    53   1      5.2044465944484219      17.926233011144699      35.922579482816978
    54   1      6.4227348260160957       19.12350094078495      1.9112926573021598
    55   1      5.1810152829605638       20.45115614637265      35.960126783130612
    56   1      6.4932047694431034      21.656533585464665      1.6399111870473124
    57   1      5.1017596324840433      22.956255529820364      35.907051371105496
    58   1      6.4307365822638296      24.127983449552186       1.590680089348838
    59   1      7.5346235127757479      25.218026905455478      35.995250614797889
    60   1      8.7610070473702617      1.2042712418410799      1.8384395537389882
    61   1      7.6377974223509728      2.3958689723013107     0.10058310098864934
    62   1       8.901043789427872      3.7566592953905462      1.9078963854949846
    63   1      7.7279281447930419      5.0031619716816351      36.027460969203837
    64   1      8.8575170535167267      6.3470341654314515      1.8683102462418342
    65   1      7.5620090885734328      7.4701583899209556    0.017097285387751546
    66   1      8.6988218911972588      8.9445930761988883      1.7483677747655291
    67   1      7.5062909685768817      10.155573672400086      35.901698952171323
    68   1       9.059496361033526      11.408547534896936      1.6188619732505698
    69   1      7.6054449636330217       12.60985270223607     0.02313041254582231
    70   1      8.9603989393055468      13.945115753880369      1.9551613937202306
    71   1      7.7285354051033472      15.163823381319293   0.0089907839743545975
    72   1      9.0223416216499608      16.536316042500722      1.8757346594499615
    73   1      7.6859974014103383      17.655101242252389    0.073853706542990796
    74   1       8.907240887745191      19.004359710578996      1.8678137716192633
    75   1      7.7220732701099664      20.225810752187165      36.040621285556995
    76   1      9.0334796909718005      21.596086705995475      1.6924982888611557
    77   1      7.6184877197997771       22.90800205430649      36.048406222383456
    78   1      9.0187082798845566      24.247693295902454      1.7814573904873083
    79   1      10.190706350047147      25.351375932307647      36.062278021798868
    80   1        11.7078785926803      1.2015348588951131      1.7364673343272219
    81   1      10.220113210182898      2.3244026440837651    0.023000651396932879
    82   1      11.593641199846301      3.8929870157749962      1.7572138747984472
    83   1      10.143693727169286      5.1061533152125653     0.12347440324377891
    84   1      11.408675397536296      6.4380021014364033      1.8388188522348181
    85   1      10.217878813999718      7.5777796408066482    0.077593020422614317
    86   1      11.525567445625025      8.8411954523019372      1.8004847800455179
    87   1      10.254433818956551      10.111913544451674    0.033179815858852615
    88   1      11.540996067222991      11.677670315937993      1.8435701263271893
    89   1      10.269077701209348      12.914686479138096     0.17162061235545714
    90   1      11.543160699451542      14.013823220518629      2.0493776793589511
    91   1      10.301741161943506       15.35708424166903      36.042266091998556
    92   1      11.515661264545413      16.621025489990068      1.8895941099661633
    93   1      10.227395695052765      17.759823460437097    0.021914548379743336
    94   1       11.45583487402182      19.121780642585708      1.7487302950896146
    95   1      10.308460659548629      20.261335768888095    0.013538663328961323
    96   1      11.359927460503082      21.767532429141767      1.8556416228406094
    97   1      10.124880090977651      22.884760340640874      36.040956306760911
    98   1      11.472879626457139      24.271740754007229      1.8755288100982157
    99   1      12.864814376434394      25.438674902219745       35.94714823056939
   100   1      14.298394998681283      1.3222431344974359      1.8171945180843845
   101   1      12.888686402140838      2.5736519585309834   0.0066018934084809185
   102   1       14.13820261599334      3.7959984037820202      1.9711160721278256
   103   1       12.79092837363979      5.1150044549926417    0.064157364267987446
   104   1      14.099202053694059      6.4674622374901496      1.8368758372796836
   105   1      12.886021811046756      7.6928151672848264    0.012212574937768743
   106   1      14.034517602905998      8.9099763217514667      1.8827560988826575
   107   1       12.75877496292159      10.105719166390278   0.0064614743890501914
   108   1      13.884959829469839      11.578029411166053      1.8037031403139727
   109   1      12.788373201241379      12.807748849756027    0.043095181589001247
   110   1      14.044320405277304       14.05311535251608      1.7683941207160829
   111   1      12.832104178114507      15.280725808270883    0.097200301484303989
   112   1      13.906744407201264      16.413207266704877      1.8805423599789506
   113   1      12.798303222965608      17.764284279652557      36.073855039139616
   114   1      13.967667098702741      19.114125591956867      1.8279583419696557
   115   1      12.883848748965791      20.447314345406536   0.0028730930542792497
   116   1      14.039494219466462      21.708882078938004      1.8523134583190641
   117   1      12.667166591115942      22.911637307159342    0.092572290506939076
   118   1      13.974626423456005      24.233713296124019      1.7626015586559345
   119   1      15.315102271400118    0.079413586531733929      35.957098046728298
   120   1      16.675032992199007      1.4359878543301681      1.7949449466641445
   121   1      15.484679661501433      2.6658062952171329      35.955164028322528
   122   1      16.598327344723195      3.8659648633081116      1.9096659500378672
   123   1      15.352848952705456      5.0322942369077523     0.12514102052390419
   124   1      16.541678146765729      6.4371171947497539      1.9151306691180952
   125   1      15.354574332280917      7.6372704822748396      36.085288159398566
   126   1      16.622760468026708      8.8961247968065056      1.9320515915365033
   127   1      15.504835713663299      10.346026970797478     0.10463802397240451
   128   1      16.644943393085356      11.579004263368127      1.8628389033208004
   129   1      15.427223983491576      12.761121559939919    0.034626059933225414
   130   1      16.603571993014778      14.095923634025519      2.0048491586360213
   131   1       15.25463360784798      15.340646352813394     0.22667669173411012
   132   1      16.525163492547126      16.544435528858525      1.8605059697118222
   133   1      15.315413573181852      17.899029022422734       36.07899753060407
   134   1      16.605176569090244      18.973289642106025      1.8671724652914239
   135   1      15.324090939565602      20.524582505995873      36.078233430649156
   136   1      16.526526420846146      21.721039061856008      1.7673293696955501
   137   1       15.22947758465572       22.95734379272611       36.07995264427479
   138   1       16.49774186652526      24.312191401700947      1.7786758917926824
   139   1      17.933492226350541      0.2516578793158028      36.097978231712602
   140   1      19.148030415419839      1.3109958728214406      1.9138485033449908
   141   1      17.847280248343626      2.8360699193429331    0.035136516603620278
   142   1      19.135783901770722      3.8210125761345735      1.9451926294684552
   143   1      18.060012234461585      5.1807170079728584      35.947252683911834
   144   1      19.098149584896099      6.3571800927153692      1.8774846475014886
   145   1      17.758361337784617      7.6893568240095682   0.0091232415135550551
   146   1       19.11600854422737      8.7602393987791718      1.7428777220476834
   147   1      17.823135714090199      10.325273503674159    0.023718158445490193
   148   1      19.103869524099892       11.61647138736789      1.7297504646278747
   149   1      17.862067542328745      12.711731574012466      36.063889991767489
   150   1      19.257500755936267      14.181167283273377      1.9313051283135556
   151   1      17.874692220467363      15.326976672519072    0.071941194718715573
   152   1      19.053381720581644      16.718089317447831      1.7264020980565313
   153   1      17.765493952101757      17.788190001815771      35.978267257346921
   154   1      19.135106249108226      19.241118018601426      1.9021314333142656
   155   1      17.671194938423984      20.440854274101483     0.10284124445840925
   156   1      19.110319500316681      21.664323360801003      1.7246560781311808
   157   1      17.737037212236512      23.110660832527593      36.068023201503344
   158   1      19.049145232045273      24.063781724510697      1.6404788305035591
   159   1      20.341692245768016      25.421121420638197     0.15706987716595219
   160   1      21.696313605379274      1.3245574406194733      1.9213365640666322
   161   1      20.377007458867489      2.6831638498892785    0.059946079473354417
   162   1      21.502791131176469      3.9151077132062824      2.0061732511279176
   163   1      20.512089315776617       5.184644819599078      36.086749063293553
   164   1       21.59760946971927      6.5628354916720459      1.9450586128492873
   165   1      20.454711468410451       7.710819849643225    0.024693523019107051
   166   1      21.743470438138583      9.0148369927436498      1.8390613265453455
   167   1      20.433648032150316      10.377668409255664    0.092593354404346143
   168   1      21.724551502940006       11.57006244345769      1.8210923385748503
   169   1      20.407421164726514       12.90815974152326    0.076467236800283528
   170   1      21.744981810733851      13.976615665166353      1.9094298857653256
   171   1       20.44834605114643      15.240059596246967      36.082245503492778
   172   1      21.611253275937933      16.570675633656759      1.7023548776780097
   173   1      20.324637444601318      17.914248700403267      35.864885254876889
   174   1      21.582809290398739       19.00934921442202       1.662156342063406
   175   1      20.248139524244944      20.317267759685095      36.060937135699724
   176   1      21.583954030700159      21.638871947122102      1.6723401600271346
   177   1       20.43599116959594      22.929063921346582      35.990313700290251
   178   1      21.681384351792893      24.150918119093326      1.6620175553122634
   179   1      23.063591257818917    0.054850374844713862     0.11926315026408922
   180   1       24.25061301443063      1.3378917202297256      1.8566489370907666
   181   1      22.877276575639662      2.6925184899790149     0.13941504248686004
   182   1      24.198096479620261      3.8138147158442544      1.9265315449649263
   183   1      22.979666651402788      5.3002183862768524    0.089258725720014795
   184   1      24.300482315463434      6.3528845030174423       1.830189252631909
   185   1      23.079882838847038      7.7408840531118868      36.079185594620725
   186   1      24.366352215396617       8.988751108303612      1.8824472577099973
   187   1      22.842837025769096      10.262907361363972      35.982879131694382
   188   1        24.4096892820818      11.436002743340035      1.8071997513014015
   189   1      23.076054484756789      12.865146504762809      36.063160298996486
   190   1      24.200722923324221      14.013470886798205      1.8905536546741826
   191   1      22.934684779095356      15.389594331985634       35.97679059482558
   192   1      24.307346476871523      16.518862662381604      1.6560619219725949
   193   1      22.938463944969165      17.847400714453187      35.921612652784511
   194   1      24.183840169587288      19.118252888681276      1.7111158653053153
   195   1      22.866135009956825      20.451436888394369      35.927624563075312
   196   1      24.201374096375222      21.751306488836658      1.6403511310138825
   197   1      22.841613780391427      22.784797589055888      35.954077396201328
   198   1      24.177037466044371      24.250242086697639      1.7798651786039283
   199   1      25.454917138748275    0.089565137935849318      3.7313056486965235
   200   1      1.2786230563566683      1.1981467259042833      5.4500381620232785
   201   1      25.452549076943047       2.555035432338673      3.6252247374997317
   202   1      1.1428796340092671      3.7943262504340991      5.3031607060955421
   203   1    0.070022664457921033      5.2370212195353076      3.6984763229886219
   204   1      1.3718630103883827      6.1299958966600938      5.4260356757737291
   205   1      25.402637744506961      7.6630127226398095      3.5222099435028675
   206   1      1.3579314288236544      8.7008756054294167      5.3042046411716388
   207   1      25.497101846384844      10.194655072959746      3.7377236749993439
   208   1      1.2862900259615146      11.384731733787891      5.4444384018597161
   209   1    0.078272091858231321      12.692981379478896      3.7199331049184878
   210   1       1.280792411484786      14.022555935276214       5.522647684331754
   211   1    0.011592181647792738      15.227329403535865      3.6195546054848968
   212   1      1.2686959859770819      16.610378054372475      5.2438417066593095
   213   1       25.41468664006938      17.769928035693844      3.3811948114087618
   214   1      1.1560370571031362      19.116476140049123      5.3535152171702309
   215   1      25.489584422734527      20.519820347235004      3.4310868007707547
   216   1      1.0115455252771428      21.681529590177565      5.5117518639202521
   217   1      25.498759050841336      22.982849670001396      3.6327693976989486
   218   1      1.2854741491311235      24.152207557862454      5.3385273578679469
   219   1      2.6103637927536165      25.515238945023498      3.6236889748594092
   220   1      3.9045832161754737       1.181114294551022       5.412354139426971
   221   1      2.5148899945054701       2.398199537938384      3.6749982082855399
   222   1       3.794841436644838      3.6721511996945986      5.5096089283969985
   223   1      2.7464025141309127      4.8515860393093755      3.4723855073203489
   224   1       3.830083945464076      6.3310583052451825      5.3880034614057619
   225   1      2.6192837083956206        7.31320384197753      3.4956076602372033
   226   1      3.9170887152533558      8.7801714271512257      5.5822957417569965
   227   1      2.4903881000996551      9.9624794777174106      3.5883195839443265
   228   1      3.9144555154592093      11.317546270034999      5.2817831337870764
   229   1      2.6403378376521753      12.727928810869253      3.5899396103496217
   230   1      3.8574925501031894      13.922521322265924      5.3354755318608893
   231   1      2.7009789919312683      15.225479261082979      3.5414952283191825
   232   1      3.8138553970140534      16.455723956679972      5.4745833082035542
   233   1      2.6460904616501724      17.909777503824383       3.590443962548306
   234   1      3.7897289178188092      19.105373789240709      5.2996500307444476
   235   1      2.6053768119875245      20.365834013012872      3.5068906143992176
   236   1      3.7018111549828876      21.658235753091944      5.4394165351826542
   237   1      2.5049146099844544      22.923429541763223      3.4559041492110047
   238   1       3.795121628873432      24.134984801177033      5.4268877980647101
   239   1      5.2929502561831869      25.350061814254143      3.5865411762877675
   240   1      6.4864427460834246      1.1894499804534915      5.3701026448679219
   241   1      5.1306569545167102         2.5720354339284      3.5899456117305717
   242   1      6.4398858716485519      3.6973795683066362      5.2844205796433483
   243   1      5.1210149989454941      5.0036289599694292      3.5686505964541309
   244   1       6.369000651175023      6.3893566538110793      5.3683366964060522
   245   1      5.0898833826461756       7.709285280173054      3.5484591153116982
   246   1      6.3172274576651359      8.8892295501296754      5.3510674782962253
   247   1      5.2352464929963585      10.278011183544269      3.6601297354852003
   248   1      6.4087121035216992      11.435108981444149      5.4055896738830915
   249   1       5.161435472932169      12.596258257212892      3.4656832407743301
   250   1      6.3479173094071148      13.885222578675043      5.4462286793834984
   251   1       5.112482938207445      15.268650289829804      3.5566610251391007
   252   1      5.1958839303791873      17.837503121535129      3.5821169566350606
   253   1      6.4961087314131643      19.043268401836372      5.2045303664746436
   254   1      5.3173826185677697      20.418401192675848      3.6740329081837153
   255   1      6.3630882626554088      21.735474567830149      5.3898312716238177
   256   1      5.0722014659797434      22.856335843599798      3.4924050862053932
   257   1      6.3385462023734069      24.279134149699431       5.583074467569106
   258   1      7.7794975407455276     0.02227288008909591      3.7200548845098993
   259   1      9.1067071655061955      1.2120848939320257       5.494763045708428
   260   1      7.5552773282670014      2.6087752135551558      3.3733403127008033
   261   1       8.868469635976556      3.7642089658048081      5.2787874239840269
   262   1      7.6855197421342707      5.1464821067023916      3.5702737984356427
   263   1      8.7925574661351611       6.354976757189033      5.3750711427206088
   264   1      7.6413150222790165       7.682380962112644      3.5780363829559403
   265   1      8.8630027766131185      8.8460072018841469      5.3660983993909133
   266   1      7.5674339217122091      10.131010206988298      3.5626827918917794
   267   1       8.972253293328345       11.31645730986064      5.5022158637222347
   268   1      7.7521042478231728      12.742670127766281      3.5938934582191431
   269   1      8.8879259483849484      13.933446508663408      5.3619401032583758
   270   1      7.7119970610936539      15.183928260647688      3.7336015109032843
   271   1      8.8522524135153393      16.636476928986806      5.4284508275559915
   272   1      7.4945816074389402      17.707382998348077      3.5095865125554031
   273   1         8.9626403041964       19.31583019406639      5.3194001205579129
   274   1      7.6663079298992551      20.433686141450867      3.5287170548027329
   275   1      8.8204100874081082      21.781057612543584      5.4597087458457967
   276   1      7.6652575332259545      22.997775960123771      3.4956207456798452
   277   1      8.8524059135424764      24.228502039524379      5.4714650535800651
   278   1      10.336211427854408     0.10066752954685546      3.5023173833941197
   279   1      11.645244636489684      1.4122945795973358      5.5301623975460137
   280   1      10.279262516131496      2.4294470747667374      3.4898842435565371
   281   1       11.38195960471367      3.9371684948025907      5.5163033248568762
   282   1      10.215690402315937      4.9535678781812917      3.5769544181016828
   283   1      11.558978286030527      6.4187048954097188       5.404890948764896
   284   1      10.146498041920559      7.7656983673359754      3.4704968235670197
   285   1      11.481010161764281      8.8599023375232946      5.3695627373729984
   286   1      10.305741670206109      10.182510778372638        3.60906090803303
   287   1      11.589957870026359      11.440445825252553      5.4368932672107269
   288   1      10.176201588321973      12.757530560114377      3.6560163187296721
   289   1       11.45541090824989      13.973195830198412      5.5307033126085079
   290   1       10.25184196183341      15.331953013458763       3.799095837427394
   291   1      11.363892405145746      16.533666470105185      5.5344899867124937
   292   1      10.286305208921405      17.877249963799262      3.6811807759283979
   293   1      11.348242278981768      19.240150382821717      5.3901508845802679
   294   1      10.192914131883215      20.360735198177302      3.6693092201423987
   295   1      11.293922551277374      21.638693008939082      5.4385404690359698
   296   1      10.093648193934103      22.922020260839059      3.5636364408213126
   297   1      11.331595487720381      24.264977216935605      5.4669868714169256
   298   1      12.746383043889701    0.058950525903259089      3.6844051252408638
   299   1       14.09524027925578      1.4159227115569806      5.4208099204351727
   300   1      12.839152182913843      2.5163178292738442      3.5551513144884437
   301   1      14.057248025362588      3.8705940172950308      5.4611125906928342
   302   1      12.904875530246999      5.1379211323887768      3.6110090177827825
   303   1      14.083304385062338      6.3039878986247739      5.4597827418796063
   304   1      12.781433829432503      7.5961597186214354      3.6793156200027322
   305   1      13.973434766754263      8.8385503284245193       5.470872191499347
   306   1      12.846558465976035      10.128815946334834      3.5887591362366051
   307   1      14.106684962031704      11.243570876218914      5.5897090416221218
   308   1      12.789299332451469      12.646646763623638      3.6585995223732244
   309   1      14.156199149663397      13.794574466913936      5.4825060430944488
   310   1      12.756565711638061      15.117018868201299      3.8530461732285106
   311   1      14.090183917945877      16.515075697502386      5.4948972602229551
   312   1      12.793209021083031      17.788631991031099      3.7221635625420295
   313   1        13.9066390615238      19.133225307812673      5.2634386636446955
   314   1      12.707013731976014      20.504268572233492       3.507297701109712
   315   1      13.961592731209851      21.756543061773545      5.3434184648739818
   316   1      12.581817412817061      22.982106738520287      3.5050821566546251
   317   1        13.9002892228185      24.207334679319736      5.3015880852402022
   318   1      15.323735779618795       25.47571510843694      3.6371030911934845
   319   1      16.726495289030698      1.3113751535490288      5.5403132868629408
   320   1      15.331609144730583       2.481994683738225      3.6908518775563564
   321   1      16.622646030969648      3.8408562861728872      5.6089489161844908
   322   1      15.350773324845537      5.0624493998477389      3.6459242664386999
   323   1      16.585807204803174      6.2702665631400363      5.5503234769779768
   324   1      15.376098785474568      7.5501983955195309      3.7512341609264337
   325   1      16.497767473588187      9.0347172392388924      5.4535040727683617
   326   1      15.308952570434169      10.127461869681412      3.5997460817619635
   327   1      16.656911943453164      11.446064801986559      5.4566477471046877
   328   1      15.258716692228772      12.651316985473539      3.6294397175146602
   329   1      16.672027480457494      14.120199246978412      5.4161895965669888
   330   1       15.41962026013576       15.26114184505334      3.6683612935318082
   331   1      16.686311081385693       16.62450222933273      5.2538792648733494
   332   1      15.230844746226159       17.74614126401562      3.6259118027613435
   333   1      16.479031959683009      19.101542901768362      5.4030470111286197
   334   1      15.345679640006626      20.379945081421486      3.5727252181163514
   335   1      16.495197013951678        21.6366496689275      5.4575215366894199
   336   1      15.274660284370748      22.962261989554047      3.5318765088050315
   337   1      16.413559746977615      24.146010758501195      5.4206004835422581
   338   1      17.682474238614638    0.013149298201179879      3.6001645611934934
   339   1      19.160221953989172      1.1612710020978991      5.4338794458606436
   340   1       18.00767744285255      2.6897960566834089      3.7291611344757212
   341   1      19.137871638350074      3.8200461460655344      5.4809067921384695
   342   1      17.836599669053289      5.0655089555893031      3.9047528311028503
   343   1      19.150155964851653      6.4865983811798147      5.6361243481597434
   344   1       17.85912094210973      7.5851439406869163      3.8947132668031474
   345   1      19.076653950695206      8.9922908162490618      5.5558794627182051
   346   1      17.934633638504415      10.286386962476085      3.6019961839473718
   347   1      19.144542586682338      11.476142706961417      5.4562662545843921
   348   1      17.799173101083639      12.756728749305902      3.7170735590503607
   349   1      19.277876287822679      14.006981933830991      5.4402913529170114
   350   1      18.022943086376848      15.432128327919928      3.6562461501297943
   351   1      19.189193712760819      16.778442694019535      5.3247979501400451
   352   1      17.808843611014101      17.919862103669168      3.6414182682433514
   353   1      19.105311291905444      19.307138306082468      5.4081329155036979
   354   1      17.881784347180187      20.513875972588771      3.5022154388273967
   355   1      19.091384870907543      21.804188304961407      5.3824685699619996
   356   1      17.728753698632687      23.022019857587694      3.5316704487695807
   357   1      18.877606555150557      24.185747660305893      5.5748888722861372
   358   1      20.189373144505911       25.48743170781578      3.6835981654642831
   359   1      21.766443246463155      1.2034064439815733      5.4592827871159164