dump/Cu_400_20/steps_51 (written by ASE) 

1980 	 atoms 
1  atom types
0.0      25.526554800834361  xlo xhi
0.0              25.5265548  ylo yhi
0.0      36.100000000000001  zlo zhi


Atoms 

     1   1      25.423080907714837    0.078931796205476676    0.075108577323339754
     2   1      1.1952638030385963      1.2852473175014423      1.8207142592578516
     3   1     0.12324630949857994      2.4888131229209014      36.009464282098058
     4   1      1.4372076408038768      3.8929543050482085      1.8912794623489488
     5   1    0.071492242445636692      5.2429997113758589    0.087118043008286017
     6   1      1.4499821862943154      6.3648119135282641      1.8853328651877861
     7   1     0.15570670436208234      7.7260072866026492     0.02906388026024161
     8   1      1.3368074805551229      9.0640120742922505      1.8931224294612079
     9   1     0.01457616028777094      10.435050136455645    0.063734683076472579
    10   1      1.3124470844869187      11.608040562529272      1.6612399991754057
    11   1    0.081767389927381889       12.79815571630426      35.978269290199485
    12   1      1.1277258877202276      14.014445018614024      1.7311199904387522
    13   1      25.491846698916959        15.2337341969543      36.089275440743194
    14   1      1.4000749691808525      16.547873834769224      1.7379778411107165
    15   1    0.040433278346684344      17.860085461253266      35.987544706711041
    16   1      1.6029847709261849      19.124843715350725      1.9330915320971158
    17   1    0.022594447413854121      20.407429009494642     0.17585491235580536
    18   1      1.3593607629749553      21.690191401111175      1.8384624824960509
    19   1      25.443984740651153      23.023376640654142    0.034076205380574702
    20   1      1.3552517186352486      24.202261960310462      1.7451792650193951
    21   1      2.5332199385349168    0.056694962123913693      35.997224218181337
    22   1      3.7761977868154037      1.2896459256724673      1.7062030297150035
    23   1      2.5683257181629187      2.7253583593900532      36.057167091461928
    24   1      2.5363627576165531      5.3334170198874817      36.076079228285657
    25   1      3.9330018419136703      6.2452661672212715      1.7816169914345226
    26   1      2.7222074636993088       7.748127025527169    0.065281631476523216
    27   1       3.936899125705255      9.0360439150738916      1.8794872291906579
    28   1      2.5073220114424855      10.250076301941681      0.1010677111039628
    29   1      3.8154191866628393      11.540667601060688       1.773847169125452
    30   1      2.4616311309720778      12.747533979125107      36.002056554731858
    31   1      3.7443758378689029      14.117012221186009      1.5494026845125308
    32   1      2.4837471547607204      15.300529261448444      35.906054469350259
    33   1      3.8830458152584706      16.745095501160208      1.7514139295045099
    34   1      2.4111369607613424      17.676308753437112       35.91838990023578
    35   1      3.9721117694967054      19.177207371518531      1.8492569023098675
    36   1       2.428761033731615      20.332764131025819    0.057646095479003498
    37   1      3.8073750528326107      21.766317951181072      1.9484274757668694
    38   1      2.6055540048412946      22.910546154780338     0.10397456701567749
    39   1      3.7906322947604374       24.21752622660183      1.7770253344759128
    40   1      5.0298839490052192    0.055784851002426923      36.089329003167997
    41   1      6.3993686272722359      1.2416410411019216      1.7914688219925441
    42   1      5.2468078650393659      2.5191623614848773     0.17104949857510984
    43   1      6.5659824651795233      3.7780898486907559      1.8947289603468103
    44   1      6.4514161587070404      6.2674328041791387      1.9195424778074193
    45   1      5.2525713135345109      7.5064312928982355    0.035613388641002088
    46   1      6.4922420141810715       8.934238753590769      1.7252793994453561
    47   1      4.9898527654480844      10.051203057868362    0.008440346989084439
    48   1      6.4292366228083102      11.455803884113635      1.6315072315802008
    49   1      5.2073334069020429      12.755833808238412      36.044075323178298
    50   1      6.2646574802662176      14.079058837496534       1.701607869398436
    51   1      4.7831254967993297      15.409104041019509      35.929172339180994
    52   1      6.3398701648885538      16.563144559190334      1.7361187156107001
    53   1      5.0763532742902893      17.957604463398784     0.12350490040728347
    54   1      6.4809050894964226      19.204086357498145       1.814509802823284
    55   1      5.0456357765080924      20.507098323428384    0.096503729427638477
    56   1      6.3285218319569774      21.753508961724886      1.8837474163314836
    57   1       5.079531814647738      22.911087402336154    0.088393643358267507
    58   1      6.4765850634185629      24.296214215746875      1.8068380431284381
    59   1      7.7545684814533624    0.020896358265702759      36.087215164776318
    60   1      8.8291355153141886      1.1410739523377305      1.7764151264917014
    61   1      7.6508652653476563      2.5146169988773917      36.033743089187809
    62   1      8.9869692994779342       3.617844633403664      1.7694289032338819
    63   1      7.6613388167228758      5.0461793325535336    0.075226825415029577
    64   1      9.1304457867561979      6.3493565483764716      1.7338433800630237
    65   1      7.7053317608843068      7.6138562566858079      36.019747890091587
    66   1      8.9776196884490691       8.868035554909655      1.8665656950078655
    67   1      7.7980017015239653      10.332416800723859       35.99151284334792
    68   1      9.0225292238968962      11.287440022143063      1.7641333069333314
    69   1      7.7594369742634317      12.863724235562268    0.059964194348788233
    70   1      8.9045832749180907      14.009868115733635      1.8990430202989845
    71   1      7.4725373855897157      15.334845933540302       36.02495075757448
    72   1      8.9084268573903316      16.532702840869725      1.7847451849978606
    73   1      7.7154868998316521      17.804615745400884      36.076878122746379
    74   1      9.0962962888245631      19.061130883338755      1.8956266320370105
    75   1      7.7978547122723789      20.241240824252813      36.097116669018476
    76   1      8.8524945578935412      21.522393852698471      1.8009645014984934
    77   1      7.7876213773414422      22.743895659699856      36.022130369782239
    78   1      9.0038429484104263      24.104920058069499      1.9624358678083924
    79   1      10.258155167612383       25.52593058258682      35.992450595556527
    80   1      11.465849717933533      1.0244029393772418      1.9616925850332232
    81   1      10.309707443556304      2.6385111695528942      36.072281104526596
    82   1      11.504989028490503      3.6029875339972794      1.8664390834070206
    83   1      10.212115337656689      5.0452431669771327      36.042417499723719
    84   1      11.568478478917918      6.4117665767170582      1.8009867705961837
    85   1      10.394789780268225      7.7411035949254217    0.042547773433932443
    86   1      11.492297614219167      8.8696974564331921       1.894249692039262
    87   1      10.346285678912391      10.238911681847933      35.954165916468767
    88   1      11.563839046787898      11.440763464189866      1.7177780101544973
    89   1      10.173667180186531      12.679792280123255    0.027588942698173462
    90   1        11.4863440346801      13.882420174831516      2.0869119858969509
    91   1      10.063168631214957      15.158458255652596      36.095242790440494
    92   1      11.532707798974252      16.348972496195781      1.7833306984216841
    93   1      10.215137108411186      17.713431817337927    0.071906272552985248
    94   1      11.515970132348297      19.034666026018819      1.8063380239017539
    95   1      10.163539031617233      20.315981683832739    0.097928117694880329
    96   1      11.466023661847874      21.548316774257003      1.7896530346957218
    97   1      10.265613141520371      22.908276212763859    0.048915588315639982
    98   1      11.564646431311191      24.151586197222471      1.8445845452539069
    99   1      12.838257439251361   0.0025936349144676336    0.088468172747923429
   100   1      14.058110485463095      1.4009187454692831      1.8365973264719051
   101   1       12.70485150056188      2.6115517638428436     0.08864355475651578
   102   1       14.12167085593974      4.0477402590175746      1.7628372414733822
   103   1      12.631810265610177      5.1917225104430562      36.018756332462921
   104   1      14.051947392443475      6.4183927709857294       1.726010974374778
   105   1       12.75426171941192      7.6390425246041342   0.0028622341897971636
   106   1      13.988642642479297       8.965657265994496      1.7872169340127684
   107   1      12.653243383704902      10.223676136063048    0.091889575200082063
   108   1      13.930470543831461      11.522363912829798      1.6663376200640971
   109   1      12.695339791515456      12.773166459248293      36.057311934172326
   110   1      13.861516754833794      14.021671863472628      1.8801003888973367
   111   1      12.669746167060564      15.292401663965647      36.064170763631921
   112   1      14.044706703263614      16.630427111227355      1.9267413308290102
   113   1      12.693888634570039      17.797255683835772      36.046665403819638
   114   1       14.02313658254225      19.103103492563854      1.8543334880913782
   115   1      12.695678756343352      20.346970003864826      36.086010514561004
   116   1       13.86068050379113      21.742414357070157      1.6967745545815085
   117   1      12.782737733932246      22.905766312148764      36.033046794093927
   118   1      14.086593077171967      24.246497091250244      1.6903057294466874
   119   1      15.335029768271038    0.032075335936997157      36.008766073225772
   120   1      16.421054220562191       1.313476096477955      1.8963623141065107
   121   1      15.344933740064635      2.5485876091405744      36.051550755230743
   122   1      16.521278537791531      4.0270567250083831      1.8269003074439756
   123   1      15.424926028051866      5.0596376979882054      36.095882323292507
   124   1      16.693524531480346      6.4724672324130106      1.8861735067618508
   125   1      15.248945210820823      7.6678610276263379      36.045817585891001
   126   1      16.482620896990049      8.8950934275989297      1.7796930439521697
   127   1      15.385216618974594      10.252207337855991   0.0002617807031924713
   128   1      16.653019709948243      11.521629054027569      1.8140458066201077
   129   1      15.211405582298134      12.835584476683389      36.095828922523886
   130   1      16.589876503353416       14.15558781634229      1.8378998182138502
   131   1       15.31295427936082      15.319867621139599    0.081810935558939812
   132   1      16.838574559076761      16.679761277606566      1.9498598182172602
   133   1       15.36095332682382      17.874489625192393     0.22788714169619187
   134   1      16.694108319620099      19.166007385041535      1.8548791901372843
   135   1      15.251118867406543      20.421366605720245    0.064023144713644356
   136   1      16.593762601138671      21.658213215764992      1.9477864321749745
   137   1       15.50865696139085      22.990911074873324     0.12194675908174293
   138   1      16.577927094164565      24.328752184817734      2.0174394488945162
   139   1      17.874339104344255     0.13436514372148073     0.31067143662957042
   140   1      19.059391459154629      1.3065028098424922      2.0121359724774157
   141   1      17.886267893617276      2.4768103262941339     0.17442155114184735
   142   1      19.053618441735789      3.8819944216969096      1.8978507926493313
   143   1      17.887087267960784      5.1020252527257179        36.0876436685149
   144   1      19.160478052730614      6.4433436582484358      1.7824067617680375
   145   1      17.807590075127063       7.726450486877102     0.18395666715368875
   146   1      19.259954128912884      8.8930713164310085      1.8981888604767501
   147   1      18.023225658348199      10.166427257861674     0.10683185703525183
   148   1       19.23319124262818      11.439036079753459      1.9716772092722281
   149   1      17.766097627840857      12.737538991270839      0.1006367291631136
   150   1      19.046996849911775      14.078662166404087      1.8660380203339846
   151   1       17.76728413119023       15.30489794493171      36.046212049240943
   152   1      19.134976887456911      16.590142645788731      1.7699000085214147
   153   1      17.840117689097067      17.872166553385931    0.076272008525870641
   154   1      19.301284446761226      19.217094046605613      1.8371841428064062
   155   1      17.887255539604361      20.555012619674443    0.076078150140858752
   156   1      19.121886547779159      21.766818688859502      1.8338893602330473
   157   1      17.905003333175266      23.086769908882673     0.11458436074126427
   158   1      19.122592455186293      24.213540655133723      1.9479989007257916
   159   1       20.32601460338914     0.10442291875706987     0.12192210084680243
   160   1      21.610502365171147      1.1767126793279228      2.0283269293707793
   161   1      20.513647080717217      2.4949258445213598     0.10381723712680456
   162   1      21.923972904305298      3.8128442983379482      1.8504830134814467
   163   1      20.511746244789265      5.0749376839128413      36.048965162529967
   164   1      21.620716775501847      6.2284607280716147      1.7295876888103532
   165   1      20.360347771283582      7.7221737499308656     0.07157867686529476
   166   1        21.7344956961431      8.8917875820958638      1.8841818762054228
   167   1       20.48630690686764      10.256842574545336   0.0010355036975511207
   168   1      21.747307724159153      11.474858854420633      1.8009978806394753
   169   1      20.376822055604332      12.867559619056118   0.0088750404229585977
   170   1       21.57256230878685      14.094163999989638      1.8081024176873379
   171   1      20.660194387570161      15.315985467444083    0.018933292652855031
   172   1      21.770007479082924      16.790046703870001      1.8058064528864171
   173   1      20.497315423218751      17.945086713648937     0.13394139352008111
   174   1      21.802536937988673       19.07766029409429       1.836625249949327
   175   1      20.503930494467035       20.50769813779452    0.053107981272228197
   176   1       21.62477221571713       21.84120440907094      1.7946247630168843
   177   1      20.268641528698243      23.040212737739623    0.041929072493314984
   178   1      21.624152871824815      24.437732840550929      1.8932556427940996
   179   1      22.763197938211945      0.1490774087695021    0.066638455639190519
   180   1      24.179892291050781      1.2686554100340373      1.9384711169707785
   181   1      23.140542191739208      2.5279492539160393       36.05506354694041
   182   1      24.465135584816021      3.7449029162379666      1.8547011285651724
   183   1      23.188432624050499      5.0908121897795882     0.18771689412575379
   184   1      24.478817946575507      6.4597417214477595       1.873048543215043
   185   1       23.01374786602619      7.5410805797744382     0.24440190240962908
   186   1      24.414835747895015      8.9520065076305038      1.9363390773596618
   187   1      23.026385553936557      10.135763540465701    0.015946120343824061
   188   1      24.154836254116034       11.46800414974674      1.8168246634103866
   189   1      22.935109627601939      12.962800808429776     0.07991194467101638
   190   1      24.100419729123082      14.132979315931612      1.7730648455817359
   191   1      22.997471326428176      15.403983788234292      36.064420465770588
   192   1      24.379282376934672      16.635909453901704      1.8914690330137087
   193   1       22.99301544319686      18.008334685352871      35.986398669452491
   194   1      24.318861305239793      19.064182224320781      1.7908289022249404
   195   1      22.902345355747958      20.536390426382805    0.058182567304800183
   196   1      24.246389073702932      21.703102668650523      1.8308847163244082
   197   1      22.931053536782738      23.060528199637286    0.045786187541011533
   198   1      24.088466994201163      24.270979515823939      1.9772997892988893
   199   1     0.17045890654561377      25.477429088383001      3.6386358971535939
   200   1      1.3495973612339742      1.1509344797001073      5.4672508259688435
   201   1     0.17982896176347296      2.5028791223694014      3.7275740794983299
   202   1      1.2455212193196303      3.7132948938602626      5.3671900613594214
   203   1      25.492176883621362      5.0247993105307636      3.7105742765124852
   204   1       1.354929774731771      6.3459495918806654      5.4186634303923125
   205   1    0.070953425011845553      7.6532096232370064      3.6465735761824325
   206   1      1.1300275244210796      9.0225373938443116      5.3516015394710932
   207   1    0.068561866061175952      10.315778816899002      3.6010971016674618
   208   1      1.2405440647192729       11.52718861380643      5.2518602031051422
   209   1       25.34499331100389      12.903432300419315      3.5025698174153055
   210   1      1.1918736709646094      14.019324372501222      5.2180021751739245
   211   1      25.322143812830863      15.434702298143129      3.6532895733060782
   212   1      1.0918601350996449       16.53664414110315      5.4058068352488498
   213   1     0.22772607127610067       17.76817376505079      3.5548727637970741
   214   1      1.3102665538607541      19.048805163291025      5.4510398531915341
   215   1   0.0078707460905909181       20.47369733148895      3.5245990684125545
   216   1      1.1738730757364437      21.685019747895325      5.2865918608651228
   217   1    0.052498318465891258      23.079149362419788      3.6004045668417257
   218   1      1.3104783086802732      24.202296737847956      5.4272499018847347
   219   1      2.7694365248576287     0.17667796887293177      3.6099698345425724
   220   1      3.9093943231257744      1.2436129503035005       5.451791918787122
   221   1      2.6605550543069216      2.6455008640698479      3.5761398958121169
   222   1      3.7865864005254126      3.7956942852437061       5.426785154517284
   223   1      2.7066955817243272      5.1885045784516679        3.62726116183405
   224   1      4.0044473946164914      6.2897875710548394      5.4562462295564957
   225   1      2.7340478669225465      7.7145508626617971      3.6679467792715084
   226   1      3.9319006150273683      8.8735859459319837        5.41672311016944
   227   1      2.4868860784749871      10.310443305486649      3.5685645552549206
   228   1      3.8279751892312306      11.587154393749378      5.2677402762834911
   229   1      2.4694078036196374      12.764028909166031      3.3296204523846766
   230   1      3.8144026027750946      14.057829750431393      5.3818007584457197
   231   1      2.5604370967660923        15.2511682330046      3.4918221879845763
   232   1      3.6911491434413262      16.587571873820945      5.4103078334582815
   233   1      2.7079485341865737      17.751816391588211      3.7555793432475939
   234   1       3.844400557682639      19.146725140908941      5.5892808395652844
   235   1      2.7070878592979821       20.41825340930027       3.700630609194667
   236   1      3.8134682600093019      21.831327051325864      5.4926413899087114
   237   1      2.5941505308307256      23.053320410661069      3.6909596831891296
   238   1      3.7698716952656701       24.33732429497601      5.4740760776020831
   239   1      5.1414428312498162      25.490868598177038      3.6050324308473476
   240   1      6.4872909566867945      1.1761890808213031      5.4296369769632218
   241   1      5.1147928253628283      2.5284072264366828      3.5194075573787025
   242   1      6.4158151745681886      3.6709304430978378      5.5090806422253005
   243   1      5.1032525831954212      5.1307441027773617      3.5934224940221826
   244   1      6.4439699908595927      6.2688890429446564      5.5025624335597021
   245   1      5.1736433895472036      7.6805599598089431      3.6489298917964756
   246   1      6.3478752900980071      8.9543888059461736      5.4466446168823257
   247   1      5.1962856837822642      10.191266907622856      3.5356468851831226
   248   1      6.4198040676921391      11.493557722595085      5.4239863228881111
   249   1      4.9818797833480097      12.768561267268995       3.557742089916109
   250   1      6.3839108551067802      14.015744720644479      5.2864926805540167
   251   1      5.1229218830967991      15.348694707584045      3.6164557003183062
   252   1      5.3157372678595003       17.95989423817776      3.7715982868185884
   253   1      6.3319478844007691      19.241952127276029      5.4324862027360137
   254   1      4.9959689838798846      20.585383285441864      3.7704274145227421
   255   1      6.4207251517787958      21.842062011716159      5.4654971784477899
   256   1      5.1206543728767917      23.082920357937962      3.6179413781037115
   257   1      6.3417157393118622      24.150492631393575      5.5258745811421273
   258   1      7.6881190946029081      25.283122967779011      3.6122462994756006
   259   1      8.8880599319305613      1.2278949204119567      5.4220334757980959
   260   1      7.7176593705188576      2.3452987282379136      3.6631949332899363
   261   1      8.9691210763116693      3.8443491013202582      5.4182465771016419
   262   1      7.6001380408034214      4.9042764426781442      3.7334147526598103
   263   1      8.9700595985799954      6.3380505966030896      5.4217189552230582
   264   1      7.6336773100306567      7.5220240398650065      3.6539158189068464
   265   1      8.9724630348448358      8.9561400730196183      5.4265635611928644
   266   1      7.5231735732595899      10.251322732281398      3.6125681407749815
   267   1      8.8761061938192789      11.536056585440569      5.3889874886072748
   268   1      7.6429307793054519      12.803705669235647      3.6952411594805898
   269   1      8.7933511622375438      13.915812458558399      5.5818575143157663
   270   1      7.4816208887904283      15.394026328017762      3.7723184330258284
   271   1      8.8746605096646238      16.419405915787355      5.3640877125740838
   272   1      7.7073698404208129      17.741320968392259      3.5848575898313237
   273   1      8.9440092102925917      18.897479322877864      5.4155910007128396
   274   1       7.689282699641395      20.229452076621847      3.6412291586079655
   275   1      8.8823373028291996      21.745415709219909       5.437557959791409
   276   1      7.7968225877032244      22.872081333926218      3.5919658697192847
   277   1      8.8355294791426253      24.273958742601955       5.555232516629407
   278   1      10.117797409454553     0.03200104851923781      3.7312931776451075
   279   1      11.610661759063166      1.2552052641443359      5.5467387528924199
   280   1      10.241838641901699      2.3207247390057706       3.650148306809355
   281   1      11.363957875597265      3.8264047356721314      5.2592667085427705
   282   1      10.122466569465148      4.8314464230110303      3.5519011294844058
   283   1      11.302236753064891      6.3546863756400578      5.4550211310497962
   284   1      10.130503455551366      7.6799232647147244      3.7328429966830035
   285   1      11.340892372991949      8.8104888770195142      5.6307718120085157
   286   1      10.121644359530391      10.205683831901052      3.6322597420288241
   287   1      11.421545848247705      11.319139947718833      5.5546604901147969
   288   1      10.228866452606752      12.687418484369934      3.5827124643384312
   289   1      11.338117171406719      13.731659217816496      5.4106964983604025
   290   1       10.19588865387915      15.234389931189058      3.6364214489391782
   291   1      11.414587556339665      16.600495358052765       5.364777407928452
   292   1      10.223501176692873      17.522359605808649      3.5979397632973242
   293   1      11.418065201378033       19.07144606590462       5.397109186884685
   294   1      10.248089916357431      20.266443464729068      3.6643095423608067
   295   1      11.249730357555478      21.669456199991902      5.4991115089620619
   296   1      10.283669874554063      22.990840984094614      3.6183833927790103
   297   1      11.444311921814744      24.245830669865782      5.5856582157480537
   298   1      12.786294118893862      25.476969275809285      3.5777491104720416
   299   1      14.077902022106146      1.2815124501038186      5.2301445801120758
   300   1      12.765510366463817      2.5125573927834801      3.6270520861302269
   301   1      13.995059914092607      3.8268740162847275      5.3218220186677074
   302   1      12.594797087018874      5.0624482865291061      3.3946783591243728
   303   1      13.945183114632398      6.4070708962461236      5.3374744746379541
   304   1      12.646414264810231      7.5990111424737643      3.6324665427467098
   305   1      13.987390383867075      8.9778521091319679      5.5076568196090578
   306   1      12.761382011762443      9.9491082822267565      3.6893416645234556
   307   1      14.090919045586707      11.325942982781092      5.4255214438737127
   308   1       12.75494600432037      12.609117645047919      3.6712794961124913
   309   1      14.010071698748931      13.858127475194115       5.457427746343539
   310   1      12.752384041889551       15.23847595919497      3.5967587904793294
   311   1      14.028706788337582      16.376032045854014      5.3935292136295585
   312   1      12.698158784974606      17.792780218203397      3.6086529459191059
   313   1      13.987776679032605      19.129844692721928      5.1798899278374524
   314   1       12.81515705247916      20.491642639479533      3.6274258312480789
   315   1      14.154637700748228      21.621980787263212      5.4431859224246129
   316   1      12.659677575173516      22.876409874450676      3.7855346742849623
   317   1      13.895036186475357      24.207168541224913      5.5360085910844044
   318   1      15.298399229499257      25.510421283041801      3.7246103953426775
   319   1      16.539773469828379       1.457502322488454      5.4322683069178872
   320   1      15.224057858561537      2.7213372083437193       3.520585806526471
   321   1      16.685512810198798      3.9263856212041497      5.5154546514214537
   322   1      15.306947400875138      5.2638735335682938      3.7196103218401402
   323   1      16.635448351318669      6.4854043916699355      5.4267170185112086
   324   1      15.221381283828576      7.6962600081101833      3.6260932213270718
   325   1      16.451723780744704      8.9421514082747215      5.4623680336537586
   326   1      15.250874924150763      10.173435998173559      3.5101446264758001
   327   1      16.562079630505661      11.496677106231296      5.4476173999925779
   328   1      15.318747073405264      12.715254651922894      3.6404835829078572
   329   1      16.548287804520495      13.987498490189175      5.3755582287337278
   330   1      15.278074238951655      15.285411201251472      3.6044053270926604
   331   1      16.525749523990562      16.601466601213644      5.4456754801289629
   332   1      15.369442221836451      17.913801052716348      3.6467106101813616
   333   1      16.742528923871369      19.108904440166636      5.2572793113806986
   334   1      15.374775617277852      20.448675046705461      3.7187695685526285
   335   1      16.616957372866867      21.782909583097513      5.4154071403912347
   336   1      15.238577370674792      23.061432888852231      3.6817197288313483
   337   1      16.553370533466929      24.410594204002322      5.5635298590931823
   338   1      17.873652941474905     0.23203654864404011      3.8470321933637526
   339   1      19.178200607579146      1.3297576947112579      5.6185803813714692
   340   1      17.735908802927206      2.7230297330657325      3.4742198399957389
   341   1      19.143891767833182      3.8542498984748494       5.257836093214503
   342   1      17.903882147119695       5.208027727530161       3.709567285295619
   343   1       19.32675420566185      6.4354555923648888      5.5011684860082273
   344   1      17.870227953560761       7.730904392212965       3.601360677193929
   345   1      19.057541241939475        8.83959149545659      5.5046759919844028
   346   1      17.770334942188509       10.20622610098709      3.6920659196520504
   347   1      18.978447761134632      11.525867083407071      5.4197734360067029
   348   1      17.833433928186235      12.784542206411105       3.520131683166674
   349   1      19.179969535121351      13.904890414880136      5.5131212843995456
   350   1      17.818944941806652      15.353832059735639      3.5977939701585924
   351   1       19.19993337505484      16.612148457784276      5.2453487870530147
   352   1      18.325658773208612      17.905541038507312      3.5335443768778307
   353   1      19.153655499268364      19.186978399013324      5.4237329130280703
   354   1      17.942203555427245      20.423491160137633      3.6088112445056959
   355   1      19.129615384392366      21.823110482891376      5.4258999533490986
   356   1      17.847935732115527      23.022340338172789      3.7405127345694149
   357   1      19.134339001191186      24.234152677885657      5.5720801109964846
   358   1      20.263670615521189    0.097452785711851411      3.7021224158506048
   359   1      21.574817657270223      1.3408119370975826      5.4809043841059832