dump/Cu_400_20/steps_71 (written by ASE) 

1980 	 atoms 
1  atom types
0.0      25.526554800834361  xlo xhi
0.0              25.5265548  ylo yhi
0.0      36.100000000000001  zlo zhi


Atoms 

     1   1      25.364293823055085      0.1238697224321841      35.964160737419647
     2   1      1.1079724323793216      1.2240671508058294      1.7108960806144509
     3   1    0.095264030122894694      2.7882949069944716    0.076626422880963246
     4   1      1.4777500760248041      3.7946590340268256         1.7891775765067
     5   1    0.011087584770039804      5.1265392770465841     0.17016675969144915
     6   1      1.4929534656416619      6.4033549977134143      1.9033890451251623
     7   1      25.508961947079261      7.5048856721254369     0.08947481044625652
     8   1        1.25169784612241      8.9587153945804427      1.5999147106323464
     9   1      25.270833783226596      10.259701479528973   0.0047840167662229665
    10   1      1.3890105998239628      11.417491927262526      1.7526334963110797
    11   1    0.090051454351627203      12.623928661335134      36.097376287306929
    12   1      1.2843918423672023      14.013264874626653      1.7402265442922724
    13   1     0.13538618578682837      15.258753292278392       36.07836798689933
    14   1      1.3796130833528295      16.682709161922947      1.8161714339359816
    15   1      25.457511232715163      17.740840308210654      36.095946876407382
    16   1      1.1577242380762534      19.175053456725383      1.8289372855889494
    17   1      25.509997722153816      20.304091803841377    0.061569563902776236
    18   1      1.2071015454078231       21.64677652826526      1.8616071676103632
    19   1      25.491717461465424      22.860015506407454       36.05069659453023
    20   1      1.2003654002712834      24.253547121755666      1.7517346041656783
    21   1      2.5213746987597769    0.079707386083921014      35.991255836261082
    22   1      3.7610581995961145       1.292778408457234       1.678785550895326
    23   1      2.5138397846940999      2.5869299950586435      36.029411344768938
    24   1      2.5465623799169057      4.9586018515752412       35.91572278125669
    25   1      3.8028911738979705      6.0362393418499201      1.6414887551263049
    26   1      2.6000011709654984      7.5791512964919159      35.960896903205771
    27   1      3.8876323325346873      8.9600694004039312      1.7634868605837584
    28   1      2.6321568313021633      10.129501256560662    0.088655506841052972
    29   1      3.9689181419789343      11.394191010565111       1.882894111761573
    30   1      2.7454052368322142      12.696134383498743    0.029982392441445443
    31   1       3.929752654620247      14.042471260354283      1.7148871235589931
    32   1      2.6693409822679168      15.238680210299542       35.99213185671276
    33   1      3.9035335912369815      16.625579750365116      1.8184594215215728
    34   1      2.5794247256494081      17.788814455384806      35.918199424455999
    35   1      3.6796930696478261      19.230981546481523      1.7137544216721956
    36   1      2.4674739996619222       20.32174238349273      35.902778260184384
    37   1      3.7198625608440437      21.915736897486124      1.7289721825628239
    38   1      2.3244255047761073      22.776692367581809      36.090481091799482
    39   1      3.6071949714669449      24.334005148557647      1.6988447806472424
    40   1      4.9933671008643428     0.03238111922381974      36.038755257546079
    41   1      6.3189167016617951      1.1980533689181398      1.7665787889245408
    42   1      5.0309281730479087      2.4565869123073218      36.011568414676866
    43   1      6.3250403726282718      3.6669258123983837      1.6794855645720546
    44   1      6.2989829949387905      6.3013775528536318      1.7023520317139618
    45   1      5.1961980242390986      7.4938795417597079      36.014437125150891
    46   1      6.5159730752744789      8.8812392505031514      1.8820962261304557
    47   1      5.1468052136275277      10.147212977346387      36.067200251756667
    48   1      6.3795026349022113      11.505515152780095      1.8592354930287569
    49   1      5.2005535168754919      12.773357989765842      36.078280759850649
    50   1       6.317546961806018       14.02757831484112      1.7624298081310381
    51   1      5.1606757374536096      15.425959354014218      36.014917247323581
    52   1      6.4011324886768595      16.585181577269346      1.8572091981422538
    53   1      5.0548254773883867      17.919351590555443    0.029207347399119506
    54   1       6.400952509090482      19.216552625746186      1.6781005927375752
    55   1      5.0048224737558558      20.476288697994256      35.988749705903693
    56   1       6.252896837060006      21.873590049659725      1.6598349566508883
    57   1      5.0432549241042963      22.946269589815238      35.960676677456043
    58   1      6.2964204505313139      24.295019540695485      1.7081401833167997
    59   1      7.5595229113200775      25.462808350343909    0.014718966083705726
    60   1      9.0441725294577981      1.3672314223197066      1.5474682421045154
    61   1      7.5633860937624453      2.2795009865085882      35.898885472611084
    62   1      8.8872470275338777      3.7132953634121506      1.7906097789335838
    63   1      7.6948685247370925      5.0696294493237213      36.044437652629135
    64   1      8.8092777636855732      6.2555356195377962      2.0106483788348997
    65   1      7.7707792311904997      7.6258828089392185      36.015538994608626
    66   1      8.9188261393578099       8.878644398728385       1.863358962998553
    67   1      7.6675397298848642      10.143584863774038     0.14404978882149638
    68   1      8.9487595093983341      11.542125466163371       1.936389352082335
    69   1       7.637897077765091      12.809353087683609    0.088625462999448318
    70   1      8.8568809817211971      13.918392024429954      1.8219145009693976
    71   1      7.6769260034727367      15.319636910792914      0.1133519894419691
    72   1      8.9701858893635382      16.705648824392039      1.8391646296577511
    73   1      7.4862343380993384      17.983772247931263      36.016831144029517
    74   1      8.8321468740491866      19.168865596952866      1.8474255758018667
    75   1       7.623932700026101      20.441805887827936      36.049519302972442
    76   1      8.9685032606794408      21.807457042643581      1.8666220713540047
    77   1      7.5867939519864853      22.975648044955534      35.995166575079551
    78   1      8.9617888126702763      24.310554126605542      1.8332391797194307
    79   1      10.192742733661511      25.443568988202031    0.019738425339789964
    80   1      11.408797795201533      1.1678379049475724      1.8257334560570728
    81   1      10.164427978178031      2.6275427089752124      35.965000685387317
    82   1      11.473897359419476      3.6714375641496013      2.0145569340615013
    83   1      10.187105517256292      5.0262034992339135      36.004255970890412
    84   1      11.513225776739025       6.388441656808947      1.9129008786644253
    85   1      10.145365307760365      7.5149929818665795     0.19309845139866857
    86   1      11.453530738856028      8.8522636973355464      1.8910463088359046
    87   1      10.239410131210212      10.264242295015944     0.15956985759262363
    88   1      11.558078460063252      11.291044890048598      1.9522105855383411
    89   1      10.206590118026462      12.775901528313172      36.012600232129778
    90   1      11.538442957801704      14.046723176073378      1.8426670288430276
    91   1      10.243984015593057      15.232512180419455      36.081155250384107
    92   1      11.373657729550544       16.52685238162762      1.9224921197122617
    93   1       10.16264299692719      17.990181062438914     0.12269049229363427
    94   1       11.46796354763447      19.212118625331879      1.9107518211326597
    95   1       10.18274433572919      20.608258029579982     0.16862064448421282
    96   1      11.669327736851629      21.672426736288777      1.8812613937630986
    97   1      10.238275929308958      23.000725148027733      35.934584605089107
    98   1      11.531715043130491      24.297419736651442       1.779373099626993
    99   1      12.810907212955803      25.476313923913054    0.036839284819575234
   100   1      14.073871580699246      1.2500205678907608      1.8279611017271924
   101   1      12.671043555549481      2.5765289095387516      0.1259935536101692
   102   1      13.892887725110516      3.8405728310025329      1.7963109463229217
   103   1      12.605328967559792      5.0605622624311435    0.045267829297858941
   104   1      13.979085651765352       6.294884785703414       1.868912408217877
   105   1      12.703912508756165      7.6846679284518205    0.032964927230011647
   106   1      14.066822669095748       8.872043352023411      1.9135114679600853
   107   1      12.806230501877801       10.14798323982013      36.083336691101799
   108   1      14.054500497854153      11.351066844879233      1.8260000100482892
   109   1      12.900577086808401       12.72227309013936     0.11505642655936305
   110   1      14.032967174462255      13.926248277020202        1.79668584029596
   111   1      12.669530880768322      15.423253901583324     0.10517674367250734
   112   1      14.022942977410416      16.468699483872875      1.9000239758604853
   113   1      12.725306115804006       17.92981171283218    0.070862005710045958
   114   1       13.99152182156387      19.127531669649731      1.7747391188209563
   115   1      12.704276569987822      20.531067086353463   0.0065317929117327395
   116   1      14.115295205514283       21.73108261243696      1.9288898801260883
   117   1      12.774484929609912      23.061819059320289     0.19519441313505026
   118   1      13.965332552958852      24.239114313340458      1.9476142020948046
   119   1      15.335283091911229      25.475360710929742     0.20829482159923596
   120   1      16.678645868956213      1.3591215421100131      1.9263381526573427
   121   1      15.092772638704028      2.4814542057145683     0.10788791299322621
   122   1      16.451239307903627      3.8405831743889571      1.6562374313517694
   123   1       15.10850453278737      4.9117539720968324      36.066404301208316
   124   1      16.475122316291248      6.2706022726672153      1.8214251323243844
   125   1         15.331238412032      7.6225972209489647     0.08665020676362474
   126   1      16.549149946253429      9.0655556619904907       1.636121976879497
   127   1        15.3742831238436        10.1714170694218      35.900346086953981
   128   1      16.512580725994123      11.523468199669317      1.8300508606823769
   129   1      15.341716125935779        12.7399158007214     0.13820988283436025
   130   1      16.561224264254339      14.222848373303083      1.8221595182550701
   131   1      15.268905289278059      15.169906361791424      35.987553935367494
   132   1      16.501016165237548      16.596653964317365      1.8343696224579724
   133   1      15.317964963397991      17.829466486605636    0.031562025064829434
   134   1       16.52310820104244      19.174968602690967      1.8643541571261151
   135   1      15.360352408001827      20.369148023058671  0.00031656609286301318
   136   1      16.509144760134959      21.676023858591993      1.9087332066533476
   137   1      15.168751041076693      22.852646573399074   0.0029031322787773203
   138   1      16.739447583389971       24.25715341732516      1.9089458310161256
   139   1      17.744199396621653      25.308227905593263    0.010768643607025279
   140   1      19.064285868094217      1.1120949282048109      1.7060583561076774
   141   1      17.739371138776455      2.3424658937922511    0.056866445794116691
   142   1      18.994634772265549      3.7656612590093981      1.6911553607819432
   143   1      17.881886661097653      5.1480578048389365    0.045420227123588452
   144   1      19.120013314790455      6.3828183565647789      1.9241618736946198
   145   1      17.854701519943447      7.6833883013092441     0.13873344719569325
   146   1       18.99894883949397      8.9583341044965881      1.8514601052510669
   147   1      17.848690421556043      10.195099646789776     0.10675561376738202
   148   1      19.267720828514086      11.572411512221082      1.8705938987500192
   149   1      17.822546840920634      12.814081866929611    0.099229722221809841
   150   1      19.298513616012514      13.977691488082664      1.8575302600576056
   151   1      18.028797656154911      15.362775849830662      36.045950115986493
   152   1      19.030039943396911      16.566807760748084      1.9051805199406193
   153   1      17.787967057453383      17.978729584270891     0.11068142740227828
   154   1      19.449779946729382      18.997710595679926      1.7622502755938723
   155   1      17.853895131821687      20.378603111551811     0.21417738382854176
   156   1      19.167328061665284      21.673286031240227      1.8605832881663575
   157   1       17.80955543838342      22.906771858547518     0.28278257103891075
   158   1       19.12848098081141       24.16451260802716      1.8066566097058749
   159   1      20.141233516429828    0.025522852042883265      35.958651788416965
   160   1      21.550582325446971      1.2849590916292217      1.7550017767036483
   161   1      20.351271424885876      2.6210921720567564      36.006315119008924
   162   1      21.695475927313964      3.7406318528480735       1.821986918416473
   163   1      20.332491242820385      5.1285699754528862    0.084959702588559949
   164   1      21.709143809166491      6.5062036356608752      1.8858475445859879
   165   1      20.488141523210324      7.6213367566664063    0.010822182065976465
   166   1      21.552804220764795      9.0655278402408435        1.89179879281934
   167   1      20.387884984496381      10.197878867502387    0.046162567914598038
   168   1      21.823268617615977       11.57686192031372      1.7728884480148723
   169   1      20.386754821798874      12.728542007944503      36.074583020443562
   170   1      21.782647936363027      14.072114420941231      1.9408214434833442
   171   1      20.397824961526847      15.298340433157543      36.065660453338275
   172   1      21.622580047188727      16.502118155617271      1.7070541411058811
   173   1      20.407525155874129      17.786380189723399      35.879512776063869
   174   1      21.812976746424471      19.099755416939274      1.7922487356692263
   175   1       20.44328529755979      20.326778720514469    0.077879984426329082
   176   1      21.663878438204613      21.583452898295587      1.8179403936337861
   177   1      20.371410004009761      22.844309561447336    0.018284997178727721
   178   1      21.691621591403806      24.283576834062384      1.8520816950106918
   179   1      22.700070111122489     0.12210068928796212      36.052051874373312
   180   1      24.081196294752576      1.3996078845288136      1.6989381127011713
   181   1      22.981131330944045      2.6479546357596351      36.090159287572391
   182   1       24.45169012372175      3.7396712979512556      1.8936329400963463
   183   1      22.996366316709569       5.186481847490727     0.13269306863967376
   184   1      24.394013547328402      6.3337235357209707      1.9421686134072402
   185   1      22.890861261874043      7.7675264645190865    0.080209507823883613
   186   1      24.258210565251609      8.8501661985020021      1.8227246379679629
   187   1      22.885297322645258       10.18042580858031    0.069690479164023419
   188   1      24.396861009298856      11.416703854438772      2.0032535985171527
   189   1      23.065494138589191       12.88920770768663     0.11664451773863227
   190   1      24.306903210024416      13.911737181488867      1.6879711692905284
   191   1      23.034385190916414      15.340269756289588      36.004172840249602
   192   1       24.48524881457465       16.50712479262376      1.7624951786092296
   193   1      22.961723533007358      17.681799249315961      36.060406668179048
   194   1      24.346919063352733      19.026003620139363      1.9083517162220252
   195   1      23.004581423346611      20.166812983520959      36.088713543752306
   196   1      24.212645286981864      21.576450201024034      1.8423757952263271
   197   1      22.819418362218762      22.928795504553385     0.10202091915521135
   198   1      24.154731091971861      24.295799976957909      1.6184000989834451
   199   1      25.465759585242974      25.508171817930403      3.3642792970012709
   200   1      1.5066417805538834      1.4246567458110613      5.3654600705182132
   201   1    0.090547607766412075      2.5271672090913739       3.433726778213305
   202   1      1.1958600686068999      3.8847310772511836      5.4276500303363697
   203   1     0.19933987783781054       5.090494533522917      3.6334768984717716
   204   1      1.3861546003182399      6.4041095404096806      5.3198369884150942
   205   1      25.466568950878482      7.6705694124341743      3.5916183538222977
   206   1      1.4240244438556018      8.9800366110716432      5.5403641415721987
   207   1      25.442746936753341      10.158637035992376       3.822576946145634
   208   1      1.3502585688022217      11.394979824965759      5.2380026557521226
   209   1     0.12664547840557247      12.760615937112135      3.6254497419631142
   210   1      1.3849532086210345      14.114477724109111       5.401387624130856
   211   1     0.23695085100330918      15.292741715219041      3.6048673201528141
   212   1      1.3530818648652605      16.617083632313761      5.3328079782622444
   213   1       0.025873873342807      17.829699303889445       3.647115302928194
   214   1      1.5730371088969464      19.227001736797369      5.2548731950053451
   215   1    0.095780042311120805      20.418956451503782      3.6003977300681629
   216   1      1.2591231382775159      21.649696923207692      5.3036466828210713
   217   1      25.359500503560653      22.946417870326542      3.3795894548606502
   218   1      1.1792224727166214      24.406290717822476      5.2031031402340151
   219   1      2.4740392315877826     0.10973180800425988      3.4043700763594646
   220   1       4.039774204008852      1.2564114604681358      5.2718099212423573
   221   1      2.6819219734701178      2.4591346410076595      3.5026251581505674
   222   1      3.7674924932250113      3.6883314101218203      5.3557844476716348
   223   1      2.7111621603674028      5.0760709650598148      3.6968372772228415
   224   1      3.7832588303342582      6.3103482285981309      5.4596595553223874
   225   1      2.6534457531317899      7.6573219664193886       3.569027862208201
   226   1      3.9882354769183537      8.7101659210689917      5.4010418710985597
   227   1      2.5799270125550913      10.043828666028022       3.472267438647374
   228   1      3.8249140364106848       11.21581895044968      5.2964016276316679
   229   1      2.6232560236688944      12.794373642424876      3.6348555760899499
   230   1      3.8647203058144939       13.96000328893264      5.3253324558951132
   231   1      2.6509272759722178      15.285986315828938      3.4959603327857169
   232   1       4.089885684154269      16.549202150937905      5.3660046407286304
   233   1      2.6609540419677731      17.911342196736769       3.626583692623357
   234   1      4.0811291697487926       19.21874141485382      5.2977861372958168
   235   1      2.5530678771991351      20.481970885363555      3.4629222387706804
   236   1      3.7822089659025666      21.647335186833914      5.4407124982700692
   237   1      2.5406632428184182      22.985105600324967      3.5776246831730765
   238   1      3.9672580078429309      24.200944946975241      5.3815871038566314
   239   1       5.192315317076357      25.516786262324974      3.5684775648770715
   240   1      6.4741317328232242      1.2558932877973992      5.5503839124216441
   241   1      5.1188693297952188      2.5698889583176476       3.341708666981789
   242   1      6.4807060216961041      3.6953043925342235      5.4206076706372528
   243   1      5.3224031359416202      5.1058715795549752      3.6698163942346254
   244   1      6.4541226666568514      6.2739312662098445      5.4929511682555523
   245   1      5.1686505580614179      7.5220621033254469      3.6186619205572224
   246   1      6.5601463489784893      8.8392238593262125      5.4064072914563548
   247   1      5.2665196636686211      10.120872501428789      3.6245478307470389
   248   1      6.4457185691905226       11.49159192187467      5.3816063123255953
   249   1      4.9839635541769676      12.698511659239285       3.634800581338073
   250   1      6.4012125892068408      14.029882402561498      5.5130959112641218
   251   1      5.4403864138472358      15.250722221321555       3.658217341218641
   252   1      5.2284391802642505       17.93391987234471      3.6092299574971567
   253   1      6.5353188147324488      19.277569086056435      5.4717408499764648
   254   1      5.1279777343830473      20.556286766623153      3.5256847255608808
   255   1      6.2782260859075185      21.685440674657986      5.4832167750909457
   256   1       5.068089217185876      23.055812623377456      3.5277436668063396
   257   1      6.3900515700427274      24.147447378889002      5.3460147061802905
   258   1      7.6167539270643747      25.510593426164654      3.6340065041386849
   259   1      8.8935421078890631      1.3015226974319254      5.2634446323980812
   260   1       7.615222183565157      2.5085380698788224      3.5623073434965695
   261   1      8.9874830366084328      3.7731568181776574      5.3814534581655824
   262   1      7.6031485343610301      4.9113130153669005      3.5879882395066369
   263   1      9.0057205811253898       6.274763694505582      5.4737400505481073
   264   1      7.8313979815781343      7.5097627202484842      3.7659822440157931
   265   1      8.9829986994601629      9.0152613519848419      5.5293134021730648
   266   1      7.7056950904988399      10.204038728065887      3.7085608343664429
   267   1      8.7861379595122067      11.518155016216694      5.4331999182617041
   268   1      7.5117231351131775      12.894931995555204      3.6179612543704383
   269   1      8.9983844365281254      14.100933101657864      5.2497646069081627
   270   1      7.7701162320868082      15.357819130568263        3.49064478953769
   271   1      8.8604346491724364      16.538197306770751      5.4377130506338878
   272   1      7.7820480753174692      17.854587675379726      3.8134556486145739
   273   1      9.0980033818437356      19.335286468596795      5.3609139180682126
   274   1        7.64773019034768      20.510127234014682      3.5948581066153467
   275   1      8.8557785015773156      21.893773004975511      5.4736640620173258
   276   1      7.5345451736232532      22.936688193053836      3.5532571710782701
   277   1      8.9761214209689353      24.326820799165059       5.307055436846901
   278   1      10.193402797227936      25.425308234767282       3.425960910092908
   279   1      11.437523634447235      1.2650320267556292      5.3382475145795993
   280   1      10.064145125608025      2.4134957963869637      3.5013580929429851
   281   1      11.553098286204866      3.7721890155252162      5.4642590724434204
   282   1      10.154851877804086      5.1194258875742751      3.5876491496652076
   283   1      11.413198494305112      6.4580602624688748      5.6279522467302137
   284   1      10.227636019972167      7.6332670491168422      3.5672961108088077
   285   1      11.708366919717582      8.9785281510702113      5.2659693665742902
   286   1      10.162349303960863      10.312169161512058       3.585332068151287
   287   1      11.527701407459336      11.604756962045844      5.3920079264518535
   288   1      10.182177320247794      12.745524731585421      3.7159515094237991
   289   1      11.559433900274772      14.151602268342939      5.5194208202228561
   290   1      10.184508084978939      15.175871480456028      3.5886457699862508
   291   1      11.417017941451588       16.52371157099687      5.3491341759318729
   292   1      10.202838960926712      17.799267102299485      3.4983314471050231
   293   1      11.389307805674767      19.048084004082529      5.4578077893632058
   294   1      10.252178468537521      20.530412259538078      3.6019048977395745
   295   1      11.553757745872666      21.672842112834402      5.3786677137643188
   296   1       10.32519285639326      23.076630289092662       3.564839643928678
   297   1      11.486894071998533      24.313787634993631      5.3671354588687361
   298   1      12.781421253340641    0.074404813181840654      3.6697235620594575
   299   1       14.13803825600624      1.3144625814514486      5.4393072334308306
   300   1      12.847886294005354      2.4650658068868352      3.6726854493315453
   301   1      14.004258460146941      3.8146931860184083       5.551324568525664
   302   1      12.812759602058451      5.1107303617610267      3.5673440650023838
   303   1       13.89040703586333       6.378238824952958      5.4198026645411215
   304   1      12.826616856923504      7.7545523387934958      3.6509883754764303
   305   1      14.004074831558416       8.902572438807443      5.6040257736811752
   306   1      12.829018975975742      10.298795902330408       3.647498005471105
   307   1      14.132205248135312      11.520189931010387      5.3880609391186001
   308   1      12.766318759014188      12.807473559880034      3.6365349025287528
   309   1      14.201191212652278      14.068290977204605      5.5167686838206347
   310   1      12.771331324892284      15.289427819434978      3.6256824185557117
   311   1      14.088517014489303      16.522875500002186      5.3558729663692439
   312   1      12.635616292637426      17.821872649368924      3.6643036976454662
   313   1      14.043295762274767      19.070722846058043      5.2993830446248857
   314   1      12.766942609633613      20.407081195830354      3.6878619038168146
   315   1      14.106691577364609       21.66311640564772      5.4461771138901476
   316   1      12.782704220587208      23.058496579246285      3.7098507115901191
   317   1      13.905509614371944      24.433219325617138      5.4442758793264048
   318   1      15.382606579216981     0.13712260141895072      3.6054747866878514
   319   1       16.60796657678549       1.318895597179732       5.407620571622779
   320   1      15.346415519781926      2.5958164809077497      3.6115342834268671
   321   1      16.481120107674919      3.8820471188663017      5.4462699637375653
   322   1      15.316028704172119      5.1152000265596582      3.5873320584246819
   323   1      16.582335589687961      6.3926606012392773      5.5274276966833984
   324   1      15.311836857314992       7.783976478783722      3.7201536547521554
   325   1      16.379266076455661      8.8849791052452289      5.4995002413314005
   326   1      15.287128937605901      10.197877075076027      3.6852051592302075
   327   1      16.606975710795108      11.372172925705343      5.4834202083168995
   328   1      15.421094791514122      12.835106701813521      3.5061981213244384
   329   1       16.76540284180717      14.162617586395129      5.5912147054834147
   330   1      15.509283972585704      15.217648071230002      3.7096184901949858
   331   1      16.825621157469893      16.772336083012924      5.3729672338149683
   332   1      15.300816473150975        17.9072599294526      3.6904013601979133
   333   1      16.636132655081628      19.251034680797638       5.405713354569202
   334   1      15.218387525699162      20.416550242322998        3.61037331733657
   335   1      16.636028040002671      21.862075087438466      5.5762467576487147
   336   1      15.309722553378277      23.156597635325795      3.7375796669653831
   337   1      16.650690338994053      24.260955824614243      5.3943004530678547
   338   1      18.008901178972749     0.16641646550999914      3.7347349995327312
   339   1      19.175336252437599      1.3068545200552539      5.4693263972979951
   340   1       17.94827715493183      2.7094412301414739      3.6721854128307436
   341   1      19.030104445294796      3.8149459054146098      5.4503583255604662
   342   1       17.76727041960239      5.1926816095522828      3.5397031202542069
   343   1       19.00774810550179      6.4483089656923722      5.4524199824198085
   344   1      17.756749730448131      7.6505672367024982      3.3533310052324161
   345   1       18.87609932685908      9.0061962853410016      5.3470165909058789
   346   1      17.921824266350875      10.119782039443486      3.6278084803680084
   347   1      19.112708354311152      11.423412942160066       5.553248336256857
   348   1      17.818596153642517      12.580285405648684      3.7822933797476548
   349   1      19.267474078046067      13.951390227425117      5.3352066352687526
   350   1      18.073315809016126      15.256058551040564      3.5827331745654662
   351   1      19.226484034916403      16.559279069483622      5.4352823548016804
   352   1      17.949979535513272      17.955661802264299      3.4361540426446271
   353   1      19.253475515895861      19.221135014049914      5.4310987239111217
   354   1      17.741344227373126      20.463845537975686      3.5203325278497344
   355   1      19.306219640659037      21.718590009162565      5.4504291559458533
   356   1      17.988075807009004      22.981913071647686       3.704422041130643
   357   1      19.404343507039759      24.305390211147817      5.2857509635279643
   358   1      20.368029856001147    0.042923505330949401      3.5983106653855765
   359   1      21.722382734864205       1.196992077628829      5.4152615534504172