dump/Cu_400_20/steps_1 (written by ASE) 

1980 	 atoms 
1  atom types
0.0      25.526554800834361  xlo xhi
0.0              25.5265548  ylo yhi
0.0      36.100000000000001  zlo zhi


Atoms 

     1   1      25.464996313324864      25.522569942134631      36.086389484905723
     2   1      1.3105266712247148       1.203476476554197      1.7012241958102776
     3   1      25.519033683265675      2.4714281030399894    0.003804739808242647
     4   1      1.3558852563433639      3.7869965864517714      1.7613268681140073
     5   1      25.456826402809213      5.0268354241805318      36.074098205121452
     6   1      1.2625368022023606      6.3732735213048715      1.8023971396160856
     7   1      25.494503824951202      7.7773938459907495    0.028683463057927825
     8   1      1.4330161534245218      8.9663457330173149      1.8818665850905649
     9   1    0.023793933923300897      10.315076527471312    0.079511884179100961
    10   1      1.2407734635355585      11.542396211559703      1.7481721640879746
    11   1    0.036437813823734934      12.656771178068006      35.982420876132856
    12   1      1.4150500484383461       14.08164077208894      1.8391112635707818
    13   1     0.13295176349099566      15.446333952440641    0.018989586625707489
    14   1      1.2802662620676699      16.575690319757289      1.8415397149432677
    15   1      25.470910279463784      17.842123396745421      35.926667313504346
    16   1      1.2920291605513476      19.059955036151198      1.7362082301915611
    17   1      25.459795562690662      20.486897426831561      36.010322926156931
    18   1      1.3666715036342016       21.73554847192996      1.9229258166554939
    19   1      25.505263871766974      22.898421251100846     0.11109754128278841
    20   1      1.2519104713081448      24.223832077989766       1.821554717592291
    21   1      2.5467948052666141      25.423648846044703       36.01438032943603
    22   1       3.779685207309373      1.4245700479291823      1.9155265983460601
    23   1      2.5922979702266145      2.5934532674280648      36.046042168129198
    24   1       2.780453677549521      5.1583592267755023     0.21270447669762679
    25   1        4.14643618992889      6.3017287959696384      1.9207780874509566
    26   1      2.5148721126551528      7.6276285578195555     0.14134545328655565
    27   1      3.8489214727173344      8.9213903320317129      1.8572103614725626
    28   1      2.4582769176572632      10.185623631754879      36.012497307287695
    29   1      3.9681602181991278      11.406096214667837      1.7369884030500415
    30   1      2.6013270405779529      12.839011272175259    0.014809867335611666
    31   1      3.8796950470315439      14.009067250393093      1.7090778891183522
    32   1       2.637863055052605      15.294188051080329      36.096227780875118
    33   1        3.76868711638808      16.701198481058256      1.8571884210143697
    34   1      2.6201346571225588      17.909669598936638        36.0727752668693
    35   1      3.8088676305978875      19.221341492215466      1.8281036936185961
    36   1      2.3812986775828771      20.463006424341287    0.047208108730137609
    37   1      3.9384087848529998      21.876237949044683      1.8225678049659564
    38   1      2.4883315012609009      22.805910191421184      36.014428398603769
    39   1      3.7997367299500278      24.334492934632689      1.7598148657778319
    40   1      5.0847987323709001    0.065030998133484202      36.050911853118599
    41   1      6.2628440579544122      1.3841959432644271      1.7819833596922643
    42   1      4.9903880753799585       2.684040409599759     0.22264935192443994
    43   1      6.2738487522522286      3.9745442797479624      1.7421693186776785
    44   1      6.5715768109409849      6.4406958841964901      2.0606464253087911
    45   1      5.1110564324996739      7.5485704977178774    0.056248223235002226
    46   1      6.3853631575282641      8.9599013785731749      1.9470888952702363
    47   1      5.3060212478540612      10.076791135439864      36.057509587400425
    48   1      6.4713596338685537      11.416068484418775      1.9539439632509805
    49   1      5.0900995715258954      12.733948595613823      35.886300363269577
    50   1      6.3094704407212214      14.083970493115354      1.7136310925428229
    51   1      5.0403528259216079      15.510035238028271      35.971485704888444
    52   1      6.2272149212254213      16.685534141408986      1.8205529079634422
    53   1      5.0883381549769604      17.912564960797653    0.073629933743109041
    54   1       6.361541449463183      19.207500130762799      1.9113422917326814
    55   1      5.2414012019808442      20.394110490223564    0.099678426616856095
    56   1      6.3849657946520262      21.718391866681362      1.8076493636125197
    57   1      4.9786596685109537      22.954771104261351       36.07340014776824
    58   1       6.297992382992434      24.531101828852528      1.7522424753794457
    59   1      7.6008878631887535   0.0054247970547387581      36.029276561568473
    60   1      8.8713911962015164      1.4200011473475471      1.7112420919338542
    61   1      7.4674311818986379      2.4372456804738212      36.058576757830018
    62   1      8.7668800387564936      3.7558227928663883      1.6172933490695092
    63   1      7.5950213498285981      5.0669180070264774      36.000350513927089
    64   1      9.1037314948245402      6.4972431534824464      1.8767276420531855
    65   1      7.6278769645705715      7.7073362186534746     0.13303954336473678
    66   1      9.1326946788016876      8.9526107787739466      1.8159586727590988
    67   1      7.8146274547648575       10.07906984055213     0.19376042587836079
    68   1      8.9882103772813853       11.52151433847976      1.9580804343406841
    69   1      7.5838237125530084      12.872157441728159     0.10167080508300602
    70   1      8.9178498106795328      14.097390734065621       1.650269746977834
    71   1      7.4842543832048207      15.454119283385532    0.021365855417263917
    72   1        8.78335931821948      16.810192799506151      1.6998081342753948
    73   1      7.6513475719863004      17.924020186610861      36.001314790508715
    74   1      8.9054494717898187      19.242404879868751       1.838191314307936
    75   1      7.5658299982459996      20.478455340658535       36.06997762347612
    76   1      8.9542428518088126      21.880069769216046      1.9385914722196733
    77   1      7.4883629403366685      23.060186795963837     0.10479675751917039
    78   1      8.9486253570327499      24.287588254091933       1.819206831419661
    79   1      10.320309245548096     0.22215596866111162      36.089054971306666
    80   1      11.523441749686972      1.3661239824674676      1.8383629895350049
    81   1      10.179026411893437      2.6680053925995182      35.891909984713223
    82   1      11.521228068556981      3.8856724605470516      1.8634479997027149
    83   1      10.037107660944644      5.0728370829014677      36.073558527507146
    84   1      11.528900316049167      6.4386623076870606       1.716116308172287
    85   1      10.259405004384954      7.6821054247454708    0.023011541013397613
    86   1      11.529728123039758       8.963455663246128      1.7599733456874327
    87   1      10.268467978076874      10.149028320676477      36.005026288456669
    88   1      11.445992084510559      11.427660733201845      1.7478621972359742
    89   1      10.123200367719328      12.641456762757922      36.090454587591928
    90   1      11.295079140519789      13.924575525998504      1.6555037316257428
    91   1      10.066339284075163       15.41048349905056      36.052155740707065
    92   1      11.411327337251084      16.652576192558271      1.7298772269105598
    93   1      10.071497947798861      18.076185728610358    0.026068343165684366
    94   1      11.584322347349328      19.248666504019738      1.8477663705417504
    95   1      10.153360944867744      20.858625218926583     0.11914129898643758
    96   1      11.520031084900344      21.860932272296647      1.8782927037075519
    97   1      10.170081332070714       23.20916660300983      36.079415526296195
    98   1      11.546900682028307      24.257253399284771       1.785504066202189
    99   1      12.846917023034329    0.035728656001742673     0.10809787705710523
   100   1      13.899266572903398        1.16975139802983      1.9114310693740666
   101   1      12.727371320486107      2.4408234014627057      36.078581844052174
   102   1      13.983411601856641      3.6879812326672616      1.8730397127091465
   103   1      12.758182285360503      5.1067219224301637    0.065306657220844611
   104   1      14.027032665031342      6.2718615970020677      1.7353418209102871
   105   1      12.857049184332093      7.7815733968194767     0.10041057339853991
   106   1      14.179698422885144      8.8993689829387908      1.9325359277568401
   107   1      12.931154456099764      10.123113748882991     0.13909132452445197
   108   1      14.117717778349645       11.35836633440741      1.9033111861531313
   109   1       12.74421078704753      12.689438473780037    0.056848686875037059
   110   1      14.073420684731616      14.200186868722753      1.6566717078013991
   111   1      12.594946131029033      15.525854744783521    0.009069403504929581
   112   1      13.970439595151817      16.780920720981939      1.9849168240204436
   113   1      12.592949315704143       17.94296897677814      36.086448519634153
   114   1      14.066415488756927      19.186514023632157      1.6885643796775638
   115   1      12.749566277441511      20.472276892182929      36.042053435004121
   116   1        14.2314150163275      21.627260696811732      1.7534219763869494
   117   1      12.916936642510594      23.012304534189539   0.0098689142714192806
   118   1      14.000934412916836      24.169304300731518      1.8103365133118698
   119   1      15.218185048267985        25.3823586427587    0.033775001037827247
   120   1      16.492950453492593      1.0855688036629521      1.8561953879759263
   121   1      15.421266446298786      2.5202433914266629    0.053081923516322238
   122   1      16.521421899788805      3.7280767017047478      1.8058154532443838
   123   1      15.405775887344252      4.9940324540618919    0.090058020057063135
   124   1        16.4988205077135      6.3107861574103774      1.8471105829604086
   125   1      15.243819191721386         7.6101304609659    0.041999109955270328
   126   1      16.772053088749026       8.910008123761644      1.8367346191724661
   127   1      15.529375042365855      10.158061912061676    0.062567620895049414
   128   1      16.669699801693405      11.458620729409292      1.8641940998158701
   129   1       15.37405986557595      12.636268789856263    0.094320948294102744
   130   1      16.633363355973859      14.019193634017945      1.5936000045806265
   131   1      15.391266739898045      15.379768818197611      35.958082342903978
   132   1      16.571673233387738      16.522497275603122      1.6540722555497722
   133   1      15.296722553471678      17.693740027131895    0.084992836161029428
   134   1      16.754581509189205       19.00880526752541       1.783517121668422
   135   1      15.386265280278423      20.392815566997481      36.036939828105808
   136   1      16.645954348821988      21.628876302729235      1.8312186594174937
   137   1      15.317827727331826      22.877447304273264      36.066998014736861
   138   1      16.606592160590335        24.1596044505599      1.8136355713301313
   139   1      17.827307884856879      25.503258883874519      36.073318479533391
   140   1      18.975298228909971      1.2195256150661142      1.7633849554368675
   141   1      17.965869249282878      2.5285202886206615      36.035072190702827
   142   1      19.151674402542742      3.6489687870536942      1.8474272725783194
   143   1      17.890401931164419      5.0975898030969375     0.19688332355054841
   144   1      19.297035311741276      6.3450747940410235      1.9017414337605023
   145   1      17.804266803822316       7.461230581445168      36.019375052869258
   146   1      19.177642086677142      8.8599790807402865      1.7990738051586155
   147   1      18.013344442718086      10.063957445576859      35.956697158087501
   148   1      19.216041864608538      11.407378609595654      1.7990352898332296
   149   1      18.014669631470014      12.652351067748508       35.98335493644138
   150   1      19.076571282002167      13.889760375382808      1.7118049611622383
   151   1      17.922118980438253      15.261077235318783      36.010295485526257
   152   1      19.135737596399323      16.517260393828948      1.8643085106937982
   153   1      17.785676555215822       17.82145816704713      36.096850294343369
   154   1      19.154678263471311      19.161076340134425      1.7780243115939347
   155   1      17.878965258188995      20.336571178782219    0.038800112773446915
   156   1      19.119589851810293      21.672147033746384      1.7871097256899595
   157   1      17.955741182478373      22.923812136351646      36.059844536136389
   158   1      19.173546064172932      24.270358606827379      1.7740029886499644
   159   1      20.365384669816997      25.488463173405691      35.967754130672986
   160   1      21.639882361750605      1.3161515213759098      1.7517387709423571
   161   1      20.393466405193568      2.5837084236186025    0.058963464470354943
   162   1      21.513026496483061      3.9024272148842676      1.8114058388303875
   163   1      20.399761857447235      5.2296476272602854      36.069692080018648
   164   1      21.720379943399589      6.3987637439707603      1.8361525851796265
   165   1      20.353356815803942      7.7665641889950949      36.030344720253836
   166   1      21.597785712209369      8.8432891616371982      1.6834364231256014
   167   1      20.353393432339612      10.348733078388488    0.030971881663765532
   168   1      21.640388378099882       11.37279523470953      1.8308527346318229
   169   1      20.425567588567073      12.800085535259448     0.11321135012703974
   170   1      21.887239089040627      14.080417852812797      1.7741899195855468
   171   1      20.287387054818531      15.316397105657154     0.10108519529493394
   172   1      21.773247349854074      16.546683672565344      1.7761996913164451
   173   1      20.383484741072973      17.768014083710163    0.085217567156246413
   174   1      21.770854280339936      19.063788888929874      1.9194602076475475
   175   1      20.242325514920928      20.446960269618749    0.054000582890887466
   176   1      21.666598013160041      21.624220530248191      1.8368936167192373
   177   1      20.520382272411041      22.972904557756603     0.02981006472896296
   178   1      21.670251128637382      24.241804634282431      1.8893770106009715
   179   1      22.790749898986245      25.501831949736722      35.897647221621362
   180   1      24.235900858414436      1.1920261897462956      1.7364111653240573
   181   1      22.912537924229774      2.6140194694568639      35.988103907607119
   182   1       24.15160382150869      3.7288433961198497      1.7283804795934092
   183   1       22.77542343512701      5.0814082401829115    0.081693457526773872
   184   1      24.297850011288954       6.235602127542677      1.7865015536692233
   185   1      22.972293367422118      7.6049408642547478    0.031039612735230551
   186   1      24.072795765725051      8.9141892366881752      1.6741185369235052
   187   1      23.024321180527377      10.203410518656332      36.072152859836642
   188   1      24.301211059254932      11.426868748637451      1.6809632779222516
   189   1      22.996339220154812      12.782426871402333     0.16885773966433823
   190   1       24.37375367168098      14.128529717390176      1.7199837676320728
   191   1       23.17963814416014      15.273157914500814    0.022735642449674756
   192   1      24.189179469923499      16.737600193949383      2.0093273864120884
   193   1      23.149551899950762      17.722668988984964    0.036075255828563982
   194   1      24.348736457932869      19.152101922635897      1.6933916112614738
   195   1      23.025963973154266       20.50903094407327    0.018342543626931725
   196   1      24.318864775015275      21.807742573049243      1.8422937616798332
   197   1      23.026622398325532      22.933347127810158      35.975269269635767
   198   1      24.221409816849711      24.226730031668364      1.7305838502443394
   199   1      25.505555887681631    0.045997317473563983       3.703936358828769
   200   1      1.2409950252890489      1.2814416328823353      5.4474109431486371
   201   1      25.459380514357733        2.58794215217898      3.5070752750521379
   202   1      1.2686193283468457      3.6558619510543768      5.3171972669736629
   203   1      25.468531120647445      4.9020451052874758      3.6197033401515313
   204   1      1.1702358027258521      6.3313698237130227      5.3102390874678722
   205   1       25.40812576306671      7.7424867661747996      3.4973109892736152
   206   1      1.2399558701089415      9.2034418869654662      5.3923266980073015
   207   1      25.475383174228529      10.160100581627914       3.523753798186978
   208   1      1.4763208773462233      11.632757033775109      5.3610940479933236
   209   1      25.444504330008957      12.721298373708919      3.5474688066699067
   210   1      1.2930504292552978      13.891169382276706      5.4710517183933787
   211   1    0.089433404153845458      15.199666632150052      3.6939411979541803
   212   1      1.4264599641415343      16.568625326243421       5.374938195205833
   213   1     0.19487209538777447      17.905225916773357      3.5807004630744244
   214   1      1.2306110698067949      19.193492007614807      5.5043015886887172
   215   1      25.457888996545606      20.390412326149832      3.6279787268488359
   216   1      1.4708255402604358      21.812002895804973      5.2615960226725127
   217   1      25.358971908351965      23.039767615288891      3.5791709719014428
   218   1      1.3116308942688555      24.240658878312921      5.4983994431018983
   219   1      2.5962329533953263    0.040686121159240751      3.5041305477187854
   220   1      3.8291851484910371      1.1352855730232505      5.4405526388305443
   221   1       2.578341005162887      2.5272779073109541      3.6732520399150865
   222   1      3.9835953284388199      3.8901968643827902      5.4144067408760339
   223   1      2.6405784469243776      5.1824340888271081      3.4396934021753163
   224   1      3.8882169390043058      6.4016455834623338      5.3255266813955009
   225   1        2.59529128439137      7.8145160670714544      3.6713530319007917
   226   1      3.8263582534569065      9.0861042182493961       5.341411461855734
   227   1      2.6017013234905511       10.35124401763262      3.5971639819680723
   228   1      4.0360208270829157      11.598733996939746       5.417588570850727
   229   1      2.6520245182245796        12.8142188598025      3.4201338369003338
   230   1      3.8345323637167779      13.948055306023889      5.4040912803396033
   231   1      2.5588546849786153      15.266866404076287      3.5861906390628646
   232   1      4.0039113558621668      16.404220753267499      5.3135737159593024
   233   1      2.5259263178987168       17.93557817784566      3.7181440854188055
   234   1      3.8449534172807103      19.216965060526761      5.3174082358759218
   235   1      2.6408730322543366      20.551874256833351      3.5404798022147599
   236   1      3.9907550926094433      21.812018495298972      5.4711898244598567
   237   1      2.5035713142366762      23.069354885268407      3.5623931600868795
   238   1      3.8189117548676332      24.262421151604865      5.3115860466588236
   239   1      5.1447245682594183    0.076091022313288709      3.6418325063678196
   240   1      6.5030581566604981      1.3948239096165711      5.5739560189898674
   241   1      5.0784629566200072      2.6033847576417419      3.5945790469792787
   242   1      6.4241623143001032      3.9337819051246652      5.4075918810243531
   243   1      5.2107658365175631      5.0549857278875994       3.636699382034041
   244   1      6.5863856227281214      6.4808852645258792      5.5194818464386568
   245   1      5.1507035400645389      7.6299188870581247      3.6816788302006533
   246   1       6.496849280583243      8.9853868795032099      5.4735130987697174
   247   1      5.2395353020907089      10.278655859186481      3.6818024924142492
   248   1      6.5156609842789841      11.669865271681186      5.5068296216337558
   249   1      5.2516657823409867      12.827020796908608      3.5157982107391952
   250   1      6.3773677582106014      14.162643119737719      5.3295031346727662
   251   1      5.2438371890210886      15.399622764705629      3.6140474428654183
   252   1      5.0036343352906378      17.982070745365842      3.5427336796133662
   253   1      6.3711231924490859      19.001358846513551      5.3703046642701553
   254   1      5.1826940277112934      20.532200022759216      3.6751536436955154
   255   1      6.5709259682284138      21.763186401162038      5.4937072048788993
   256   1      4.9825950796222003      23.030760996535829      3.6408850221334883
   257   1      6.3938329041068789      24.292786593645602      5.5552663359345456
   258   1      7.5522393294932089      25.521193619099058      3.5033302860547919
   259   1      8.8286825666571698      1.2699785162171677       5.433473521589856
   260   1      7.4954601237815437      2.5729398807423087      3.5919967290732631
   261   1      8.9081854932731357      3.7683324807619578      5.3849806691815276
   262   1      7.6477508966860483      5.1905975890179361      3.6981086816447628
   263   1      8.9161646915894419      6.3035537446178305      5.4691302151498462
   264   1      7.8128254654862381      7.7780100232974743      3.6211938868175086
   265   1      9.0204090786372948      8.9022056579614119      5.4580359594257333
   266   1      7.7923618070730756      10.264830260693541      3.6675365025711897
   267   1      8.8660178246856152      11.411886260518482      5.5631260729819303
   268   1      7.6964377870286578      12.908155155770888      3.5390031164642428
   269   1       8.833309162028895      13.959568574598189       5.470611973245588
   270   1      7.5267880575255726       15.45506716756679      3.5162349186721271
   271   1      8.9101909172127858      16.245206427717111      5.4868542500596682
   272   1      7.8500281044151654        17.9099650132585      3.4217319127226351
   273   1      9.0013812324131308      18.994026079822316      5.2648951229916978
   274   1       7.706266089583921      20.419552977616625      3.6736990816510504
   275   1      8.8935479600481511      21.746038916467228      5.2604056628785303
   276   1      7.6807023355081272      23.092780714620158      3.6423102951450979
   277   1      8.8474857093227719        24.2948537603198      5.5547531153943321
   278   1      10.391892386748719      25.507151757189138      3.6490158890039188
   279   1      11.563016907131679      1.0719846530689143      5.4356563544801606
   280   1      10.200259979962762      2.6035287748600853        3.65719401679601
   281   1      11.422569530006855       3.821623732996259      5.4439542431209791
   282   1      10.228379105171129      5.0951365753933002      3.5827429584772181
   283   1      11.441950814238968      6.4000456158738386      5.5029950449369993
   284   1      10.338768701223342      7.7321737894531353      3.8984258767371402
   285   1      11.411524024826933      9.0412109073776037      5.7214327026094791
   286   1      10.241575867206787      10.245611240150893       3.760892526944811
   287   1      11.476157399802913      11.603571773909596      5.5213031452886296
   288   1      10.112029089559909      12.686170902059375      3.6802014791681454
   289   1      11.428027727503183      14.131994193993835      5.4320278538904656
   290   1      9.9189607205004826      15.252439810417602      3.4885047501797648
   291   1       11.41764083574656      16.634197476563205      5.3599496976593395
   292   1      10.339170862745132      17.971117727415635      3.5776062648039333
   293   1      11.525908730187426      19.188696082660524      5.4300913251945673
   294   1      10.280649655531267      20.530037827963021      3.6163149341417071
   295   1      11.469489774104336      21.719169212359581      5.3976482836320896
   296   1      10.233082547263754      23.124155666613234       3.590611680976497
   297   1      11.466007005912177      24.254942142239134      5.5048256890612635
   298   1      12.893928926501022      25.416169147002059      3.6168276860353679
   299   1       14.07082599537488      1.2691046829988877      5.4174042562386706
   300   1      12.670414886896019      2.6368165492116682      3.6696107083571921
   301   1      13.895821145666975      3.7631591562128945      5.6788290756500608
   302   1       12.59643001096522      5.2492946588496485      3.6566462342202328
   303   1      14.209524032623024      6.3008983899093467      5.5009262078611219
   304   1       12.78623433749558      7.5692409364179349      3.4958719014314408
   305   1      13.920123686320601      8.8936135341307665      5.4429281299535646
   306   1      12.793829912957621      10.069290373741381      3.6885667073333743
   307   1      14.002376958455709      11.552958168645615      5.4109222791543568
   308   1      12.618115552660612      12.649855799397121      3.6241663773264357
   309   1      14.047657290165358      14.098602429147606      5.4378295224240691
   310   1      12.590772692953117       15.36135602774068      3.5772800962864957
   311   1      14.077935293291015      16.583421326835779      5.4780763298645621
   312   1      12.895875822593089      17.966216108940401       3.662546815601091
   313   1      14.074578366804337      19.110868538754552       5.384073448350235
   314   1      12.864667178456941      20.432426996409433       3.618295691789434
   315   1      14.185433935511055      21.577527158609232      5.4446140859830443
   316   1        12.7992306104427      22.957859953501313      3.5517992701474226
   317   1      14.155143779645043      24.247786722673769      5.2919335160718157
   318   1      15.257459011736133    0.024410672882971503      3.6265467420046527
   319   1      16.715008004121604       1.087495780317399      5.5736371783091299
   320   1      15.299176120745221      2.4346776643958443      3.6262083644781251
   321   1      16.420137556283837      3.9175445656153922      5.4516801600081068
   322   1       15.05623369190466      4.9532022903147119      3.5608612738051888
   323   1      16.556360347109162      6.5713131150333082       5.566094771807931
   324   1      15.354449664308602      7.5070967688844092      3.7415958907562099
   325   1      16.686961104720769         8.8907519118747      5.4590478429042388
   326   1      15.443399017199777      10.179759519389268      3.6913677289773164
   327   1      16.460505408368281      11.377454816251467      5.3730496878793215
   328   1      15.228422392677118      12.811183953696691      3.6529657763151882
   329   1      16.652112519920564      14.169583870566466      5.3177969616540874
   330   1      15.204851957391076      15.353435404244514       3.683697955836764
   331   1      16.670683389062145      16.564682478529768      5.4127322402863491
   332   1      15.458760559067199      17.939043144126796      3.6494142116743133
   333   1      16.813849334914615      19.024370441316194      5.5293614438413377
   334   1      15.467273366590417      20.243391148084488      3.6797048720161571
   335   1       16.57362358466964      21.625610657529187      5.5525931285102503
   336   1      15.376202980815043      22.862382167099305      3.6338730940760162
   337   1      16.628790743099472       24.08342181803495      5.5212265027374707
   338   1      17.932829966519542      25.308901812591223      3.7411737036977248
   339   1      19.106467515393017      1.2065786663106246      5.4232701155571421
   340   1      17.698521076662079      2.3593517004821769      3.7699345255370038
   341   1      18.941406177931878      3.8803948281427694      5.4185351820989718
   342   1      17.725161278859559       5.092681434643163      3.6092492153014408
   343   1      19.104692544877235      6.2993530401777349       5.489751124517217
   344   1      17.913278767988523      7.5020142097506142      3.5589340312353772
   345   1      19.199174382630272      8.8199898584441883      5.4381660399132592
   346   1      17.893416436278109      10.073088354408156      3.5682828172208931
   347   1      19.067473891083399      11.392840748825995      5.4747266868006941
   348   1      17.776823471726093      12.596543481921268      3.5941089629505982
   349   1      19.148233732757475      13.927352879644468      5.4843364402014645
   350   1      17.814426901714796      15.209324639200824      3.5877989475386456
   351   1       19.26375798721293      16.515022721697196      5.2873283613567752
   352   1      18.047224871432999      17.845830726418278       3.512428055150759
   353   1      19.381702537765733      19.046585816628909      5.3249362830849858
   354   1       17.89656128707615      20.241992925735435      3.7636863787145409
   355   1      19.227215016413535      21.656162285177711      5.5055971721309502
   356   1      17.863176865269779      22.929428601860508      3.6457456035140914
   357   1      19.225396842515586      24.175677978833374      5.4230526168758351
   358   1      20.468696001472956      25.477063987029265      3.4619300319234654
   359   1      21.586061924100463      1.1760083642171417      5.3934945641152483