dump/Cu_400_20/steps_41 (written by ASE) 

1980 	 atoms 
1  atom types
0.0      25.526554800834361  xlo xhi
0.0              25.5265548  ylo yhi
0.0      36.100000000000001  zlo zhi


Atoms 

     1   1     0.15784809503016137      25.409457148465922       36.01651466446944
     2   1      1.3044716469416535      1.1797857435643206      1.7672782609469309
     3   1     0.10845204574364718      2.5863582907272531      36.044840621106182
     4   1      1.4257570615228841      3.7408808999475149      1.7592066098899188
     5   1    0.041323864268977162      5.2110319155323195    0.021162018927043384
     6   1      1.5211863347477232      6.2363070248942059      1.7435781385618394
     7   1    0.096135571718690971      7.5732558436264616     0.19729737431079014
     8   1      1.4127063214330595      8.9524420940520546      1.9432092104793803
     9   1    0.062987506736502608      10.085245087675842     0.07348430995574505
    10   1      1.3082335919786956      11.511147853711295        1.83972154901568
    11   1       25.44375663936588      12.674741756102604      36.055050740516712
    12   1       1.154465892917625      13.824760487348057      1.6805403417843665
    13   1      25.516691656490593      15.218773765771278      35.935001984695049
    14   1      1.1694387921125693      16.522975614863295      1.7602257722678918
    15   1      25.385200580013404      17.765471690418352      35.948932930082421
    16   1      1.4443447398332974      19.098531452289805      1.9409676417290704
    17   1      25.471024069940594      20.451650666743642      36.018879478426541
    18   1      1.2491800718294748      21.612991484774469      1.8005023571490957
    19   1   0.0085069760556220394      23.012311874186288    0.033560280455253638
    20   1      1.3189837662382655      24.221335499428395      1.5661016109414632
    21   1      2.8086300167447313      25.459922089720703   0.0092888185399715561
    22   1      4.0425942400814998      1.2257388069280948      1.7608261993937975
    23   1      2.7194428772324115      2.5624392984799189      36.072405548182431
    24   1      2.8183322002094653      4.9816300982971784      36.096251571358714
    25   1      4.1096470578032891      6.2970390600033719      1.7207697209357664
    26   1      2.5420840256178616      7.4959252439480286      36.085522444342836
    27   1      3.7872236837137727      8.9822046034628933      2.0315225056171826
    28   1      2.6854877993845143      10.132291708980793      36.039020766388511
    29   1      3.8538568032109617      11.633149829585165      1.7564808987146314
    30   1      2.4405857958456969      12.598195404788848      35.961749100595547
    31   1      3.7694054077463699      14.211134145742996      1.7466184477154132
    32   1      2.5250175148222751      15.328430711441783      36.065140337573965
    33   1      3.7201441091637633      16.615216861305857      1.8784339050454386
    34   1      2.4503817714825931      17.994287484591187      36.082210359517141
    35   1      3.8748681254188813      19.150021870118419      1.9033211918665864
    36   1      2.5259148700013103      20.391938543182221     0.13378829931564282
    37   1      3.7129099295202654      21.752270978649786       1.807627589370167
    38   1      2.6966848698262629      22.869286183857131      36.054014135216491
    39   1       3.940744241997844      24.261024903665774      1.7105573382626293
    40   1      5.4910084046106302      25.403298479860354      36.028147821768677
    41   1      6.6656981472763333      1.2013028339302416       1.700136561633282
    42   1       5.158107698626492      2.5953938342405678     0.14922800253471002
    43   1      6.4560484119147885      3.8099969396857838      1.7692740650846315
    44   1      6.6077281395872038      6.4895430084281625      1.8782965076494189
    45   1      5.1252188251580932      7.7679958118320096     0.10481439543722205
    46   1      6.5711818945078093      9.0127245115479813      1.5412337874248354
    47   1      5.1088690034037212      10.379869013678469      36.072980219771814
    48   1      6.4129071898431382      11.564013425446406      1.9655434709021846
    49   1      5.1627535113439542      12.960095214333244    0.052030706117898257
    50   1      6.3348785705772883      14.132733417018855      1.9039063333815434
    51   1      5.0708658124319435      15.362243856278608      36.006834331008456
    52   1      6.3241585318236968      16.636709687167812      1.7742724577099824
    53   1      5.0349825079338224      17.956828646973111     0.12307596584339525
    54   1      6.3283764889041025      19.098675034406305      1.8115365548133573
    55   1      5.0724393076611927      20.566140284649396      36.089982765639142
    56   1      6.1787853822492131      21.800171325495061      1.7446945610352251
    57   1      5.1803580837039354      22.973833655346745      36.052209384626892
    58   1      6.5722419964394545      24.175300122676195      1.9250632009595505
    59   1      7.7595925887033221    0.054891513206775697      36.063812879954128
    60   1      9.0865611724533561      1.3028638181782568        1.84288275473184
    61   1      7.6258811578996157      2.6426687086941683    0.031234857618915177
    62   1       9.050383736842857      3.8251915794221985      1.7471640998021718
    63   1      7.6037702581411919      5.1260706360102146    0.018500657956076326
    64   1      9.0686484646563343      6.5069552943338707      1.8949905808918071
    65   1      7.7760986391041982      7.7302512672021377    0.017263466664155666
    66   1      8.8668915370661558       9.064298514061651      1.7478215750037285
    67   1      7.6156786391784896      10.540898094586842      36.091262879875785
    68   1       8.867388394821841      11.634837013181675      1.8023220992337872
    69   1      7.7160839929379499      13.031144505734513    0.081331257038902954
    70   1      8.9479890917064182      14.278414205084347      1.7851853673877147
    71   1      7.5750004465121767      15.548310702396947      36.099482580749125
    72   1      9.1438959048593738      16.768692792331692      1.8173188761636894
    73   1      7.7846339019951332      18.133098012489416    0.014898567778971023
    74   1      9.0356394819210326      19.281882875801028      1.7858267461815571
    75   1      7.6281529742843155      20.534758796453161      36.099128432877023
    76   1      8.8329312389479249      21.743605499392281      1.8641820487898162
    77   1      7.8005626109635964      23.035435619507858      35.960930327549256
    78   1      8.9529082960856901      24.166140099816928      1.5305292392809646
    79   1      10.356080952408135      25.471830866683476      35.953632544038975
    80   1      11.502674821960364       1.121567599966762      1.8041281208410405
    81   1      10.084932361151299      2.5381160616371061    0.069654724667338894
    82   1      11.511808194388964      3.7436567119056927      1.8338187541610622
    83   1      10.188948619791462      5.0509273333648324    0.011155200436724029
    84   1      11.696505005857425      6.4331668122461902      1.8227062794406266
    85   1      10.348728134605182      7.8693048610424565     0.19309935951994253
    86   1      11.505795530081793      8.9612613217449386      1.8830564901754896
    87   1      10.161640662316005      10.427704276193587    0.017179352710945745
    88   1      11.538677937187376      11.523608134994996      1.9242101840620667
    89   1      10.129155570606498      12.888247493378229    0.028038433766118927
    90   1      11.432695162362355      14.185955901906105      1.7938616072212992
    91   1      10.213937586801652      15.425457813227107      36.053122485805289
    92   1      11.568093805176416      16.579983103084547      1.8139198695929166
    93   1      10.311525983627043      17.916830430698329     0.10843083308254789
    94   1      11.478229577072725      19.227742669833887      1.8071350728844082
    95   1      10.197421553545539      20.543996175688445      36.081893982194167
    96   1      11.405855511133122      21.598546947594379      1.8555175970903854
    97   1      10.365194878944308      23.005705104146383      35.981063515134061
    98   1      11.535222334223683      24.148474983872113      1.7018129525731316
    99   1      12.872133342062503      25.521789306371918      36.057294050726803
   100   1      14.113217924812874      1.2645144063853586      1.8422187470137958
   101   1       12.73717597165577      2.5247870775150068     0.12463612798829894
   102   1      14.138484075374453       3.822449021608147      1.7967158136948793
   103   1      12.792912029201359      4.9857380310970427      35.985212215320338
   104   1      14.198405628973299      6.2638746365537008      1.6710305420334053
   105   1        12.7013221034245      7.7002095875688825    0.043711369793447814
   106   1      14.208981312558068      8.8755401722176188      1.9065362938038548
   107   1      12.730748493814813      10.224724534979485       36.07897624848168
   108   1      14.048570770727434       11.53282150704959      1.8535347541315457
   109   1      12.703021866342905      12.631943148001687    0.033945491076178773
   110   1      14.000500537159713       14.01087737963706        1.75960251244537
   111   1      12.816859695416001      15.407338944570505     0.10120986947572411
   112   1      14.148954056186579      16.542784177973012      1.7380618294909358
   113   1      12.838149295537878      17.999464318052532    0.058166576080929983
   114   1      13.982300529900732      19.229775054304138      2.0190461787055942
   115   1      12.822641290763531      20.494560648416627     0.07311559349909659
   116   1      13.926940571693939      21.698006616631918      1.7626182132697972
   117   1      12.935663004752229      23.063591207321299    0.055151349332811558
   118   1      13.986957298330738       24.29672964025303      1.8444024790045419
   119   1      15.341555901705975      25.487569875576842      36.042837642680318
   120   1      16.641857816401476      1.2452122553549003      1.8081511964428159
   121   1      15.188501597477856      2.4561018903058107    0.040992280755767642
   122   1      16.624521150190038      3.7717145078050738      1.9379227413245992
   123   1      15.367695157087091      5.0200417634432375      36.009262921290194
   124   1      16.797559219671577      6.4656841034099024      1.8369118361957379
   125   1      15.514296671202777      7.6797521485822831    0.017031654447282579
   126   1      16.727181516464469      8.8406401950178708       1.808479577186394
   127   1      15.244920634823689      10.102991747929646      36.013774125564758
   128   1      16.653083971702888      11.516729091176829      1.7028011287970131
   129   1      15.191558618879647      12.777728508329547     0.10463616113196399
   130   1      16.660032094163622      14.002992568346112      1.8851464341227488
   131   1      15.497336179440516      15.302551016110279      36.075311869511168
   132   1      16.502607510197414      16.533635952325973      1.9457805597363753
   133   1      15.380148640494607      17.961912230869988    0.018657011074481047
   134   1      16.600016598592557      19.179733929378148      1.8890195043767795
   135   1      15.384590533867906         20.504001431267    0.058813041814141855
   136   1       16.64308771577873      21.706095081678718      1.9904962651756926
   137   1      15.388091909694415      22.889918940267172     0.16879888911537375
   138   1      16.563416317760641      24.300884404156637      1.9894519875964434
   139   1      17.853659768169063      25.383447974983884     0.05714643962887743
   140   1      19.118031383573523      1.3150619005942998      1.8169470244535533
   141   1      17.743997312619118      2.5146492103935079      35.988036564583972
   142   1       19.21866097995872      3.8418438349679396      1.7810930915798526
   143   1      17.805914104990048      4.9131409159372623      36.027298652632474
   144   1      19.135801888834255      6.3459736737016392      1.8107167018832677
   145   1      17.944654990330289      7.6758302253209489      35.996108664382717
   146   1      19.165152547641863      8.9033365876778969      1.7197402203798215
   147   1      17.961817379221515      10.114192214527721      35.957215989290646
   148   1      19.078044653722237      11.364248140229146      1.5637730401987135
   149   1      17.757031304305769       12.80912769265467      36.005507960620804
   150   1      19.172938350187735      13.867191716221106      1.7853860297053181
   151   1      17.940768235669768      15.220717098578465        35.9585417585741
   152   1      18.924571849675793      16.420586267293338      1.9201689206263615
   153   1      17.948530509763067      17.713047443449067     0.16072620640793503
   154   1      19.243185273043942      19.024253770511859      1.8646485829652411
   155   1      17.901945363243918      20.440651626358694    0.078027793315868718
   156   1      19.133128035326305      21.593115880389082      1.8283003274634111
   157   1      17.810909567595605      22.907618559330324     0.16304940594528719
   158   1       19.10343833372189      24.214614703314474      1.9301508944573358
   159   1      20.507635514136059      25.501358615800537    0.089148478569427467
   160   1      21.673899060369322       1.299110973148708      1.8292425784145614
   161   1      20.430065637015907       2.487185899441517      36.018821769367939
   162   1       21.76730290784856      3.8556766579102457      1.9242768360151448
   163   1      20.451637832615596      5.1193155573644447    0.017586466134991954
   164   1      21.767149887620413      6.4200099062660838      1.7455216418509047
   165   1      20.372794457029272      7.7492952473726575      36.011108498647808
   166   1      21.768650071136108      8.8140341145543513      1.7750728780136564
   167   1      20.626737298307479       10.18602187489617      35.945181111325411
   168   1       21.60265980705811      11.311606416013733      1.8807225973697788
   169   1      20.443172143657062      12.697293661628787    0.049939783069044175
   170   1       21.76118488019344      13.980107890963032      1.7642792071725251
   171   1      20.332373001839017      15.287351226083146     0.13419492069155003
   172   1       21.69548712931341      16.541042759199126       1.753494284726663
   173   1      20.419477842773187      17.898841191504275    0.022238384642685103
   174   1      21.688110649546914      18.955211516325321      1.6825858016405275
   175   1      20.421159076229312      20.392442497654248      36.087205206005507
   176   1      21.767414788896275      21.656404248184632       1.866933994353041
   177   1      20.409841179471776       22.91879689324066     0.11373227359773645
   178   1      21.934454470899141      24.240957249908288      1.8653908775605617
   179   1      23.049566560595338    0.007168509276500392      35.988988425500978
   180   1      24.352960288545834      1.3040823406040725      1.6787471207545319
   181   1      22.958167538755148      2.6019040731866934    0.038176416940098053
   182   1      24.342915621244728      3.8071504492813464      1.6674649561752191
   183   1      22.961787745354869      5.0386826961621356      35.971041517209834
   184   1      24.243926036642023      6.3543373387484445      1.7544295173719326
   185   1      23.100202680334405      7.6357587956941337      36.081703873761654
   186   1      24.340285757749914      8.9098517146144793      1.8831902791158885
   187   1      23.064247880383522      10.407551321868723        36.0669313761857
   188   1      24.256482518214224      11.585431865314316      1.8088287279085185
   189   1      22.904646212634727       12.78447420492224   0.0085084751932868134
   190   1      24.210274634708554      14.154230158237336      1.7190340475402197
   191   1      22.928755223461391      15.191826756755221      35.977924093559331
   192   1      24.260968125150072      16.590581893342925      1.8066623074166388
   193   1      22.941099484785955      17.743486496310101     0.12687647438731331
   194   1      24.284496366418804      19.090310552323942      1.8216228895912863
   195   1      22.941214888640918      20.427152118336597      36.074011201737726
   196   1      24.206501651323553      21.772765237740991      1.6959249732915855
   197   1      22.995557768148778      23.057128304165733    0.048006653987795474
   198   1      24.346405141220494      24.351118160451712      1.7610743423663067
   199   1     0.15763700148826168      25.492803177555086       3.664361470992648
   200   1      1.5659941255728631      1.2688815885684435      5.3217657979242361
   201   1    0.081283463594327698      2.4706292098893434      3.4345371842024535
   202   1       1.268188956258073      3.8170455447356728      5.1393644181742006
   203   1     0.20743138889382604      5.0320524614679689      3.4598396225020798
   204   1      1.3791291087560607      6.3856121071457412      5.3949474614034481
   205   1     0.21969618145525491      7.5209654873696206      3.5897160791413838
   206   1      1.2232908213638729      9.0525189895539331      5.3931243748631363
   207   1    0.030029137545498727      10.219152771036226      3.6669140141666539
   208   1      1.3194372029911656      11.604472295752524      5.5672582065974519
   209   1    0.001475508423343207      12.693116522674114      3.4905787115422768
   210   1      1.2089329099554469      14.015460737109615      5.3984439327859794
   211   1      25.506569943386179      15.306974916949555      3.5614768155408236
   212   1        1.11074666855673      16.483189789411824      5.4095639364109545
   213   1      25.483315672700083      17.888231564325178      3.5524836011584395
   214   1       1.174557188818409      19.132198225839833      5.4331560628481643
   215   1      25.346504594558976      20.357266490661601      3.5795260312068304
   216   1       1.199809700786979      21.676870159492019      5.4165230036775807
   217   1    0.030974408973986262      22.850999667549267      3.5236382339393817
   218   1      1.3644248643703933      24.109341908982099      5.2665113188154509
   219   1      2.5790753555144041      25.517852511929703      3.5434924179131158
   220   1      3.9887850553701854      1.3153276655472037      5.3204654623875296
   221   1      2.7413778486371254      2.6107674189275447      3.5339078697410642
   222   1      4.0440493293313686      3.9262464976874476      5.2849209379462643
   223   1       2.629202315804771      5.1916103393690287      3.5653051604076058
   224   1      3.8727948331704711         6.3779804115904       5.373576813667456
   225   1      2.5806470186784107      7.5669189184558316      3.6651604564678522
   226   1       3.880907950581157      8.8784655584802969       5.386515476663539
   227   1      2.7342806526699674      10.305042480068499       3.840807212047169
   228   1      4.0199345813067859      11.493328371732003      5.5868259530284581
   229   1      2.8250602257064124       12.83701902490915      3.7717191456686354
   230   1      3.9392884926921217      13.902046796928575       5.491570904749465
   231   1      2.4879086960411079       15.25934958482979      3.7114853618703325
   232   1      3.7518407325691299      16.473012021958898      5.4924567372259689
   233   1      2.5944868869425357      17.747106569558362      3.7888482276050559
   234   1      3.8475808713391393      19.167238645826426       5.508586883520346
   235   1       2.361082458931572      20.494200115442233      3.6598249858816811
   236   1      3.8982251374019996      21.791990811275056      5.2857537428661328
   237   1      2.6216625254496555      22.969715659914751        3.64571099306258
   238   1      3.8933090142449664      24.419771942338333      5.2653488213806625
   239   1      5.2370313728820683     0.11493786599721557      3.5898474240686831
   240   1       6.452685677931302      1.1264782631540255      5.3017686230220296
   241   1      5.3732577629164471      2.6186479311347424        3.43267713764916
   242   1      6.3966910955763794      3.7441276824071035      5.3292374887535736
   243   1      5.1817311385465539      5.0373278150912055       3.502682484812182
   244   1       6.349445156325908      6.3558830243033517      5.4676637840918216
   245   1      5.2217977030928742      7.6447732604917622      3.6509535018251982
   246   1      6.4491400937891088      8.9008952014686216      5.3256844695558314
   247   1      5.2125659423649564      10.367871597871238      3.6682315474449214
   248   1       6.405784694683927       11.52440153184258      5.5365809960704766
   249   1      5.3047325010776278       12.92847103238072      3.6379367451602991
   250   1      6.4149117298205516      14.133932671391713      5.5322980764714496
   251   1      4.9722370225089971      15.332093618065894       3.573633929345601
   252   1      5.1785889815580051      17.694675492627574      3.6842846111840482
   253   1      6.3957672310835392      19.161406699026109      5.4363454065627792
   254   1      5.0737059665224651      20.462796535468243      3.7251294925363334
   255   1      6.3307078498753988      21.847615853476647      5.4407420029526286
   256   1      5.0664532773043174      22.967366392750957      3.5733619686239417
   257   1      6.5754344215374623      24.211990075479601      5.3066309356288892
   258   1      7.8371227845229727      25.482765614132902      3.6907452250388069
   259   1      8.9266427306254261      1.3285174187976863      5.5553677832163055
   260   1       7.910081815968832      2.5022416541619221      3.5312676032758428
   261   1      9.0842067066828225      3.9025291545903564      5.4693226794846579
   262   1      7.7942818348059415      5.0559765010244684      3.5085201126244794
   263   1      8.9949320382855937      6.7331431117282854      5.2972411063186815
   264   1      7.7945778689411842      7.8187212015234007      3.4684773930376989
   265   1      8.8966882445403321      9.0965849053004284      5.3888654629794877
   266   1      7.7135115255413131      10.397702602807261      3.7753570183364737
   267   1      8.9465093432296268      11.360417403897593      5.5731290576238575
   268   1      7.7768030190783302      12.851166176062129      3.7424741646227266
   269   1      9.0712833065370191       14.06370802842539      5.4200051671595055
   270   1       7.417874398846239      15.384998764094778      3.6944362791708643
   271   1      8.9050030405511045       16.64473446827801      5.4866083529545646
   272   1      7.7154283305952385      17.846267111917612      3.5042811831764196
   273   1       8.862621152238269      19.167818567195418      5.4557506943899643
   274   1       7.481361592492946      20.363170970156528      3.6426368378082357
   275   1       8.980456820579759      21.701601482894439      5.4592612742346445
   276   1      7.6943421176542559      22.836341374618002      3.6457571422588209
   277   1      9.0483795664771183      24.245791941735234      5.5034969516697423
   278   1      10.346844048589467      25.320494091221686      3.6409910463633879
   279   1      11.666894582529597      1.1861046389505729      5.2040753192872273
   280   1      10.339427776537139      2.4432154056287327      3.5534715593728046
   281   1      11.486234660191087      3.8298850683269285      5.4281163928990797
   282   1      10.135320390832179      5.1310327336486354      3.5503465364443509
   283   1      11.488125440771022      6.4008181741170871      5.3343110704402568
   284   1      10.194479880636626      7.9127815512806867      3.5131483565379535
   285   1       11.50381680788975      8.8762344503531612      5.4380248869626326
   286   1      10.287904288670587      10.311483741943439      3.6406166444959251
   287   1      11.494487232269496       11.44394363515328      5.5144228638422552
   288   1      10.287849153201236       12.75232007042638      3.8071461508644271
   289   1      11.519280758220001      13.924013279794098      5.4616017231389993
   290   1      10.114928913973387      15.355361787436065      3.5029237536433468
   291   1      11.453330103670416      16.438962311728751      5.5034864412962543
   292   1      10.219839881921782      17.850056861979745       3.719439614576169
   293   1      11.518475609916495       18.96701458179048      5.7512386207703061
   294   1      10.064780844365384      20.455761179462723      3.7210415530001488
   295   1       11.54366091113644        21.7113787270263      5.6401870749279661
   296   1      10.268280009593328      22.898387134771347      3.5469706491755555
   297   1      11.651187615202964      24.103683641926935      5.5457035407989927
   298   1      12.814382803940786   0.0042807074037226915      3.6316955775193942
   299   1      14.048004473600871      1.2686160008775365      5.3663693304977889
   300   1      12.768350655313164      2.5828937205330087      3.4406673613509029
   301   1      13.846748307854362      3.8967411705008841      5.3239211130719752
   302   1       12.69483283155262      5.0512253026919494      3.5653046550539913
   303   1      13.990722720880083      6.5551787724814421      5.4262091177643583
   304   1      12.876693434961636      7.6433036942254216      3.5240287116283997
   305   1      14.080682738509392      9.0240745598014094      5.5026006676766137
   306   1      12.743092295216435       10.13114134904283      3.6083438661015403
   307   1      14.015013056046012      11.424119322543476      5.4428515197098477
   308   1      12.787119249815076      12.692049329627062      3.5937536874538076
   309   1      13.945611334535558      14.098750163873506      5.3596933338155033
   310   1      12.689687616788561      15.171453412140663      3.6465032951711791
   311   1      14.061410475516272      16.571490088337015      5.4630118186455858
   312   1      12.786771480856633      17.762969782455649      3.5881425367485016
   313   1      14.095438525475968      19.095740979665713      5.4023375682775621
   314   1      12.673765520587589      20.308516733161262      3.6418719574842866
   315   1      14.029823904741285      21.583915920922944      5.5765951287692888
   316   1      12.874467802634614      22.782045973438716      3.6903477395011319
   317   1      14.197229080216269      24.304222362898471      5.4879572685223463
   318   1       15.29887056249075    0.044325567583701118       3.563839264277282
   319   1      16.574867577815123      1.2410009222759031      5.4283502892122319
   320   1      15.284467984317912      2.5796339249179283      3.6886486547882713
   321   1      16.728979361587289      3.7612019174396631      5.2937649572892775
   322   1      15.411906822143585      5.0369210605532482      3.6821151276255986
   323   1      16.429068886946112       6.424013939341104       5.462556489305733
   324   1      15.321328668575935      7.5952418063846627      3.5376004780692387
   325   1      16.558549421257506      8.9737066604650142      5.4335579717382254
   326   1      15.414795947392976      10.147629325957078      3.5097054294298684
   327   1      16.616484898064563      11.404321670414379      5.3270379600853479
   328   1      15.196886720887505      12.799418649619323      3.6863020613398478
   329   1      16.412641762091297      13.800639123274568      5.4361106921763005
   330   1      15.312917857827301      15.183711765818206      3.6205998058780886
   331   1      16.590717418233474      16.414431002305598      5.4553781254892462
   332   1      15.359039943966534      17.739031182823513       3.796323224516724
   333   1      16.746206496875615      19.117682685487548      5.5224944925647943
   334   1       15.48213935792308      20.292921307829616      3.6679223860995349
   335   1      16.638946732557336       21.74029590399206      5.3988724414679501
   336   1      15.296668613848997      22.925036701040053      3.6025906040820268
   337   1      16.694244794500364      24.283605218020057      5.2756457916113497
   338   1      17.928804652216101      25.463361282874395      3.6245268931408172
   339   1      19.263123463692793      1.2712449654326166      5.4260300609040941
   340   1      17.918350877083412      2.4109542952933625      3.6008413358476914
   341   1      19.148425173317818      3.9348192812045113      5.3250053875835954
   342   1      17.992861458870056      5.1186509058778489      3.6786264882760413
   343   1      19.289222149910874      6.2902249853336558       5.401515286958654
   344   1      17.890774845353338      7.7070789740209875      3.5965941093850224
   345   1      19.134767361816859      8.9088929251695976      5.3917597071431684
   346   1      17.882375079470638      10.188278719908718      3.4905321885861085
   347   1      19.065758765015516      11.440825827974097      5.4213638866382876
   348   1      17.916559751305257      12.664490339287447      3.6766765763730951
   349   1      19.097801482456291      14.013924639698596      5.4408462068317602
   350   1      17.904301651851199      15.206491465632267      3.7114915227569067
   351   1      19.237441919080535      16.574421943275418      5.4001836999012198
   352   1      17.824860840413905      17.953423630892839       3.610510152927155
   353   1      19.329216627186977      19.007176221371772      5.5169560803904094
   354   1      17.998239566219898      20.410792058743269       3.787175556091436
   355   1      19.215644967169101      21.759443407856455      5.5134294892569145
   356   1      18.055242544645534       22.94628800334127      3.6019645403378013
   357   1      19.388764955890711      24.219942538970653      5.4080540800320822
   358   1      20.648454820244332      25.418568088953158      3.5766675927466043
   359   1      21.936725294405388      1.2687776635262522      5.4018080489361804