dump/Cu_400_0/steps_31 (written by ASE) 

2000 	 atoms 
1  atom types
0.0      25.526554800834361  xlo xhi
0.0              25.5265548  ylo yhi
0.0      36.100000000000001  zlo zhi


Atoms 

     1   1      25.395695645658861    0.011932798274917614     0.03455240396882573
     2   1      1.2319862664254384      1.3045136579518206      1.8382110954910205
     3   1       25.45829994859324      2.6838712101616427      36.045888652512197
     4   1      1.0935269686549594       3.920669853621173      1.8271653106003574
     5   1      25.472581707566089      4.9553501903652979      35.993247253778051
     6   1      1.1591451124087284      6.3762868408914093      1.5510864601800558
     7   1      25.340407308705082      7.6969708812270978      35.849416617495741
     8   1      1.2933070402897673      8.9579717633697449      1.7117251196866736
     9   1      25.331188090839316       10.15651731787152      36.016006616754972
    10   1      1.3171898987119144      11.600429408981782      1.6906773936119983
    11   1    0.014795291765403082      12.707616330123017    0.019932400716129468
    12   1      1.2288959440436169      14.185994485622773      1.8017546009106482
    13   1    0.040047643393730348      15.219064740063475    0.075627183999665851
    14   1      1.1927088989418742      16.581440502335461      1.7086116161808733
    15   1      25.504413348430255      17.842720093982443    0.032294140848284761
    16   1        1.24334132655748      19.301803192930649      1.8720566170756008
    17   1      25.501506890876986      20.550331006882448    0.031914242177833799
    18   1       1.230126523410801      21.866547283950641      1.8371948141958327
    19   1      25.379320516210967      22.975214697966329      36.044838810443153
    20   1      1.2145329460295902      24.343141163879285      1.7448724119400472
    21   1      2.4821291555392051    0.053141220621620022      35.972732673593285
    22   1      3.5995875555610586      1.3168918742611539      1.7379095025388198
    23   1      2.3786972930873245      2.5348810632261514      35.953342727656512
    24   1      3.7245693756304208      3.7383359510061887      1.6754740726179076
    25   1      2.5773444282989155      5.0758080962635894      36.045438510945218
    26   1      3.7748267739478609      6.4625427670062026      1.5956289471049001
    27   1      2.6317698802887413      7.6925178291586507      35.987017117500834
    28   1      3.8918438963370767      8.9406677504021808      1.7335660029252626
    29   1      2.3924247986880798      10.286287151719055     0.13982032363365979
    30   1      3.7297880837550004      11.677628270057888      1.7183252854312843
    31   1      2.5130989561829895      12.994728327040281      35.923163764731321
    32   1      3.7718076776520983      14.106940023148574      1.7310851540403986
    33   1      2.4785957564340797       15.28357028253993       35.93684226318809
    34   1      3.8052825075086654      16.616582684307595      1.7703882622151912
    35   1      2.6231343958811553      17.982096408823999     0.03853066971697678
    36   1      3.7649017418984383      19.160034286830118      1.9298112945466859
    37   1      2.6933331646779002      20.570487182072458   0.0055630582037338103
    38   1      3.8151740606079505      21.851244149337315      1.8426922375766239
    39   1       2.345068367337857      23.075378264918356      36.074893436427182
    40   1      3.7344891901171113      24.320262626583393      1.7149335626643953
    41   1      5.0157009948430922     0.10254982750372497    0.043848301826153485
    42   1      6.3319707596114672      1.3120778337703336      1.8017567951444331
    43   1      4.9790028281525185      2.5315414359689852      35.969887479143559
    44   1      6.4396539102817298      3.7517955845626805      1.9027818150393405
    45   1      5.0582852930277822       5.137705307902884    0.041781936437291903
    46   1      6.3513962788144784      6.3024225794013411      1.6735947446823034
    47   1      5.1842395683619307      7.6588766654024036    0.048558855245460018
    48   1      6.2704517456386162       8.867903449606418      1.8982073060067937
    49   1      4.7978752890647671      10.293515133306975      36.092854594991323
    50   1      6.3949476490066948      11.381342753835741      1.6221175081351245
    51   1      5.2463916099147667      12.758486677076794   0.0050500735832883815
    52   1      6.5091033772859932      13.979852291292978      1.6343590437330602
    53   1        5.04450873468911      15.204084897716644      35.985863896245881
    54   1      6.4480132272819599      16.361729422608779      1.6067903542955848
    55   1      5.2291958109125192      17.830939175483014     0.13244097891511042
    56   1      6.2947716337824779      19.074268880325793      1.7681455596840581
    57   1      5.0959998244474827      20.386528513910338    0.076271990361147041
    58   1      6.4536862582633736      21.720452596114633      1.8162371598164779
    59   1      5.0001514678634633      23.049810583350521    0.061699911555547375
    60   1      6.3641485174951757      24.309414468861405      1.9193747555911502
    61   1      7.6461910643601403      25.470970744571304     0.06951655280399785
    62   1      8.8615144778030626      1.1879788288672919      1.7157854273618791
    63   1      7.6949533462280924      2.4721740459523565       36.04034354343387
    64   1      8.8420600418087769      3.7664224732567466      1.8863107925716369
    65   1      7.7184259167822784      4.9766627145789961    0.035847741403392773
    66   1       8.922449306257823      6.4177855100398835       1.690880878529037
    67   1      7.7020396472367754      7.4988947558793937      36.053059888816932
    68   1      8.8258984598171466      8.8642102066440227       1.865733156681779
    69   1      7.5173335720369154      10.093447276840097    0.032365619672452793
    70   1       8.954657325563808      11.263985584396224      1.8524260127753578
    71   1      7.8142911852700312      12.612291415777152     0.04809434234495031
    72   1      9.0224350425272508       14.13528549349612      1.7808523147639912
    73   1      7.6322199205682573      15.211008480046766      36.030784050297065
    74   1      9.0656618110091181      16.669876391171627      1.7527213149198935
    75   1      7.6970090689981525      17.755636795082218    0.045941558163735685
    76   1      8.8808393222991917      19.119403540653749      1.7112859181221336
    77   1      7.5881550115995084      20.283717562780023   0.0017164338380666782
    78   1      8.8836010389308626      21.679323080909267      1.8859368062602129
    79   1      7.7490268530303865      23.008219915196257    0.046251441903712102
    80   1      8.9287506101336955      24.155599220178498      2.0114353033603258
    81   1      10.087834512853302      25.416840814051113   0.0012006313789356667
    82   1       11.56361883947139      1.0641599844649114      1.8908269680028977
    83   1      10.297467888306855      2.3971084610876878    0.022146414618816827
    84   1      11.494495889113152      3.7332271065143341      1.6263706901277928
    85   1      10.251609808314242      5.0006069850192398      36.067270962665695
    86   1      11.426162001195282      6.4704919093087865      1.8185070308973099
    87   1      10.167339144512482      7.6236101382279005      36.074304416048058
    88   1      11.499167852650432      8.9829732671223042      1.8048925926392596
    89   1      10.099344717559921      10.105354519952025     0.15668864173845815
    90   1      11.541871827066384      11.515512496725544       1.741406623566742
    91   1       10.25035108193463      12.680089661803146    0.089136805427904059
    92   1      11.650711747798944      14.088150586949343      1.7700457107421341
    93   1      10.218541749998678      15.403206920094348    0.017393854019940137
    94   1      11.601400910791231      16.682762564347346      1.8310922113689334
    95   1      10.248934951422488      17.912418694384534    0.057923581601005462
    96   1      11.491326727776178      19.113963399971468      1.7991972665588614
    97   1      10.319238743207986      20.340394667067962   0.0037181944866461094
    98   1      11.400551521199933      21.679069485850636      1.9128081786944573
    99   1      10.037221805383915      22.972505667308091      36.093661041936649
   100   1      11.401252770237127      24.114122831170068      1.8981846421936779
   101   1      12.775586996884417      25.399859634555973     0.13795862338459985
   102   1      14.010439942620208      1.1911816658831507      1.8103939261635771
   103   1      12.895899611802042      2.2352139512958722    0.056879024729892161
   104   1      14.035802017155676      3.8754330695547119      1.6748035418022693
   105   1      12.796591492494311      5.1938728025496932      36.054826730416011
   106   1      13.998090845681107      6.3093724394165998      1.8364743975779687
   107   1      12.781938549838213      7.6003381876708396    0.022721752998438666
   108   1      13.966733896932285      9.0209527233521456      1.6153700181412218
   109   1      12.722636420097192      10.446652104772131      35.937950998509208
   110   1      14.098740008442471       11.67972136078992      1.8201405438302245
   111   1      12.809449308019722      12.954556229987832    0.033746287017345361
   112   1      14.134358845878515      14.158708156375496      1.7827086775063767
   113   1      12.893277052649601      15.446724589497784      36.094214096328926
   114   1       14.04455560271596      16.663175175746716      1.6781356372463745
   115   1       12.63479054577124      17.884887167251264    0.025967502760533997
   116   1      13.912538474300947       19.11680408329411      1.8670254432225322
   117   1      12.725607346218499      20.413408426387321      35.950076023090013
   118   1       13.86142259185144      21.604494646966653      1.8061852987375235
   119   1      12.682961636128118      22.913274969284412    0.046169004025898797
   120   1       14.04797681259773      24.223744651610467      1.7545537823293229
   121   1      15.285540354334104      25.299634317898668    0.080970011861188462
   122   1       16.77173486161599      1.1553129273907066      1.9331705774480488
   123   1      15.355957085977087      2.2814586894997642    0.075754593686895216
   124   1      16.636011060942995      3.7869580399914158       1.733655139625695
   125   1      15.301298863548089      5.0259122084372736    0.017396130643430749
   126   1       16.49923591964653      6.3402012865901192      1.7836015573744586
   127   1       15.35688390967618      7.8873980637654606     0.04666209189194899
   128   1      16.724188737228591      8.8329462548241811      1.8954987170782494
   129   1       15.25830409237763      10.400845994358408      36.021624671116221
   130   1      16.571954065746841      11.373772190528769      1.7757204333512147
   131   1      15.484073634874482      12.793977192957831      36.087709474458073
   132   1      16.695542417810199      13.855218308737983      1.7869797531227261
   133   1      15.598851558287979       15.41034955220986    0.063571478647804672
   134   1      16.709680973393521      16.820773273413092      1.7290515519156322
   135   1      15.339534818864781      17.896528876943208     0.03302066221693848
   136   1      16.402774092723067      19.280036481602707      1.8599630318599805
   137   1      15.099411401705225      20.621868197430683      36.005390235177387
   138   1       16.41336435072823      21.603503059821033       1.847328230895334
   139   1      15.101907430255951      22.932394476644525      36.094692629765468
   140   1      16.481709455683866      24.168882215497497      1.9379886352390472
   141   1      17.880875776896158    0.077163688865013777    0.073242637646910524
   142   1      19.210397769763375      1.4984915928662721      1.8966774987405293
   143   1      18.126615855727685      2.7243805318841727     0.16693515706439249
   144   1      19.218527881840881      3.9337294669646732      1.8988646231145159
   145   1      17.811260382310568       5.103958546796135      36.046236874963995
   146   1      19.173879640191966      6.3574851795838336      1.7555122272794621
   147   1      17.948631963709417      7.6075166568997439      36.004374759335434
   148   1      19.264494187242111       8.838380574007342        1.89782364322882
   149   1      17.862754319663004      10.165269967163024     0.16578073775643815
   150   1      19.247173292145092      11.512128397433289      1.8244671682471321
   151   1      18.062730579213149       12.67533391726716      36.033135360370323
   152   1      19.177433948745868      13.978270742747263      1.7861666326893562
   153   1      17.989293871424366       15.33301792479085    0.047085320910355277
   154   1      19.097010330029605      16.613457520781626      1.8169749596399603
   155   1      17.949510241394616      17.937651897682478      36.025958637972217
   156   1       18.99003213336729      19.334281053210326      1.7370802811093533
   157   1      17.667852706362581      20.491187415637132      36.098272134831625
   158   1      18.946334966821695      21.879359794742754       1.879942754357399
   159   1      17.580778171687101      23.060248039113397  0.00042157097640256423
   160   1      19.099378298096241      24.387074111011191      1.8019961622570706
   161   1      20.380230732640371    0.048324233240775984     0.17984879641745674
   162   1      21.671203450552841      1.2405326836180479      1.8163634795423036
   163   1       20.53820466235889      2.5051962099191312      36.089280180104709
   164   1      21.722855970965611      3.7398248897435704      1.8504734568298442
   165   1      20.312387231649105      4.9582555297128081    0.012514075620788406
   166   1      21.562175777294424      6.3456896471586672      1.6161030289497829
   167   1      20.328927587966437      7.5051258506256389      36.033749197211613
   168   1      21.721239635053173      8.9308744435740852      1.7855214010902967
   169   1      20.323850329788058      10.187358805518519     0.15667992713219986
   170   1      21.705851158515113      11.428985753867925      1.7395618672415034
   171   1      20.571168545456658       12.73877640979601     0.12408366569789013
   172   1       21.80112443903165      14.184086729509179      1.9370025041430845
   173   1      20.467793971457834      15.540058955282712      36.050554931198498
   174   1      21.566021423437377      16.732919317046282      1.8975339511963292
   175   1      20.400567062201102      18.050312989664505    0.055683945973760411
   176   1      21.453839731553028      19.147575413923487      1.8706626462785496
   177   1      20.345297972553634       20.54641545542696      36.010451981305053
   178   1      21.477169196220157      21.658580836276617      1.6870419376527364
   179   1      20.221284766745487      23.077468066990789     0.13442638468418402
   180   1      21.651137925946866      24.193754499955116      1.9314271036949318
   181   1      22.884547649534724    0.055585131866847021     0.14690011914987061
   182   1      24.265376489550885      1.3573840549266889        1.91982321478705
   183   1      22.949413411782849      2.5716769303952431      36.075150974594152
   184   1      24.272523036477633      3.9024256701841913      1.7815383534601441
   185   1      22.966969401157041       5.083869421796841       36.08876821358502
   186   1      24.145374169592252      6.4733303413587926      1.6726009700708584
   187   1      22.835890663548241      7.5972408449920072       35.99282948920392
   188   1      24.290729683092536      8.8040703791232318      1.7288480557451626
   189   1        22.8011570678444      10.155293121529507    0.039725233725221111
   190   1      24.276678513637329      11.422780075317911      1.7771508768451314
   191   1        23.0393247127645      12.821873169437755    0.028460809703267378
   192   1      24.289779514369673      13.985527241983725      1.8303245370305945
   193   1      23.085530879331511      15.421881061586987      36.076183698013701
   194   1      24.179030771162637      16.577382158844944      1.8195556268420874
   195   1      22.730447226778882      17.871975755817505      0.1306204999812281
   196   1       24.12511779442962      19.160063971287553      1.6763919574102379
   197   1      22.879696077148751      20.563942811683049    0.018542187078367085
   198   1       24.16860578146941      21.748158612817029      1.8879713822743713
   199   1      22.895354602612571      22.913876721047981      36.042654620464148
   200   1      24.193514842554134      24.393788321085331      1.9148691913463494
   201   1    0.065796095457324788    0.060738716567788967      3.7223607516421362
   202   1      1.3328357800369892      1.2184590802582602      5.3710403949731669
   203   1      25.449294875755918      2.5962677464144619      3.5753024949708778
   204   1      1.1579669604785343      3.8163390346342791      5.5801657659063828
   205   1    0.079940794502913123      4.9756817098486996      3.5865261529859382
   206   1      1.3217706270788707      6.3766048735824139      5.2150318581402608
   207   1    0.077523984740004437      7.6711819355470148      3.4929668023842293
   208   1      1.3624419459949342      8.9656558972969247      5.4470859971056136
   209   1   0.0027462914395851956       10.27451662897036      3.4921827578950464
   210   1      1.2411982264699084      11.534532830670248       5.330022599933935
   211   1      25.498479829048314      13.054255287856208       3.637376580115899
   212   1      1.3297344341859383      14.084606053500018      5.4607913024243349
   213   1      25.415713869924073       15.46363717921837      3.6553238214276682
   214   1      1.3355612429364754      16.605581285428581      5.3480889096638711
   215   1      25.408433107483489      18.028069619823786      3.4693208332884287
   216   1      1.2440095046268711      19.271151698431655      5.5018161285783318
   217   1    0.083194129823429427      20.600658749855519       3.595391163719321
   218   1      1.1062437938291874      21.735038638205449      5.5568692973452336
   219   1      25.354396760590671      23.079859133492459      3.5050947833907893
   220   1       1.236429534497717      24.288774258082604      5.5516775451588636
   221   1      2.6261703997014947      25.523996945044807      3.5579727637104277
   222   1      3.8007384366482708      1.3923887612466006      5.5404770800609464
   223   1      2.3783244053098085      2.5818632415618863      3.5832672093592235
   224   1      3.7718562710852148      3.7711152850242491      5.4571639805635375
   225   1       2.415981203641449       5.150771239399444      3.4474671378414197
   226   1      3.9764324680134253      6.3287768445274892      5.2048632307694627
   227   1      2.4023609984000829      7.6951980725056197      3.6241661941237377
   228   1      3.8849234581769876      9.0656247040149918      5.4150666365495796
   229   1      2.6149430305376051      10.222455716537423      3.5572983515373848
   230   1      3.7963242373873873       11.65297980582057      5.2756738124133005
   231   1      2.5241226694725336      12.867161926317356      3.5737077426281649
   232   1      3.9723006360435016      14.164085613182163      5.4605669227109104
   233   1      2.5959066220528206      15.313402225024243      3.5134046644799248
   234   1      3.8483277913603446       16.59958323115281      5.3774812593612946
   235   1      2.3191012918497931      18.004385004105352      3.6728896345138935
   236   1      3.8078142297426423      19.226384704490684      5.3808644814232478
   237   1      2.6638160747310611      20.479248041108107       3.776235482546773
   238   1      3.8244713044257392      21.816742604032925      5.3535907595407872
   239   1      2.2167255408973707      23.012864933148187      3.8919524322712102
   240   1      3.7962120455435224      24.323196241764602      5.2454618643956108
   241   1      5.1509257522768657     0.16247331091503453      3.6758395065681455
   242   1      6.4055967633812161       1.423862276676676      5.4986762212798546
   243   1      5.0584690817940325      2.5104092246372738      3.6380025114702472
   244   1      6.3358375080172014      3.8148849450565705      5.4615186201146191
   245   1      5.1079250999240831      5.1604649800596745      3.4106157485645796
   246   1      6.4075022970829423      6.2353345372775788      5.2754894432290902
   247   1      5.0595609767105616      7.6666250111373122      3.6422154209036499
   248   1      6.3050836162098198      9.1132815344065552      5.4173370839027815
   249   1       5.134278477420672      10.380055835499002      3.6332772032882219
   250   1      6.4826596903793341      11.647136060539824      5.2963676116829346
   251   1      5.1421102718835208      12.984369127565232      3.4480589494380198
   252   1      6.4755244937429977      14.178526237016804      5.4460519504437928
   253   1      5.1848388301083954      15.480148678313904      3.5426079873954337
   254   1      6.4908018534751051      16.701190545010025      5.3868653294321174
   255   1      5.0136887730268516      17.793996451476325      3.5239582961423714
   256   1      6.2960556706488475      19.178539047295697      5.3430481699003467
   257   1      5.0892727745473794      20.436055523704383      3.4496453792961108
   258   1      6.3066114919603447      21.756082483116735      5.4419886060379987
   259   1       5.125737936259342      22.893464466481763      3.5984384656225736
   260   1      6.4044255602826938      24.262108900057306      5.4630633044209675
   261   1      7.5856514512247752    0.068236471449249686      3.5935681000059843
   262   1      8.8950418532761066      1.2861773275169766      5.5033812519336545
   263   1      7.6824661542615793      2.5661101828515824      3.6787923382740022
   264   1      8.8688901745516269      3.8485734688788988      5.4103458258399195
   265   1      7.6808572219003999      5.1122051057480995      3.5380063084547375
   266   1      8.8416164825411716      6.3896877019008516      5.3683562516258769
   267   1      7.6417709678164636      7.6476038628356253      3.5588614827897009
   268   1      8.9589552074444949      8.9886773135901716      5.3648061254087072
   269   1      7.5688514808402241       10.13022437581694      3.6713967680985937
   270   1      9.1658762036386427      11.505050870673188       5.433876627800351
   271   1      7.7189874973908479      12.757880665215422      3.5706297818805881
   272   1      8.9217767990773726       14.06678157514513      5.4044981989463725
   273   1      7.7085350855173207      15.323779310281877       3.675360649302128
   274   1      9.0226601026441529      16.640577618891989      5.4689254325057099
   275   1      7.6253272183214591      17.818597996335857      3.5083708112767442
   276   1      8.7768645116042006      19.153422643074865      5.4572385551885425
   277   1      7.5965695148140453      20.424470227087419      3.6308411824955873
   278   1       8.776927785172969      21.609667463079461       5.344823796166712
   279   1      7.5661763565812183      23.103964323402622      3.7315024578518554
   280   1      8.9635652412865578      24.037176557598567      5.5203824203395468
   281   1      10.243164759400027    0.075439084062857334      3.5674063238051197
   282   1      11.402188384836403      1.1830638974071874      5.3436228502376153
   283   1      10.166020086549674      2.3935342356240228      3.5760078995567586
   284   1      11.395033079906913      3.7893451314765016       5.302604149313864
   285   1      10.231666810209269      5.1278851609640128      3.4707005345868556
   286   1      11.436697789355939      6.3009334283135017      5.4451705320485466
   287   1      10.253300993689939      7.6641510646890962      3.6096464089599891
   288   1       11.57188864741331      8.9024552368526564      5.3691566996527254
   289   1      10.213151514128866      10.145212913096648      3.6038733595848278
   290   1      11.626459001947648      11.375934861418028      5.4010644244951145
   291   1      10.218866988461588      12.758773792552736      3.5757329366733082
   292   1      11.584194287320885       14.07119365204734      5.3647554882862414
   293   1      10.442479591332372      15.333938430026317      3.5221271755983721
   294   1      11.519977304204616      16.596711702591357      5.3682862100352011
   295   1      10.185102689202825      17.835138188107372      3.6838418471666818
   296   1      11.448834505097784      19.305514421139897      5.4277397876251952
   297   1      10.052904210222861      20.268448526193097      3.7047272320228366
   298   1      11.248025729746818      21.747448663138702      5.4629427469674381
   299   1      10.269601445250055      22.957634043941855      3.7630735171990963
   300   1      11.450315983351851      24.257868459268053      5.3220398430171487
   301   1      12.766452440385608    0.016697293056518077       3.636284752387092
   302   1        14.1760318469155      1.2131036952953109      5.3898072816011933
   303   1      12.827646056756754      2.5621573330915783       3.741753507299701
   304   1      13.980534553151813      3.8808065190916103      5.3258941494111314
   305   1      12.661892992070561      5.1374564353984651      3.5270377139174931
   306   1      14.101858095627339      6.2989500286649038      5.4216606781884984
   307   1      12.723345690223798        7.57095356748877        3.63761723168711
   308   1      13.999661042766929      8.8417880997253882       5.299393398558446
   309   1      12.879710190085568      10.229973117757691       3.432144745962602
   310   1      14.103481155904941      11.439257882181284      5.4475453149854109
   311   1      12.896149808997611      12.870190655721021      3.5084561279883033
   312   1       14.06746920882715      14.010580380880459        5.42322525479221
   313   1      12.885932111983605      15.431088933681968       3.373909808318639
   314   1      14.104270902450319      16.535972948236196      5.5329893216017751
   315   1      12.697470906640831        17.9038850446297      3.6489904782831943
   316   1      14.071816816073222      19.200736388946918      5.3483142501294845
   317   1      12.627463825112098      20.354989207757487      3.6271418726483931
   318   1      13.818179465556883       21.94827013802167      5.3801016859753812
   319   1      12.735658094977042       22.93350900746422      3.4468291024607556
   320   1      14.028815141096144      24.336881773278197      5.3289451097619933
   321   1      15.467057474527763    0.039016856724497985      3.6334583858849281
   322   1      16.573050239688229      1.3396350826316878      5.4792362548813998
   323   1       15.26739195585724      2.5158657137354608      3.4801329598459696
   324   1      16.617124146707233      3.8547294743494471      5.4709717193780421
   325   1      15.261603188146045      5.0062988735666174      3.5629795580048036
   326   1      16.510433753552302      6.3078944787258155      5.3334052530534262
   327   1      15.284526577089808      7.5841706938838742      3.6553440334996656
   328   1      16.627681630013161       8.857646032904178      5.3302818252635111
   329   1      15.442140468848276      10.173384670731963      3.5786432892574105
   330   1      16.686666565817546      11.605062508465812      5.4861247482275823
   331   1        15.3108315692552      12.734723118725153        3.60237465983074
   332   1      16.520771727503959      14.039488919996357      5.3199815598468847
   333   1      15.487833088646546       15.45380031279509      3.5269749890332274
   334   1      16.586856149063951      16.643111179987674      5.2694620718095555
   335   1      15.226792119218715       17.96571510010471      3.5328562305114586
   336   1      16.592835054380593      19.215051656296055      5.3410132296436723
   337   1      15.343543401947983      20.555769072091429       3.755273090552202
   338   1      16.596347016502406      21.821146798188536      5.5050031188818549
   339   1      15.213607809375514      22.980120591397768      3.5588894479565156
   340   1      16.567603071134339      24.222710161866821      5.3829141441515942
   341   1      17.843347442497929     0.11143094122489766      3.8661438464283675
   342   1      19.058923398815104      1.2241730853087378      5.5992405435352381
   343   1      17.890913349721238      2.5837963374640442      3.6846454040289274
   344   1      19.159841738766218      3.8931293539668395      5.6881783674898942
   345   1      17.950633713805495      5.1444890479436074      3.5800372334394082
   346   1      19.144805343805437      6.6456483798496659      5.4627573378179299
   347   1      17.950017992858001      7.5450949546136714      3.6868154910658073
   348   1      19.020820602123607      9.0452179042353738      5.3868999898058503
   349   1      17.919193826918537      10.187465058151025       3.536066701018739
   350   1      19.142701727517565      11.407153297353004      5.4539795386156191
   351   1      17.883490581705377      12.741174715843425      3.6657084013728385
   352   1      18.955010621095731      14.116109760810966      5.3185730563145563
   353   1      17.959599307149745      15.372234474631281        3.54807994678024
   354   1      19.084803109235114      16.537594065709847      5.4350912475104858
   355   1      17.819905661124025      18.110408823309516      3.7008205082362613
   356   1      19.059204694356119      19.203995899524298       5.495517958109402
   357   1      17.993060834039238       20.50697454470874      3.8295973374868897
   358   1      19.119508316274175      21.720322219433651      5.5863635932756237
   359   1      17.865866954171089      22.978810048488246      3.7008211908703665