dump/Cu_400_0/steps_91 (written by ASE) 

2000 	 atoms 
1  atom types
0.0      25.526554800834361  xlo xhi
0.0              25.5265548  ylo yhi
0.0      36.100000000000001  zlo zhi


Atoms 

     1   1    0.015191788814221467      25.461503107224786    0.038508895478730744
     2   1       1.288404192954175      1.1632810344721629      1.6590165137318291
     3   1     0.17909026605820164      2.4199685489245577      36.076512794287737
     4   1      1.4081847728758023       3.749689911798324      1.8558011084627533
     5   1       25.50012148832236      5.0255301544192958    0.037810220894277977
     6   1      1.1951653870858163       6.179410612522517      1.8567718315595583
     7   1      25.429568700308621      7.5990047605281852      35.966796236410289
     8   1      1.2394052991820306      8.8893284730444648      1.6570869636552161
     9   1      25.448531190142809      10.159861756281989      36.040535361798511
    10   1      1.2073301517571691       11.39343497690283      1.6935429323122551
    11   1     0.17117493780327123      12.793244393676368      36.098602779155883
    12   1      1.3385301402753236      14.032151393097028      1.8725376638105673
    13   1     0.14509665574935679      15.202090055916674       35.95155936941503
    14   1      1.3054512364606172      16.455353842535288      1.8342629255464196
    15   1   0.0018216061994951918      17.838013144068817    0.030013779089529197
    16   1      1.4060979608871715       19.03368864100047       1.694070606415665
    17   1    0.096988966389549666      20.372328421663386      36.021079660573356
    18   1      1.1966140146944688      21.510882639657577      1.7614766706291798
    19   1     0.19444656156600831      23.025368519753815      36.025524062953785
    20   1      1.3568789478491066      24.266680461553886      1.6595935101986001
    21   1      2.5584345374525208    0.038804761986927123      35.927664089430088
    22   1      3.8666214380690693      1.2087580905336235      1.8895860801937931
    23   1      2.6309027742331685      2.6558062896370136      36.031280828587768
    24   1      3.8515050623510141      3.7899764224768484      1.9033271242289747
    25   1      2.3956473682332287       5.052054184465061    0.080671727889728054
    26   1      3.6854689933340263      6.1403808963487245      1.7860515416192713
    27   1      2.6926878859553969      7.5858005935196937       36.08112331022906
    28   1      3.9064305561145565       8.859053983063264      1.8810412915137935
    29   1      2.4782727910380991      10.113079098330296      36.062760677782251
    30   1      3.9425725603972253      11.457040607921032       1.770292731347308
    31   1      2.5170056886467207      12.834333221826473      36.024004659760841
    32   1      3.8219966696325263      13.926130652935665      1.9147320048310357
    33   1      2.6790619883060747      15.340352279497916    0.019615069496865083
    34   1      3.8738119484640614      16.585276104027393      1.8465299327000813
    35   1      2.5987453938091321      17.838763280297425     0.11458668311310005
    36   1      4.0313898075411174      19.354187227356164      1.8297073985147785
    37   1      2.7072687531525363      20.239884509287247      36.016500814390838
    38   1      3.8416714681527884      21.641695821383255      1.7100643711144232
    39   1      2.6435018201540297      23.002801157266994      36.061863664596125
    40   1      3.8780205662354268      24.184617454382643      1.8487548655676165
    41   1      5.1469559623907184      25.401383624572375      36.059095936520713
    42   1      6.4163002604928101      1.1811848852078646      1.7926673830362119
    43   1      5.0416083450755904      2.4576848657899886    0.035990673860794714
    44   1      6.3755748005790789      3.7450860949329781      1.8329180469920301
    45   1      5.0647411355249732      5.0417545914131043      36.086764595144039
    46   1      6.2799412394895802      6.3653363256924482      1.8525250003253284
    47   1      5.1962100515071219      7.7509821283451199    0.033933370649879196
    48   1      6.5039316470529034      9.0105323032937239      1.7410371980497317
    49   1      5.2128964541531841      10.188738766155616      36.021235335939487
    50   1       6.355745943877837      11.534140762608894      1.7674090817402759
    51   1      4.9613455506948032      12.776366148289329      36.027296542411563
    52   1      6.2741933645326577      13.969083444982987      1.7517616465062467
    53   1      5.0872524260047713       15.20674696990379    0.062042423038303651
    54   1      6.3614648441333843      16.560272178536732      1.7835239958590128
    55   1      5.2176686003082384      17.938551725774019   0.0047026174624420552
    56   1      6.4967174366052234      19.321745490083636      2.0091834345467743
    57   1      5.1583716121199084      20.390798885255268     0.07674741807726379
    58   1      6.3073811228820018       21.70240506063784      1.8612672077911172
    59   1      5.0995475534215613      22.865139363558637      35.940898109394134
    60   1      6.4682490240278563      24.191845181285235      1.7663800671337884
    61   1      7.5723135296987039      25.470215830662916      36.078995516244554
    62   1       8.785091697278677      1.1451919586842831      1.8242574170913826
    63   1      7.4732811345214012      2.4480123548759734      35.972391604656771
    64   1      8.9801390243203123      3.8093791322953341      1.7870904194039992
    65   1      7.5705919143622342      5.1265233609785055      36.029566817466659
    66   1      8.8922185395687041      6.3634206194151473      1.6905603511022709
    67   1      7.6360266505956496      7.6695152204469608      35.959832596141595
    68   1      8.9837812017700749      8.9944858994026067      1.6950449138606369
    69   1      7.8130503259374375      10.307617855720324      36.008775605513414
    70   1      8.9319227306653222      11.537001480997683      1.7237726240351223
    71   1      7.5780863109065466      12.774040987425177      36.016962744568048
    72   1      8.9725834237661761      14.029144119455724      1.7394674036927298
    73   1      7.6629627787551042      15.264624642291817     0.16201656337566428
    74   1      8.9625333166529977      16.467827230184898      1.7649682462985432
    75   1      7.7468742236086561      17.796682315333388     0.17683812992611353
    76   1      9.1589497809664238      19.102425761700264      1.7785581415851537
    77   1      7.7774566289957479       20.39677743860149     0.15062708486286727
    78   1      8.9367682034213303      21.778745378615511       1.880446585861365
    79   1       7.603822517930606      23.060507657658459    0.061391138769420067
    80   1      8.9585724254049985      24.264700004416152      1.7635746186653811
    81   1       10.25089671369374    0.050684148963019593   0.0093040986596406756
    82   1      11.514547756074279      1.1562842650214973      1.8043828947339193
    83   1      9.9637129148334633      2.4460241856224783    0.078211640130882554
    84   1      11.337152115351756      3.6781112393192039       1.812672686151575
    85   1      10.068098823545455      5.0353837607398768    0.014862492313341143
    86   1      11.370915850008315      6.4188485518879368      1.6745296964063867
    87   1       10.24414019612966       7.661470716276896      36.025376570516634
    88   1      11.435332779402342      9.0499470268789892      1.7705412783433312
    89   1      10.227984297999491      10.266278610783617   0.0019203397244268671
    90   1       11.59278111623828      11.537288809056243      1.7249702091332424
    91   1      10.243039688872168      12.825040034073579        36.0589428539678
    92   1      11.387793992916402      14.200151054555773      1.6595976894845641
    93   1      10.198938394204182      15.451052587452248      35.953261225083445
    94   1       11.46856048101869      16.796082401330832      1.8515060978514712
    95   1      10.283600630722159      17.930256361862607      36.003739577139974
    96   1      11.577834958299237      19.276109610792489      1.7588535620999084
    97   1      10.326846923901194      20.418479075512607     0.11156719170153331
    98   1      11.469026232967748      21.827859111705571      1.9324367435796821
    99   1      10.168439425298208      23.071902932028699      36.091778043940913
   100   1      11.442959461379075      24.286273809401543      1.8101642187071194
   101   1      12.878836611422033       25.45199256535906    0.075101645084430499
   102   1       14.00787058410217      1.1021472832481862      1.9104246558413929
   103   1      12.810991718043903       2.457759676334073     0.26720261465098932
   104   1       13.98153840129814      3.8579952448767338      1.8188012955070707
   105   1      12.754780603327486      5.1494300242035518     0.21552937037149617
   106   1      14.039355289245506      6.3390913934721169      1.8548422282241064
   107   1      12.949459129974915      7.7775306001307456    0.083628242922202445
   108   1      14.063541806230811      8.9427769818051637      1.7302649552500287
   109   1      12.897998818287819      10.332990143760897      36.077336477559285
   110   1      14.198484354760792      11.534686874329475      1.7507940277098437
   111   1      12.739225238095305      12.793926479014793      36.037743122402446
   112   1      13.931455849000773      14.277998900871918      1.7461921397147659
   113   1      12.747417172991918      15.506157933459155      36.081192358232741
   114   1      14.092235020681837      16.749047724298681      1.6303028050791013
   115   1       12.80964008287685      18.129195524264016    0.032781474925218393
   116   1      14.133911451129903      19.285424498467421       1.709205502220938
   117   1       12.82430275202548      20.490197988698366     0.11521009932625943
   118   1       14.08430759666218      21.846644733173306      1.7368217497781073
   119   1       12.76346114167425      22.870839582125583    0.095601852226309181
   120   1      13.916296227107118      24.123019003324359      1.9266384249026958
   121   1      15.284489776794492    0.019915058700435206     0.18720273707622259
   122   1      16.425891400641994      1.1780939813051041      2.0202020178538893
   123   1      15.312496199653577      2.5585833808369207     0.16546540912614766
   124   1      16.438908506612858      4.1002688431642325       1.920472337453804
   125   1      15.298408254230804      5.1008654993877407      35.964644138238789
   126   1      16.505866912189504      6.3058067508236233      1.7837340473154895
   127   1      15.283321434952796      7.7025164521433451      36.027700004547604
   128   1      16.584243096496625      9.1067642839506657      1.8201751331702785
   129   1      15.310377193674208      10.290405318240431      36.067664639002103
   130   1      16.848475016699552      11.562122338551118      1.7233777471134895
   131   1      15.352136050478137      12.927795507857599      36.044586940111188
   132   1      16.564385582855071      14.173095358504643      1.6817820953399636
   133   1      15.354315349382723      15.445588109639711    0.015653108381786754
   134   1      16.596347592408009      16.684566081874376      1.8199979724798143
   135   1      15.407559339206131      18.094343276135465      36.078130604561849
   136   1      16.726242597296643      19.116430129178987       1.717080765215065
   137   1      15.511527731453764      20.577458633354706    0.065252486784641114
   138   1      16.624104511811296      21.710303092359091      1.8588961265713337
   139   1      15.324348230523256      23.080074913983534    0.099773480929559205
   140   1      16.526955215154555      24.239091566283555      1.9271073182801044
   141   1      17.851388100696379      25.473738669262964    0.066457631100138179
   142   1      19.163451273263291      1.1817894330021417      1.8109976639027319
   143   1      17.802104493884947      2.6672132838454972    0.065261120486877516
   144   1      19.042038770176017      3.9057317762637322      1.7746337725054553
   145   1      17.875549897816768      5.1344503320050139      35.986632436242481
   146   1      19.153116158284551      6.3922821315864811      1.7929495467674752
   147   1      17.830493167990021      7.7128356758137873     0.20749992268620182
   148   1      19.140813909249054      8.9758011008804743      1.8162529596253649
   149   1      17.924300923202505      10.267554342405019  0.00068456017957032754
   150   1      19.154140508094649      11.542466793510457      1.8059560508165649
   151   1      17.913723313706559      12.844632337804477    0.028752959448331682
   152   1      19.126879411088634      13.942992871199579      1.8174824117025192
   153   1      17.848858638313452      15.282176434948022    0.019501114083175255
   154   1      19.170828689640693      16.507924684097066      1.7615124152965549
   155   1      17.988970407221103      17.710612957050294    0.021774863045243349
   156   1      19.254989749536108      19.052306564513103      1.6502596066008197
   157   1      17.944878241934862      20.446444680695016      35.951697019485813
   158   1      19.043612524226003      21.677626132762992      1.9085297849804082
   159   1      17.903356244073592      22.851270910861935     0.11686958493719428
   160   1      19.279502756393295      24.204081045324944      1.7317552949834412
   161   1      20.338935646935919      25.447484503823208      36.045778382752161
   162   1      21.601566464639301      1.1819033458272155      1.8495235545982611
   163   1      20.356364667814763      2.4705148524524558      36.063107998952255
   164   1      21.765036210621545      3.7880484742129417      1.9888813916789898
   165   1      20.509528425052192      5.0556991027980764      36.099770433535618
   166   1       21.77492336096779       6.388306696340261      1.8436765302638274
   167   1      20.426359935917567      7.6774098961872497   0.0012649165005200308
   168   1      21.688392128325216      8.7022123172297423       1.869820634733004
   169   1      20.392077642875211       10.23697670557911      36.090618773648259
   170   1      21.812048099644851      11.487686369035352      1.7480998114117252
   171   1      20.563882542257382      12.743093609348438      36.044906316973432
   172   1      21.836034078482719      14.029521500686448      1.8996716808722802
   173   1      20.484597618425457      15.224035502198205    0.019350005718899874
   174   1      21.758628732412941       16.40226083345372      1.6306387922453502
   175   1      20.506128493943567      17.904895606516863      35.947893185687285
   176   1      21.713720482049297      19.135497945243461      1.6739852212344895
   177   1      20.529724766972283      20.385038890734219    0.062581096197970962
   178   1      21.738721087106796       21.60555319523959      1.8238627249278927
   179   1      20.505138085476165      22.925265745547083    0.025300125157900748
   180   1      21.754471907348741      23.964589262797539      1.8227480186761555
   181   1      22.905937937054052    0.061974698571960161      36.093266529007188
   182   1      24.335674644580724      1.1452845677642081      1.8577027583321628
   183   1      23.024732717952872      2.5286744468898763      36.069888462255776
   184   1      24.309162774456986      3.9288031859570549      1.6751399749523004
   185   1      22.824825115486988      5.1313513234168537    0.042049710099831994
   186   1      24.253090543035661       6.360226441367244      1.6883920303200841
   187   1      22.918185530407555      7.5396620212036352      36.067097209307633
   188   1       24.36365278730818      9.0150892175666275      1.8136243654972659
   189   1      22.872815960251298      10.116119960244209     0.14625916858549332
   190   1      24.185371449147137      11.504369036009511      1.7127874428231966
   191   1      22.950885302792656       12.65680430579955    0.014530123867052694
   192   1      24.316383749924448      13.838773788045577       1.660429836698619
   193   1      22.841312923248065      15.129895114423663    0.040969960131167119
   194   1      24.352419809494826      16.554694045051203      1.7288205104067282
   195   1       22.96213426218462      17.764353799308207      36.088983172732476
   196   1      24.290961053245514       19.00979044324659       1.637198739830477
   197   1      22.982664832660465      20.258642754037947      35.925732103322837
   198   1      24.265689575563648      21.618584744412065        1.60982080716169
   199   1      22.909285114067014      22.822624580242636      35.958393907806375
   200   1      24.217548591178772      24.110429208348926      1.8887885196028846
   201   1   0.0067285201833613374      25.365311097041445      3.6700295852662119
   202   1      1.2905744432057566      1.2209739003305573      5.4160494196070816
   203   1     0.15262495959261704      2.3277072280468447      3.6193545035773407
   204   1      1.3242140926937531      3.7353345878954705      5.3445180788996964
   205   1    0.053829591913911512      4.9620803936754916      3.7108498324910086
   206   1       1.145278204124369      6.3853796583766247      5.3585548816280717
   207   1      25.450708644079707      7.5994943249112055       3.492591881742781
   208   1      1.2789535930762546      8.8307006713811091      5.4510032208946155
   209   1    0.086014442306038885      10.170444411159821      3.5168453701317635
   210   1      1.2647622090791204      11.500825873286271      5.3494960768413433
   211   1      25.500714673340251      12.609043699231416      3.6419457905896238
   212   1      1.2690068683772799      13.988992163962433      5.3556780682897918
   213   1    0.053062212076263687      15.261412005054398      3.6335131146463016
   214   1      1.3194235954063886      16.652720048127559      5.5377226592483622
   215   1      0.1225708305431642      17.898323918762781      3.4638146460481392
   216   1       1.259017283139412      19.220171470499903      5.3226710737634146
   217   1      25.465784442561258      20.346272297632822      3.4484257602156831
   218   1      1.3001004404072891      21.756158523879169      5.3701866625760166
   219   1    0.023525882217488314      22.800882236763012      3.5232273696065839
   220   1       1.294638363144907      24.221903918835107      5.4240220288867178
   221   1      2.5794487815871716       25.18592693118617      3.6846173183740856
   222   1       4.023065683600203      1.0679032115699176      5.5043041212723036
   223   1      2.4783236922203224       2.378055806548129      3.7233900605819783
   224   1      3.8282887496219327      3.7120854096314275      5.3278941142021914
   225   1       2.486327503435541      4.8924538912550446      3.5775626877301079
   226   1      3.7014200597498066       6.299115892047455      5.3464997778462227
   227   1      2.4854964671435558      7.5908849181373537      3.5683526422425884
   228   1       3.963835351100208       8.863166079035949      5.4363368262343119
   229   1      2.6218217513306659      10.208271289062811      3.6004074371020116
   230   1      3.8997920702053182      11.496207462330567      5.3934659306376354
   231   1      2.5542813377127747      12.704055533986725      3.5140431410343718
   232   1      3.8086889772842758      14.079969654943904      5.3017785788461262
   233   1      2.4931527544364029      15.286539070582311      3.6454448597862408
   234   1      3.7569814383250772        16.6119576206234      5.4325666489417621
   235   1      2.5060200507304669      17.794320492191716      3.6530423998069561
   236   1      3.8924671640715074      19.077412691426801      5.5445949543067172
   237   1       2.566799805417372      20.362797147999736      3.5106164903683297
   238   1      3.9243591596944953      21.756007694195702      5.6374583874302884
   239   1      2.6125877175039349      22.848272491721815      3.5844799335767337
   240   1      3.8690497583465526      24.229744392841077      5.5815212706969515
   241   1      5.1013229243163547      25.330610563973345      3.7043781182580808
   242   1       6.354372479575721      1.2060419262422464      5.5088052851599789
   243   1      5.2172936538950534       2.284237732663069       3.610782571842285
   244   1      6.3603263628503104      3.6615844229088856      5.4534128678914131
   245   1      5.2028441550733096      4.9105335621392481      3.7028524683414061
   246   1       6.295379723290754      6.2983865081196422      5.4729835254964154
   247   1      4.9889640827982156      7.5791338136537556       3.438167772114241
   248   1      6.3029427901352113      8.7847729500549825      5.5453576390589179
   249   1      5.2363541670311049      10.139596617400278      3.6711881454375699
   250   1       6.380757804120317      11.547177549698999      5.3870482816037137
   251   1      5.1230199555098004      12.781553880612421      3.5447821904454253
   252   1       6.461368466401523      14.194617421434957      5.5436426124329214
   253   1      5.0827499434028649      15.372230344846383      3.6975752432785747
   254   1       6.313859510724444       16.76836188171125      5.4353309012982365
   255   1      5.1279595964253843      17.886245718967697      3.4813344645639743
   256   1      6.2146621721149735      19.120817564582772      5.6040158108842544
   257   1      4.9724120554751696       20.47134410711547      3.7353823582308108
   258   1      6.3483601448582565      21.593429668757732      5.4929699418997622
   259   1      5.1049525323169789      22.941719806052902      3.6540666301100271
   260   1      6.4380026884698909      24.068164676876677      5.3148324581035951
   261   1      7.6837220384681464      25.404228197246454      3.6280157667357291
   262   1      8.8739103048493551      1.3023015108105953      5.2937966372159613
   263   1      7.7220940014319615      2.5906569268897406      3.6675458607652005
   264   1      8.9972134499560763      3.8825482873457298      5.4773763075569439
   265   1      7.6967779108357837      4.9761464873472132      3.6271684674004905
   266   1      8.8760386042740258      6.2989070995741958      5.3062443279535687
   267   1      7.5934278152759074      7.6723724442565722      3.4907953746832274
   268   1      8.9790661300779231      8.8802193821144506      5.3904799584069645
   269   1      7.6785665232590414      10.211157959865201      3.6019845883363009
   270   1      8.8413928696595718      11.561911339241135      5.3842559231375935
   271   1      7.6359317705673115      12.804432386014948      3.4799766747693521
   272   1      8.9415435071191922      13.949916386849699      5.3000866032340284
   273   1      7.6793056818647392      15.300365989213093      3.4464586902331562
   274   1      8.8229002112613166       16.54738764732566      5.4922046316226476
   275   1      7.7306489731772876      17.828023642494006      3.6309034175110071
   276   1      8.7285722731483268      19.046608659333909      5.4983140972882332
   277   1      7.7172027130893976      20.330373320463192      3.7833120742013557
   278   1      9.0425936014364989      21.518642482235578      5.4114564788178141
   279   1      7.5752030331961917      22.838040902512269      3.5959227909812728
   280   1      8.8849154576887432      24.139962809619266      5.5032273569259145
   281   1      10.103399549622178     0.04147204404354464      3.6042647762784337
   282   1      11.456881395740643       1.318059616769107      5.3759314980228581
   283   1      10.242764013524893      2.4860063020985357      3.5981985244127377
   284   1      11.454706636361982      3.9205408866405733      5.2683879310058295
   285   1      10.182207017227507      5.1834999454181867      3.4985540284902767
   286   1      11.411215104796156      6.4598445846620738      5.4349519257987824
   287   1      10.193245805700688      7.8837046171325573      3.5266172066321801
   288   1      11.495744303306116      8.8706023892506494       5.431108891145338
   289   1      10.191648330175186      10.257979736088108      3.6155309306975711
   290   1      11.486608615237781       11.58113369883719      5.2842351107341177
   291   1      10.266045695415814      12.729774635131431      3.4883373639247015
   292   1      11.422444993145492      14.152045509002086      5.3712596183182537
   293   1      10.158911718918047      15.377296112975138      3.6152250235997885
   294   1      11.532676721462478      16.807633442071104      5.4623207967492835
   295   1      10.328392174264337      17.862985013000308      3.7548489415188597
   296   1      11.400316981539067      19.233643771524566      5.5321544481072884
   297   1      10.241131066144634       20.47814285247917      3.5906786991461663
   298   1      11.410991020699791      21.653050412984548      5.4338903964680725
   299   1      10.100908817877164      23.116134057837506      3.5337121098632465
   300   1      11.516875313634936      24.181686899082116      5.5148042332068963
   301   1      12.594222982726244      25.421383063000331      3.7934375108742326
   302   1      14.032551089399718      1.3302748797620243      5.5911052116148268
   303   1      12.714410967302246      2.5834231176358959      3.6211004965387956
   304   1      14.098887484414368      3.8328848234964523      5.4164147141597221
   305   1      12.705968913881303      5.0786277132187028      3.5742949820743202
   306   1        14.1074445361079      6.4656188980388443      5.3424511604307003
   307   1      12.832335316545946      7.6574221537210567      3.4663977386389893
   308   1      13.976274975176656      8.9633397327824156       5.488154770793634
   309   1      12.908068853341508      10.218318722137717       3.620463243866443
   310   1      14.033265568620937      11.650696200424818      5.3411311722060466
   311   1      12.914386166440737      12.868444750418192      3.5059034819451553
   312   1      14.148594882431709      14.147413019952049      5.3485190587361231
   313   1      12.698638570051001      15.405469382166443      3.5398021805779867
   314   1      14.069324431547674      16.720011815968878      5.4808541386701082
   315   1      12.900831053478207      17.842144055812565      3.5381275745336098
   316   1      13.935931446255022      19.110073141303232      5.5776513908841583
   317   1      12.749927244235067      20.410152345180407      3.7669838346829843
   318   1      14.033880913978594      21.625603246969508      5.5624752146934995
   319   1       12.60041262304439      22.904282621393243       3.881058140085087
   320   1      14.053022792965976      24.221239551617206      5.4945791091122507
   321   1      15.293506091603847      25.436160993818302      3.8465924237965852
   322   1      16.565624689014182      1.3164472226334158      5.3771738002343703
   323   1      15.093484757765438      2.5817904647859562      3.6344994343664712
   324   1      16.555670353434003      3.9660623164771822      5.3837945357679704
   325   1      15.237626603343724      5.1601015969838935      3.6989275829214279
   326   1      16.672844806615533      6.4523641704017134      5.4293485688968062
   327   1      15.426056543735303      7.6673611068122591      3.5733265107507135
   328   1      16.580454932674133      9.0778623992174303      5.4349751821446803
   329   1       15.44921685911434      10.353369338360906      3.4275064813023732
   330   1      16.607931137427698      11.657110579053167       5.594021460170306
   331   1      15.398555436552785      12.757065316099517      3.4933877418471426
   332   1      16.654264735669084      14.088228529376465       5.308747781610017
   333   1      15.198800048768685      15.316186323204521      3.4285509780484986
   334   1      16.489058267641937      16.637077368021405      5.4140057222298061
   335   1       15.38063896164376       17.92885997460272      3.7064687158235059
   336   1      16.667780188408589      19.063493476076449      5.4012011968087545
   337   1      15.472145428236898      20.300755238844573      3.5056553682225271
   338   1      16.526592663369094      21.657968089004914      5.2373220014929389
   339   1      15.268701298709319      22.883770849558445      3.6701020419155874
   340   1      16.735470034569566      24.141112114009378      5.3814802352708009
   341   1      17.880615715570453      25.513457500248538       3.725006183463659
   342   1      19.165747269705715      1.2688494694240486      5.5381315179551569
   343   1      17.855315992442058      2.6342061218237567      3.5844621287574578
   344   1      19.083602956273705      3.9407198203331375      5.4369095022999039
   345   1      17.843428063278331      5.1755292604721621      3.6561527286804636
   346   1      19.273966059491286      6.4717005463093544      5.5282064200864118
   347   1      17.829592522050316      7.6783167899550291      3.5722652031765603
   348   1      19.189772171397692       8.935739726561069      5.4823144708626543
   349   1       17.86749675500722      10.304574086357897      3.5226258509515112
   350   1      19.197190121600094      11.519566937233751       5.410766535551498
   351   1       17.92052209738026      12.923825749896821      3.5405762299463825
   352   1      19.132168842240496       13.99194939969224      5.4821063810444883
   353   1      17.858498953028608      15.543992390500945      3.5442129081748606
   354   1      19.291892166150181       16.56940386605612      5.3692346275448193
   355   1      18.014410400018445      18.024396289780963      3.5024741975706442
   356   1      19.142948961771946      18.986367995230843      5.3656013289112359
   357   1      17.945966237511112      20.437793950751804      3.5905169590790589
   358   1      19.068681453318867      21.672331290149202      5.3172131118537163
   359   1      17.940744949824278      22.993103943476559      3.5454745396470586