dump/Cu_400_0/steps_41 (written by ASE) 

2000 	 atoms 
1  atom types
0.0      25.526554800834361  xlo xhi
0.0              25.5265548  ylo yhi
0.0      36.100000000000001  zlo zhi


Atoms 

     1   1    0.089691906190936296    0.054827517353842802    0.059801907127859953
     2   1      1.2910208333545925      1.3196022211888294      1.7458770118157532
     3   1      0.1531486608312316      2.5048778823728401    0.014490852464791733
     4   1      1.1759950848820633      3.7361395618767315      1.7494764930649138
     5   1     0.10105289184546162      4.9246108230991403    0.064748285780808781
     6   1      1.4016493088263335      6.3421814336514091      1.7671762860222198
     7   1     0.16533040876150895      7.6416078547342057      0.0417055216182576
     8   1      1.2249274550722355        8.87277354582457      1.7800017231690388
     9   1    0.014981224971755898      10.091049888168946      36.044772348088991
    10   1      1.1773902925989685      11.439208629963384      1.9153344530143406
    11   1      25.509021282538068      12.731787243318532      36.007187034649597
    12   1      1.1771024814679267       14.02736456202101      1.7709034975910201
    13   1      25.477022646321345      15.251143247121886    0.041305131567525979
    14   1       1.201812517182973      16.639708052037026      1.8884060379382637
    15   1     0.05335973016333076      17.887275530210012    0.039877304146784955
    16   1       1.203880154892053      19.036906442998159      1.9087304785219665
    17   1    0.074949926442899162      20.513825530084517     0.03313081583930854
    18   1      1.2643540743573336       21.60345826642931      1.7928200539730363
    19   1      0.2541560811755435      23.092811456540801     0.19577755703519434
    20   1      1.3094051370151074       24.40085452795962      1.8284977343309046
    21   1      2.6083504405721856   0.0045639576208779025    0.022080589603910995
    22   1      3.8137897361833692      1.2117013476246832      1.7473674843740945
    23   1      2.5659862426799416      2.4745985839923565    0.047922091588350063
    24   1      3.7012968682159659      3.6537118370600408      1.8463263852612619
    25   1      2.6456637481141412      5.0758574117545141     0.10066262439686396
    26   1      4.0267077361899881       6.396504092245122      1.9248872435979023
    27   1      2.6588934999448317      7.6614159762937479     0.11980344422930779
    28   1       3.774594896713908      8.9801504191652377      1.8217048577020931
    29   1      2.5642726022615592      10.217482403541549      36.030317735421896
    30   1      3.8778947227365004      11.529118308627162      1.9120575433225662
    31   1      2.5334692408420674      12.710297299935979     0.10011814474329417
    32   1      3.7813382666161339      14.000811274023841      1.9506402030850729
    33   1       2.511226475952693      15.339530764928087       35.96123482884888
    34   1      3.9784521536967774      16.394529815158887      1.7135742280146005
    35   1      2.5641706300323888      17.725177648768991     0.11772445074582279
    36   1      3.8262797724965667      18.904911048651901      2.0557941280025722
    37   1      2.4516661579017831      20.290134343360386    0.086293788584225567
    38   1      3.7371939799906637      21.624779381462538      1.7843159921345559
    39   1      2.7332681235176239       22.94832865596263      36.073201694520726
    40   1      3.8630410013399046       24.10872037388928      1.7320961431134954
    41   1      5.0594349500381828      25.456000431236514    0.043200024155589808
    42   1      6.3824356329022693      1.1986660437812018      1.7909095118269986
    43   1       5.040975180270058      2.5260368438987268      36.079448928360605
    44   1      6.4014504632865918      3.5408620839719505      1.7831602888400091
    45   1      5.0865547240329203      4.8582101822612955    0.059663992500975226
    46   1       6.453579011542252      6.2745895584766664      1.7535207460135878
    47   1      5.1963515354999847      7.6274348208744689     0.12871130121624225
    48   1      6.2101168277204879      8.8601854259027615      1.9500243817046223
    49   1      5.1057635612746388      10.159403915728404      0.1221176931872605
    50   1      6.5071090002988141      11.362435479294861      1.7758136929678694
    51   1       5.118447720512072      12.875775850805409    0.028670570056294784
    52   1      6.4791892946491672      13.918400451087267      1.8656849938852693
    53   1      5.1109461404022376      15.177259777108292      36.095377733117878
    54   1      6.5270014864538766      16.561127913973124      1.7103821023351897
    55   1       5.042376941402078      17.753902017924965      36.026017089278938
    56   1      6.3031116833014673      19.057313012289605       1.848606441675362
    57   1      5.1394702614032015      20.315929578599803    0.024498641179548027
    58   1      6.4301160559873969      21.600266952502544       1.722194937721258
    59   1      5.0198743314726535      22.823008211498319      35.858604662814592
    60   1      6.4241904369528813      24.068734749801028      1.5317220144004535
    61   1      7.7012637756695366   0.0043485543651127015      36.041029521354538
    62   1      8.8338368037498878      1.4070273984829138      1.8074215259857738
    63   1      7.6104623184029174       2.548732723579981   0.0086315479439576757
    64   1      8.8239314666831099      3.9224607477792945      1.8840327132231431
    65   1      7.7279109956539083       5.141685057036085    0.056455101364303907
    66   1       8.941486717322551      6.3469116434924588      1.8926032252820282
    67   1      7.7601736597766786      7.6484119579130576      36.065253791426223
    68   1      8.9790595957698027       8.893646988610973      1.8464251064144372
    69   1      7.6874550452678845       10.12387174768034     0.13307011612156447
    70   1      8.9289824268457636      11.664351264927385      1.7579796909134515
    71   1      7.7305428872404827      12.768927612685227       36.04171303117311
    72   1      9.0638171697201226      14.096373727029521      1.7562911295142827
    73   1      7.7852651144055427      15.319980677859053    0.041290422007329998
    74   1      9.1047011036270842      16.587216819592321      1.9169526952505878
    75   1      7.6273216050043411      17.817679895141875    0.038000074831870553
    76   1      8.9278928015398424      19.171827245920795       1.892066622917286
    77   1      7.6794431130839449      20.324384518519629       0.118910743623985
    78   1      9.0820980822980548      21.763106231189315       1.928499359787317
    79   1      7.7449034368380234       22.84897917364388      36.014291171987345
    80   1      8.8516050830959401      24.329203263810768      1.7833123148183279
    81   1      10.147035084084829     0.18841975581564444    0.086664556378286919
    82   1      11.522582563396346      1.3543857705105473      1.7790761257893093
    83   1      10.281450794672876      2.6063169605513496     0.12702737597908245
    84   1      11.591317761890226      3.9381827833793048       1.848860463890958
    85   1      10.190071005582421      5.0588310566843671     0.16035289280690684
    86   1      11.640099589886857      6.4021964391918607      1.9191768587480855
    87   1      10.371604084550492       7.642169909149052    0.035383601770308817
    88   1      11.439232354233106      8.8937511354352399      1.8535907427884708
    89   1      10.135147878824604       10.15181861557425    0.069902550114238696
    90   1      11.515230996311693      11.544795010444918      1.7164445270544648
    91   1      10.180795440754341      12.701253599343945      35.974943660945591
    92   1      11.675717378510662      14.052683587129213      1.7037097375757408
    93   1      10.385593944457616      15.350350755482992    0.031922078060449624
    94   1      11.710665651189988      16.682743904174629      1.7960521922870716
    95   1      10.156314498352707      17.896733364371986      36.060332890130141
    96   1      11.328289393504248      19.056401297124353      1.9601907082418604
    97   1      10.255442076783108      20.453957804794118      36.074426862206046
    98   1      11.533336205431889      21.561583738871786      1.6707548122957303
    99   1      10.135565936544294      22.939503230226041     0.03882771042677876
   100   1      11.361456490798517      24.125644271199764      1.8239747726556956
   101   1      12.795126146126769      25.409861018799226      36.009469736518085
   102   1      13.956467585912673      1.2842190364548689      1.7654702996459604
   103   1      12.745240036946649      2.6656659374192126    0.049604980800120428
   104   1       14.07576009574592       4.080159899509221      1.7940740121011927
   105   1      12.786278594446449      5.2158258258399455    0.010936276616689604
   106   1      14.138820170268437      6.4357376258204244      1.8732895075346834
   107   1      12.777083082325726      7.7109071975747776      36.015470311795518
   108   1      14.131721559536828      8.9162868071874204      1.6992882547550965
   109   1      12.690903156324689      10.208910732301275    0.015237004388040997
   110   1      14.021103475439549      11.358131387753764      1.6205626237371675
   111   1      12.834985984383675      12.738922051392661      36.036509768584899
   112   1      14.103245652156669      13.941628924426219      1.8883365806065298
   113   1       12.94952625605093      15.347867962952431       36.06495636444312
   114   1      14.072483961311844       16.59731587390484      1.9543036242111491
   115   1      12.746561255273022      17.961571762849797      36.009342518537231
   116   1      14.002306614198893      19.044895000464454       1.705841231518719
   117   1      12.841914706069904      20.394885702178932   0.0026114043156439943
   118   1      14.161800276347764      21.681356809398185      1.6467096921343909
   119   1      12.930499618982143      22.903271440043891    0.031730895578107279
   120   1      13.987805746976306      24.257313099870135      1.6610739609431204
   121   1       15.35023747925055      25.458479794757931    0.017918878055957054
   122   1      16.541743324274375      1.4783592503344554      1.7850201419221652
   123   1      15.349457583680405      2.5208070563277762      36.018112973876299
   124   1       16.59224892334808      3.9050030918971799      1.8892269035168172
   125   1      15.440755279884751      5.1280597696935182      36.020501255023078
   126   1      16.764518647967247      6.4304343025976278      1.7376893729316174
   127   1      15.436333692615907      7.5508504604205022      36.093927178026362
   128   1      16.595260739211348      9.0253439444583634      1.7132638362082044
   129   1      15.315247386344481      10.118537619461197      35.843995735528893
   130   1      16.591728116641015      11.492967689053325      1.7879302619149029
   131   1      15.368939968240314      12.713466755631906      35.983787919220809
   132   1      16.508135131321122      14.087157880295056      1.6881058382227365
   133   1      15.269726074471157      15.356703524658426    0.061931664628309437
   134   1      16.596373640707696      16.673448687856904      1.8893737960645802
   135   1      15.210775959223996      17.863016196270898    0.094723235031745026
   136   1      16.639047512036306      19.209163308362644      1.8292546534865077
   137   1      15.491398583984495      20.397962069770802     0.04533268484348113
   138   1      16.736257264706712      21.725580748823596      1.7865236146646803
   139   1      15.391466962614764      22.996804395295705      35.957119206226487
   140   1      16.608395217706924      24.244329168339473      1.7557339628600181
   141   1      17.767609011092389      25.408319057448313    0.094502464040704143
   142   1      19.087054431748001      1.2409216726511041      1.7689650401880608
   143   1      17.798046452063584      2.6789996923592643      36.092986856898584
   144   1      19.111334699696599      3.8744561050903163      1.8280283270264235
   145   1      17.967680997643829      5.1545474532581244      36.055071690816874
   146   1      19.264654093475801      6.6277332407790732      1.7015812151862162
   147   1      17.861599536442952      7.7130721364785186       36.06450961446523
   148   1      19.072200529731763      8.9737140829578212      1.5957834231909045
   149   1      17.888629228338093      10.423924337937914      35.956017373024331
   150   1      19.112865272541708       11.40881994855032      1.7576082433417473
   151   1      17.810371326215414      12.909745684676025   0.0080510097090041206
   152   1      19.105081084344729      14.093948179195113      1.9962151079206347
   153   1      17.811421973636023      15.474874410123659    0.032891783821912678
   154   1      19.103471461473756      16.560253648398298      1.7681976309701435
   155   1      17.903621185545539         18.103653083508    0.034883665606400875
   156   1      19.123453874191068      19.145654578171744      2.0038494203643618
   157   1      17.855942832353094       20.52414401810983    0.017756173912346178
   158   1      19.078776692679703      21.731265389438345      1.6305606562592294
   159   1      17.803452137360352      23.064496045636929      36.023079958050573
   160   1      19.212106927759159      24.227283617189713      1.7974348591100355
   161   1      20.356030172794313    0.095437626329881148      36.076142537371403
   162   1      21.697278035256737       1.271230870251107       1.745015136656376
   163   1      20.422280750787049      2.5334682343021928      36.011866621296399
   164   1      21.714430490519923      3.7824845406287961      1.7768637807798531
   165   1      20.444203967729376      5.0897494205195333      36.085346978487586
   166   1      21.759601841192399      6.4046510110564059      1.7463309960754592
   167   1      20.541037359312107      7.6777334241104578      36.015948217986818
   168   1      21.601491071625222      8.9610359202328382      1.8161578388222228
   169   1      20.404465978624369      10.137506308130748      36.025174634359814
   170   1       21.68611917124699      11.572148434690311      1.6549004800002098
   171   1      20.146172439013839      12.773619979405595     0.12203779297389009
   172   1      21.724870685747437      14.018947055910395      1.7733567983425584
   173   1      20.488462363043951      15.304518388876629      36.052103378442709
   174   1      21.761101003601585       16.58001328221097       1.840655293035981
   175   1      20.652661821287161      17.920688219952542      36.094516387868971
   176   1       21.65346849132284      19.130799528802289      1.8530728194767667
   177   1      20.248112925325035      20.419342301790511      36.071476420107366
   178   1      21.804764536463548      21.754189663280982      1.7962628699586494
   179   1      20.368311474477565      22.970020610869401      36.058034353128825
   180   1      21.792890514386038      24.208552227559071      1.7926669427735424
   181   1      22.935691866685676      25.442184941885145      36.012578120169671
   182   1      24.249290349719274      1.4124953660311101      1.8385972718957528
   183   1       23.03730111471074      2.5680689673377075     0.04109858843496577
   184   1      24.187804006042107      3.8608023922590831      1.8708803742925746
   185   1      23.000296321921908      5.1953423693181149      36.059721589814409
   186   1      24.414677232521701      6.2517816023363757      1.7324834182541851
   187   1      23.055357578186189      7.7023633964610614      36.068564407960693
   188   1      24.317903726244577       8.986467210406115      1.8094700701471866
   189   1      22.876341454345418       10.06497293171244    0.024517152005739725
   190   1      24.224394418892874      11.481083953824363       1.752972814643885
   191   1      22.953469444227668      12.824598647410326      36.008248246187925
   192   1      24.261367254784187      14.137908652582936      1.7331522713363696
   193   1      22.986780377232616      15.410831665015865    0.056786362997775175
   194   1      24.336278239402432      16.553156693085395      1.7897019082106451
   195   1      23.026281631114419       17.85280488735803       36.09270453047484
   196   1      24.326710342426544       19.07539374640043      1.8923188432218361
   197   1      23.095641247911846      20.439880460400754    0.071955881854137371
   198   1      24.326921650245886       21.76053577198817      1.8697199403064004
   199   1      23.031750858676304      22.847804667326319    0.034499199164577013
   200   1      24.313387490703761      24.315027515902734      1.8704035782958621
   201   1      25.447399444728575    0.060437329283900929      3.6525498874622273
   202   1      1.2137532295149189       1.253553213120072       5.543438454111862
   203   1    0.097745984070408395      2.4092324640369753       3.742599577634989
   204   1      1.2839858575819558      3.8859797955423647      5.3385109949526397
   205   1      25.511572681538659      5.0456468988355798       3.659683267559207
   206   1      1.3312243420486638      6.2721372850631392      5.3718074944345462
   207   1    0.015665493152889697      7.6508086780572926      3.4622692398930539
   208   1      1.3134301482359836      8.9528343654792071       5.470088014345297
   209   1      25.493772247512805      10.251322560541981      3.6406821776152882
   210   1      1.2718363634649301      11.435914091963173       5.398573920238765
   211   1    0.004423649108361208      12.720136255039682      3.5315399327340065
   212   1      1.1153126399073658      13.973995431529339      5.5578980916274849
   213   1      25.435382627068314      15.276505232276799      3.6499919672139427
   214   1       1.128599519952415      16.515725599503423      5.4508416685529193
   215   1    0.026725777149196949      17.916494127795303      3.6743397978798171
   216   1      1.3350592384769859      19.259245118454643      5.5567626944995547
   217   1      25.516122991970864      20.300629696263279      3.5851229592289204
   218   1      1.2643566205810308      21.674774007439886      5.4462725410680761
   219   1    0.094477565907786082      23.037199705378899      3.5471914628697045
   220   1      1.4634846363372704      24.212296972502948      5.5827667609898581
   221   1      2.4947629020559376      25.524029770457044      3.6402916921120814
   222   1      3.8068269660084901      1.2367086643966068       5.372922168107956
   223   1      2.5468349708845248      2.4837275070667437      3.6609039279716162
   224   1      3.8711987433600732      3.6495219343738254      5.5691273234342864
   225   1      2.6279085692544677      5.0297834524958329      3.6253351548676527
   226   1       3.761779597244407      6.2857395827562224      5.5236350876848297
   227   1      2.4994849671694856      7.6267386629729783      3.6355893826989183
   228   1      3.8536958264607217       8.742216056102933      5.4715740197236169
   229   1      2.5613235489450905      10.224800686074316      3.7363045796642038
   230   1      3.8317268035027645      11.439334314468631      5.4370830520025359
   231   1      2.4564972027494667      12.846102417077759      3.5440348302725528
   232   1      3.8822357761611519      13.938240835949685      5.2312160097836014
   233   1      2.3971263359644182      15.327659421552491      3.7958712019733309
   234   1      3.8997219914990553      16.585024309529487      5.5764771809742202
   235   1      2.5579444784585585      17.854103934071627      3.8370350516806102
   236   1      3.8696653890756454        19.0592155405295      5.4689022285157503
   237   1      2.6056976930880555      20.509924298535292      3.5702478953261352
   238   1      4.0665141180591791      21.730983334533867      5.4238542740551807
   239   1      2.7461536426828532      22.982201234943361      3.6510701902787712
   240   1      3.9095375091988864       24.24141047326885      5.4865011456331558
   241   1      5.1204654583013482      25.423923793450289      3.6074394838838422
   242   1      6.2452835219443577      1.3909861612180581      5.5092468408415023
   243   1      5.1896771089705487      2.4711798903679925      3.7298769144513897
   244   1      6.2301706804385155      3.9290148765487851      5.3689677745744024
   245   1      5.1480888204590016      5.0394236512686348      3.6033375477426262
   246   1      6.3216064917291179      6.3215293915672452      5.5188514764113714
   247   1      5.0566021032587756        7.48138064519976       3.724690810677401
   248   1      6.3997228565166466      9.0053961191263863      5.4871595046228041
   249   1      5.0337367652830753      10.208179798385896      3.7192030049802298
   250   1      6.4467579637941865      11.409128758533068      5.2783218389461855
   251   1      5.1760156004619748      12.803892486369429      3.5590959518785557
   252   1      6.5060937022323619      13.880824736991947      5.3525521240371772
   253   1      5.1289980704460376      15.305741130173974      3.7137768731250254
   254   1      6.5036349042150112         16.522082309405      5.4916901169012595
   255   1      5.1725610923918977      17.797210868513368      3.7791628285500773
   256   1      6.4235887135566765      19.138890760511206      5.4052234211227717
   257   1      5.1442838200405587      20.300918163326386      3.5705332778292114
   258   1        6.53607870684246      21.872228627948452      5.4217030289423782
   259   1       5.194618695455687      22.903558541044465      3.5491921410591649
   260   1      6.3583624714181601      24.437607662163192      5.4008962632310062
   261   1       7.623144973005707    0.023363710058016289      3.5698318228969819
   262   1      8.8200045793485788      1.3250272884780061      5.4897487394430318
   263   1      7.6102979946012628      2.5043228272037914      3.6810471350185758
   264   1      8.9615366339663929      3.8901987300970844      5.3233180300549714
   265   1      7.6811356363985537      4.9950091363354572      3.6528264151508418
   266   1      9.0229193538208197      6.3351486431448754      5.5061454264888186
   267   1      7.6023849510590953      7.6508845296797139       3.869923645438865
   268   1      9.0176755979625032      9.0533967962594097      5.3628094400561546
   269   1      7.5934506174192169      10.193533508061188      3.6239807507091202
   270   1      8.8369097608026852      11.510613864967826      5.4104428563645843
   271   1      7.8807072817821782      12.770758829763048      3.5945588747662431
   272   1      9.0347456005338813       14.01872762671897        5.45500471647214
   273   1      7.7035443532550421      15.269591887826794      3.6348936196824702
   274   1      8.9563104229452666      16.512755281541015      5.4508325855795334
   275   1      7.7405597047408703      17.789869899175706      3.6453826282880426
   276   1      8.9871190047047449       19.07567214598502       5.437390980703567
   277   1      7.6744423045209871      20.440232520502953      3.5759830137990116
   278   1      8.9612955124040354       21.59433725953874      5.2646809261737157
   279   1      7.6735531517794477      22.979104426238624      3.4573383698716715
   280   1      8.8056177061180225      24.311290673334813      5.4275446926846085
   281   1      10.175249607732036      0.1844502733739237       3.626757259948961
   282   1      11.580482840449102      1.2834858109575897      5.3797631329331432
   283   1      10.202495391616722      2.6622123272296552      3.6529626291023871
   284   1      11.470189981125817      3.9363695511884687      5.4596378391201386
   285   1      10.260161418956555      5.2562623245977766      3.6720446737370507
   286   1      11.565612956204211      6.3767856575688828      5.4775943623512768
   287   1      10.168604425697298      7.7416722146856207      3.6542679336390806
   288   1      11.476269532692003      8.7463005004576662      5.4231546165030835
   289   1        10.2961923162334      10.242524882303611      3.6773691812269971
   290   1      11.387925195362271       11.53018365446907        5.39976149071755
   291   1       10.29106257044729      12.792150053727205      3.4996701369224303
   292   1      11.499665448636945      14.169612058723933      5.2912279988654758
   293   1      10.294676225465961      15.278199199535747      3.5616852247847879
   294   1      11.444214295270172      16.524351936559587      5.4404336851587578
   295   1      10.219535086182384      17.831706477850876      3.6574015579787567
   296   1      11.641533421179851      19.136258521092813      5.4605115453383819
   297   1      10.363904001915788      20.343734808141722      3.6518837619204207
   298   1      11.683886854774759      21.698587776890566        5.29342879147997
   299   1      10.098336837763823      22.988018558212158      3.7530460037325506
   300   1      11.503219729888539      24.320234719203462      5.3535024646887015
   301   1      12.844308995241885    0.084581642680210942      3.6198983482904974
   302   1       14.05070738668015      1.2756455708090726      5.4853763786156264
   303   1       12.73707506675381       2.692132778180234      3.6259643280013512
   304   1      14.044738707676117      3.8673895774426521        5.48114987583733
   305   1      12.834639873351044      5.2410534110654998      3.5876026300661916
   306   1      14.004921308884668      6.3760051056081908       5.541983277807522
   307   1      12.741758321031755      7.6315797351377856      3.7144243058691866
   308   1       13.97984726783112      9.0665710871863006      5.3780814159780768
   309   1      12.845381340405064       10.16890240327624      3.4299653998251176
   310   1      14.047594325251026      11.618741988116893      5.3018811002064199
   311   1      12.634269307729163      12.719565812315025       3.567428647126111
   312   1      13.918456457218138      13.940317009394713      5.3890115655628499
   313   1      12.790552404947643      15.346830269837035      3.6215959961925654
   314   1      13.994203581612203      16.625573176093077      5.5197539868745249
   315   1      12.791932425253464      17.967005998468917      3.6322035004816811
   316   1      13.971856346722305      19.076845824172565      5.4904641760783504
   317   1      12.825969080766299      20.428337675869734      3.4594285128716376
   318   1      14.233940544165621      21.652872811361991      5.4285208026398175
   319   1      12.949995099794352      23.044769776982783      3.5049420423231954
   320   1        13.9732257643015      24.281270027673685      5.3301991041498047
   321   1      15.178914298633369     0.12344107668467459      3.3854804293352343
   322   1      16.434802731541346      1.3954938587475221      5.4404231851809497
   323   1      15.265939303241591      2.5008449084428697      3.6866459966398177
   324   1      16.586201516983664      3.9512055119202731      5.4758265900625354
   325   1      15.374655427726205      5.1593588626320823      3.6863681831711146
   326   1      16.741329117665231      6.5256668055471758      5.4073605787289365
   327   1      15.355485907974485       7.734936783893505      3.5491063204058038
   328   1      16.548545975612626       9.017397999143034      5.3168136896470672
   329   1      15.247596160709593      10.266174476855975      3.4594556418660649
   330   1      16.595939285427324      11.541447487155633      5.3708359790791489
   331   1      15.346243093558453      12.709802072005752      3.6492754289698324
   332   1      16.625184349554321      14.027098410615951      5.3798569902578786
   333   1      15.340597824280731      15.242017505247691      3.5896097761531691
   334   1      16.558728872293646      16.626435904120886       5.531500779260794
   335   1      15.387107647005122      17.883245060383604      3.7136699423252115
   336   1      16.494991213184537      19.233906837865106      5.4264343172050671
   337   1      15.331281451606033      20.393660638311772      3.5931161012293829
   338   1      16.677076512125105      21.840353434965785      5.4161335014826717
   339   1      15.367269275761371       23.01592148422025      3.4749590516894053
   340   1      16.656312616895594      24.393366486308377      5.3400170572271408
   341   1      17.963512316058523     0.18086207484921307      3.5659841475998517
   342   1      19.065741033911316      1.2710541388032237      5.4701867750250237
   343   1      17.848110798356405      2.6350450307516282      3.6254032306009876
   344   1      19.187407591840866      3.9158528040497602      5.5580411697186944
   345   1      17.899346370026699      5.3429358258763155       3.390930084556965
   346   1       19.05200990417303      6.3838589710903229      5.4220701295101845
   347   1        18.0866278058256      7.7598579784714961      3.5616902460340163
   348   1      19.202288180438721      9.1032380154258412      5.3098240110122719
   349   1      17.910077546856606      10.230814781199804      3.5955954725990646
   350   1      19.243627086410577      11.618155544732771      5.4025019488536508
   351   1      17.776877087388996      12.868345986421645      3.5986821066698096
   352   1      19.094413504346846      14.093193535548727      5.4093478891386662
   353   1      17.826985798954013      15.345750874346505      3.6772400101648812
   354   1      19.023769066309885      16.665709426351015      5.5204137409855667
   355   1      17.871907508585299      17.907603351078116      3.6837944711702786
   356   1      19.146872494707143      19.237480089058156      5.3022597562883114
   357   1      17.895394406634569      20.574102269726193      3.7290690947766345
   358   1      19.135083214854507      21.760506073426857      5.3613293607691777
   359   1       17.84245404518445       23.16979725071273      3.6500921024453192