dump/Cu_400_0/steps_11 (written by ASE) 

2000 	 atoms 
1  atom types
0.0      25.526554800834361  xlo xhi
0.0              25.5265548  ylo yhi
0.0      36.100000000000001  zlo zhi


Atoms 

     1   1     0.10232108186013156     0.10982469301531506      0.0102679362098229
     2   1      1.2660782122165835      1.2088834551767489      1.7718083498301764
     3   1      25.485844892748716      2.6922434295784012    0.076159909636419457
     4   1       1.378533948560632      3.8623148573508508      1.8695913583747721
     5   1     0.10431277000608098      5.1015240957673411    0.068352318586062111
     6   1       1.354297133000316      6.4637252834638446      1.8902543664184031
     7   1    0.069834725061444378      7.6976928052055325     0.05869449619609652
     8   1       1.405132008820712      8.9891326142319716      1.8132427221391589
     9   1      25.385775423599014      10.133128354882782      35.919566537779382
    10   1      1.4125961598719838      11.455956136762692      1.6548428426914497
    11   1    0.011819206293227823      12.584647627815761    0.080406055256980802
    12   1      1.2437371824745924      14.022733707883679      1.7332524801131173
    13   1      25.385472899897739      15.277037060717687     0.11016518754513537
    14   1      1.3217786368939035      16.784805933260955      1.9673399501811206
    15   1      0.1201243147316802      17.830755506367595    0.040393687002904188
    16   1      1.1894416248739541      19.209951655489466      1.8187908746562145
    17   1    0.037007551142469404      20.359023249409329       35.98346364519459
    18   1      1.3163243287403055      21.822646981852188      1.7903835047535614
    19   1     0.10954200124581223      23.031476675672348     0.08275672332052865
    20   1      1.3354180396252833      24.313828773288925      1.9647017236193065
    21   1      2.6055399956702403    0.033946490495207829      36.018421247688629
    22   1       3.782657787276233      1.2801761903938451      1.9135368685888487
    23   1      2.5541691803073205      2.5710981425023793     0.12019406591049352
    24   1       3.955391904900631      3.7243368429259527       1.874364272160846
    25   1      2.6513937599156496      5.1690494456508222    0.064185613409438319
    26   1      4.0360949378597031      6.5128912272815542      1.8337102675399353
    27   1      2.5179308676793846      7.6812646559218551      35.997616357431625
    28   1      3.8192914323902478      8.9247331009952884      1.6961777111183891
    29   1      2.6851815772696108      10.207422670416165      35.842025852074435
    30   1       3.884550348002151      11.550159498093812      1.7375612666563722
    31   1      2.4964971087083341      12.647549103259582      36.075686289551541
    32   1      3.8567046966934506      14.076358388127534      1.8140349855420239
    33   1      2.4822132351573125      15.245310298371395    0.033234719581889748
    34   1       3.711329273886625      16.637735813866755      1.7104695123567346
    35   1      2.4629354666152787      17.828337012345919      36.048895370794533
    36   1      3.8055874937839569      19.250240095422321       1.740751751354505
    37   1      2.4698581253329062      20.439153261579225      36.092002635776531
    38   1      3.8477097685577619      21.707541779690548      1.6254232693797013
    39   1      2.5592665242039274      23.082258518652232    0.054307952257158718
    40   1      3.9159579716674604      24.202869471727897      1.8523163984187359
    41   1      5.0785169415550566      25.379568141379814      36.004897482613835
    42   1      6.2874442100912562      1.2535868476249945      1.7397964631797211
    43   1      4.9942307523191554      2.5481640338517555      36.066436993297145
    44   1      6.5173585122225397      3.8425342632719075      1.7317738404440894
    45   1      5.3100263755413479      5.0014813792586015      36.098099372635041
    46   1      6.3581083277649411      6.2280423079953717      1.7402054638184277
    47   1      5.1109275316128882      7.5658231983838018      36.004981039674206
    48   1       6.333761283798129      8.8374342263453372      1.6392224917500477
    49   1      5.0793042503953414      10.061778220566845      35.989937658933364
    50   1      6.3996088477387643       11.45802106561805      1.6896761856229334
    51   1      5.0153784418579841      12.883870913595864      36.065151088726473
    52   1      6.4575189533340112      14.084427146458712      1.6964801795798068
    53   1      5.1390586536237173      15.371925335711769      36.000240953377208
    54   1       6.362296007978431      16.561895460193025      1.9279206915010965
    55   1      4.9990057740960809      17.872082263466162    0.016215533711272188
    56   1      6.2832562028476513      19.097678955899845      1.8209460413219392
    57   1      4.9982749949751319      20.458941863853887    0.019593828634992878
    58   1      6.3862086310180031      21.535733179539545       1.794510591547225
    59   1      5.0690537875449344      22.890511557982514      35.900188127162473
    60   1      6.5239286667978353      24.169345014317166      1.7239557659308054
    61   1      7.7425014049860801      25.385874947144945      35.864773453973449
    62   1      8.8407552934238858      1.0353841298777802      1.6854122147939501
    63   1       7.605995357533021      2.3862263257882153      36.021830549902532
    64   1      8.8095922249109719      3.6565684981015516      1.6579618390316007
    65   1      7.8114939175842242      5.0263578270631202       36.03291460706793
    66   1      9.0284877625146329      6.2786167262157688      1.6860144775624564
    67   1       7.667717904719952      7.6018650064601632      36.065841613489681
    68   1      8.8462361015641573      8.9011107792294624      1.7776430071642952
    69   1      7.6651903363084193       10.14741209513714      36.098185952467972
    70   1      8.8805972447490245        11.3858903200732      1.8165782038431861
    71   1      7.6022073040632341      12.685995614167012      36.006295775244375
    72   1      9.0144809157935786      14.090883151080689      1.7500251008428003
    73   1      7.5508938620291222      15.311408975886268      35.954836736278345
    74   1      8.8188064147501226      16.449011566938122      1.8774369385357896
    75   1      7.6277063695707552      17.824547787023615    0.056136855580336785
    76   1      8.9583180073790434      19.173721824362627      1.9778427904235618
    77   1      7.7492318093551784      20.266508738364667     0.17295919514217528
    78   1      8.9909656210670601      21.538434080470747      1.7658944612460448
    79   1      7.5604498931654671      22.844947810490385    0.066668865348537942
    80   1      9.0389020578437194       24.12889231244532       1.768014610370984
    81   1       10.28058823594969      25.477018222511269      35.994197254665913
    82   1      11.486826892725356       1.154448566606433      1.7696293760982593
    83   1      10.131354922862929      2.4995169431416278      35.899275688105902
    84   1      11.427705298928222      3.6689580209444621      1.8251746930904902
    85   1      10.244987463026639      4.9622955057528433      36.088381011874795
    86   1      11.545650002795464      6.2772435700109703      1.8704927231100907
    87   1      10.187805609006102      7.6194538481246381    0.043877155492566627
    88   1      11.503899263126659      8.9585887545662199      1.8421270157005001
    89   1      10.149568871260607      10.174424239364745    0.076541257319115763
    90   1       11.38366514194699      11.571262293368418      1.8696766591296075
    91   1      10.135799173395361      12.730531681951581      35.950915943896781
    92   1      11.497479779728661       14.06557855381406      1.8114487486522635
    93   1      10.231596747243652      15.293360404032445      35.955009932694324
    94   1      11.531946667931095      16.605239391601707      1.8896993784844427
    95   1      10.233893932208032      17.705275460864812     0.12491381594968524
    96   1      11.524234149729688      19.063005619873749      1.9211083238651232
    97   1      10.140168028534049      20.228275197558332   0.0071810086142136366
    98   1       11.47912313346114      21.741499068399165      1.7862417803034414
    99   1      10.232299964515276      22.818543425923046    0.069773987254336603
   100   1      11.658747778885234      24.144155351907909      1.6482778686777231
   101   1      12.777084111839454    0.026233217170474006       35.98236419805982
   102   1      13.888379232862011      1.3851656639809369       1.848123946683303
   103   1      12.727171679844702      2.5110638645065793      0.0367445070325743
   104   1      14.109609944792858      3.9025341374772862      1.7104047043939885
   105   1      12.696670492165946      5.0711805877295228      36.087025301612719
   106   1      13.974932006995903      6.2963667563251073      1.6968539301438128
   107   1      12.642823615100387      7.6980396819570407     0.06483259498222653
   108   1      13.863571451224331      8.8425242121334779      1.8698344077182354
   109   1      12.675681135697602      10.304212605718762    0.096353618321472823
   110   1      14.187095703367012      11.431259769874833      1.7242232671101752
   111   1      12.760239250612871      12.855432796659617    0.084756975115055755
   112   1      13.966815567241728      14.041005286427874      1.8804141922366722
   113   1      12.694588709792786      15.407153329499577      36.087863301343994
   114   1      14.046085793601256       16.57993471019353      1.8090382887779117
   115   1      12.657312152578935       17.85514478282029     0.12642589441271629
   116   1      13.985846249582403      19.075969119084728      1.8111801083854755
   117   1      12.721162555974624      20.443659026308076    0.022091559418493039
   118   1      14.141663779551738      21.568565705514949      1.8422693276803228
   119   1      12.919085126844998       22.81914088275861      36.024980531393325
   120   1      14.161170543312675       24.29823109354755      1.8305842884887158
   121   1      15.279506777391704      25.500631839970684    0.074091730151451332
   122   1      16.488142785332741      1.3606024753824952      1.7015987508343295
   123   1      15.265343220486878      2.4437093573898303      35.991626316105695
   124   1      16.508209830638982      3.7764195254810735      1.6924346845432414
   125   1      15.383219315704757      5.0492585585408305      36.013843226347092
   126   1      16.574965275230245      6.3914858466208351      1.6647989536330452
   127   1      15.251642214904706      7.5894553093579944      35.909783366918155
   128   1      16.829966227015518      8.9802053647081124      1.8021268091599143
   129   1      15.390094856853128      10.218770892086303     0.15072737507306311
   130   1      16.669685496320536      11.572422824187258      1.8528832138328102
   131   1      15.501252561687314      12.812834888720825      36.058243214408051
   132   1       16.42732292863468      14.175874831932109      1.8119079301078507
   133   1      15.238657359081806      15.310408555061606   0.0023272647623116417
   134   1      16.616638491447205      16.736985498734285      1.7355952358388678
   135   1      15.310512191497878      17.813236226911279      36.000762017146386
   136   1       16.63170047867057      19.212038281817541      1.7058320615220977
   137   1      15.294158736606775       20.33822636193328      36.002228405023196
   138   1      16.616634751109366      21.674753272919851      1.7057095814232426
   139   1      15.335544092532231      22.954232316103283    0.089346529451484136
   140   1      16.717971714453199      24.276043968585785      1.7569569231209943
   141   1      17.842162910195078      25.503557945526968        0.10597460942339
   142   1      19.109259540430891      1.2084452162677461      1.7697393589656594
   143   1      18.152761057508542      2.5377341524044734      36.066261662294245
   144   1      19.195585372609873      3.8633360970141299       1.726772367190756
   145   1      17.869604221196326      5.0735247899426978      36.012516658388314
   146   1      19.143866468687591      6.3560983860077922      1.7621761974084038
   147   1      17.850986453493253      7.4573742173388489       36.03938156735336
   148   1      19.182838878506981      8.8758274560347026      1.6971991775803534
   149   1      17.816100462064295      10.434896623743732      36.091825717878166
   150   1      19.247766763090151       11.42474357384371      1.8256158266412637
   151   1      17.919892750846643       12.71010623684311    0.083521514844153447
   152   1      19.165239703348522      13.880253077839418      1.7232474655776844
   153   1      17.837811137930526      15.343288624218442      36.092478182349289
   154   1      19.124684254371388      16.656926522311888      1.7604873654755135
   155   1      17.926474914981785      17.833917309398824      36.057291143669197
   156   1      19.134626994746952      19.276617402521573      1.8570290527241937
   157   1       17.78300178556497      20.475668465815719      36.045606402927369
   158   1      19.055309832952666      21.798187179588613      1.8813307248528763
   159   1      17.813787446897187      23.028046262584109     0.02036565120771457
   160   1      19.150513776020627      24.316620276950321      1.8125880885184755
   161   1      20.456031049325475    0.043185247444676375      35.982180817525382
   162   1      21.689708035385081      1.3027300367012256      1.8233990169635019
   163   1      20.580671716732745      2.4768615945226298      35.990060575010219
   164   1      21.822176012644483      3.8803238441385428      1.7818302248983302
   165   1      20.467847924145463      5.1809530754469071      36.041045325944694
   166   1      21.656341872449591      6.3962440801843519      1.7571402234265276
   167   1      20.402519503103687      7.7478365393279489      36.033926069142062
   168   1      21.788787129495912      8.8312463556408947      1.9293253707229283
   169   1      20.399834765960961      10.298568902587308    0.043128917462013465
   170   1      21.787837773951797      11.454291004155873      1.8082014336704804
   171   1      20.465232489603743      12.704162484421838      35.874184300929961
   172   1      21.683715493535878      14.075322217073483      1.6673892960787038
   173   1       20.33258895195393      15.355162673168389      35.999359577785619
   174   1      21.674169899312709      16.595948205204152      1.7965954649838061
   175   1        20.4193110702968       17.83525922282686      36.090681630335531
   176   1      21.666948970248743      19.252910843763281      1.7971018980242437
   177   1      20.442840276462587      20.491515430692939       35.96318954290188
   178   1      21.667923837651681      21.798175188749791      1.8154438202748011
   179   1      20.430461178018888      22.940432497515488      36.052347341839912
   180   1      21.734025191145228      24.352030246461975      1.8227376852548316
   181   1      22.960150031654823     0.15989538661632038    0.021373518903271826
   182   1      24.103922062652472      1.2431818169910955      1.8391410259330432
   183   1      23.003968319206063      2.7483444208762431    0.048027520605466958
   184   1        24.3501348597263      3.6870307790141146      1.8746978516803767
   185   1      23.129582236266199      5.1671460208596383     0.17782851782208131
   186   1      24.329436757465764      6.4142707032580848      1.8654119316614939
   187   1      22.965507410764605      7.6613989821057569      35.991128122606121
   188   1      24.435388441914277      8.9308438373176884      1.6977856949807908
   189   1      22.860466867238646      10.186865643780852      36.090566442316465
   190   1      24.372884157680712      11.446816224300555      1.8302894520513164
   191   1      22.964085386719095      12.676812566851298      35.998876284462973
   192   1       24.27948458893324      13.906744885442894      1.8205103404353831
   193   1      22.959634305183364      15.231493978209969    0.077073849790303822
   194   1      24.314851688127295      16.602941532547302      1.8552847845947893
   195   1      22.851988189310134      17.894139071209622      36.058100590814576
   196   1      24.152166797716678      19.128345901108485      1.8123221634674804
   197   1       22.91572604881917      20.437333023871318      36.020523060649452
   198   1      24.302037288235898      21.517683651805282      1.7148169430693301
   199   1       23.02879347974557      22.982617810664273    0.094906882716077376
   200   1      24.285264454593452      24.122492882744773      1.7979950931237461
   201   1      25.491607264865195   0.0032231004343081537      3.6021557295631732
   202   1      1.3076168744410357      1.4850124421550062      5.5120963444902547
   203   1      25.496569965214015      2.4680438746914231      3.5997771873164877
   204   1      1.2324556506754614      3.8171724668362201      5.4502084056681994
   205   1      25.482123622087947      5.0271612345442183      3.5634859141960664
   206   1      1.3105185761305338      6.2953138058045255      5.3695813571054352
   207   1    0.096598004795114087       7.738454532202371      3.6370486614564612
   208   1      1.3180759352268965      8.9506925710397027      5.4125715640457699
   209   1    0.084681871884200066      10.163551784844952      3.6443136031892527
   210   1       1.312652855650424      11.501085040745069      5.4409749840813584
   211   1     0.25605989161507481      12.732629392624847      3.5256519197619474
   212   1      1.1848819526448637      14.025368578497297      5.3075720829971225
   213   1      25.514079052616793      15.332217984389244      3.6227195515622941
   214   1       1.183162300060894      16.602562932883423      5.3415109214340584
   215   1       25.48846482490228      17.888900786705726      3.6047902599607604
   216   1       1.225141782251163      19.026659393191718      5.3946243318656384
   217   1      25.482104336394993      20.344024477700053      3.5608426681087417
   218   1       1.338029188458765      21.616734744872705      5.4193245893801594
   219   1    0.035603861676071845      22.951783482339206      3.7324707772747225
   220   1      1.2252920451298033      24.268586751336791      5.4663476160160638
   221   1      2.5112441559665908    0.049196555439969182      3.6672316061929395
   222   1      3.9505723448642018      1.4652707690060736      5.4402896167617687
   223   1      2.7130062190819313      2.5908393665442513      3.5900887875279626
   224   1      3.8459540358064279      3.9060830048463493      5.3817325220124399
   225   1      2.6585194259931439      5.0776934094765842      3.5501979435167419
   226   1      3.8136642468195716      6.4360049048192316      5.3653945048164333
   227   1      2.6184195660850973      7.7163152941969351      3.6388990407035635
   228   1      3.9732079263189859      8.9215470076784076        5.33613031298683
   229   1      2.6647667535878257      10.205083776564599      3.6343491991032306
   230   1       3.854347687290717      11.390959084533922      5.4126979196331844
   231   1      2.6936912670804061      12.713042053451638      3.6006960205815508
   232   1      3.8219400797279297      14.026411736451902      5.5603704318577956
   233   1      2.6156350393063419       15.31767079814456      3.5311968309346651
   234   1      3.8728235621392693      16.672549417736409      5.4746138543863827
   235   1       2.733726144786643      17.940301022511917      3.6509085922912967
   236   1       3.787162702269574      19.154101407039096      5.3364984684876084
   237   1      2.5822812016225694      20.387566059497974      3.4979634190733471
   238   1      3.7855190337713216      21.755379367912557      5.5653645196734463
   239   1      2.5838144107095546      22.907830355132344      3.6699955275090219
   240   1      3.9217300730943161      24.174040341967615      5.4158635376247917
   241   1      5.1938354711924424      25.452885812810059      3.4387828915138927
   242   1      6.3696400994050206      1.2682457846219202      5.3420053859202561
   243   1      5.1951310281588094      2.4817615089993663      3.5153927256558162
   244   1      6.3795574659772765      3.6892854331801588      5.2879405031904883
   245   1      5.2166092334268068      5.1437690661277173      3.6149061775673332
   246   1      6.5256237539253519      6.2188778128387012       5.464787976531742
   247   1      5.3358010124365958      7.6007200659010676      3.6882271666981663
   248   1      6.5039237956801816      8.8300743680908607      5.3981950486016101
   249   1      5.2493575030339334      10.200404371514729      3.5600970060133159
   250   1      6.2511805993508371      11.332646365398027      5.5024471507421877
   251   1      5.0811087397349874      12.747211383703567      3.6968902251107481
   252   1      6.3290138270627754      14.053148108296929      5.4491629581140835
   253   1      5.0595010651473462         15.219077024797      3.6591902196546973
   254   1      6.4006681852457916      16.531350369171324      5.5341464420115631
   255   1      5.2213941255268388      17.861452063239074        3.69843907435106
   256   1      6.4234513032843576      19.047969229559616       5.461534877103249
   257   1      5.2000996288390127      20.294025957159182      3.7146592162426018
   258   1      6.3837808179869109      21.661489451334816      5.4516044625150935
   259   1      5.0997426423746273      22.837247325854683      3.6316484190113028
   260   1       6.453610163450584      24.291280644271531      5.1959437269933995
   261   1       7.861828985746615      25.434896558252657      3.4274584431677444
   262   1       9.005340361349143      1.3160713300326015      5.3257111470341458
   263   1      7.6865908726020979      2.4805906229509089      3.5220686060731969
   264   1      8.9901759629379612       3.857611239392265      5.3680939607960285
   265   1      7.7160567038884373      5.0559092090014985      3.5169043852015758
   266   1      8.8845731772849028      6.3225697139596218      5.2665426663063704
   267   1      7.7945224919907492      7.6230860070240354      3.4462399257710246
   268   1      9.0676685761176543      8.8661849635383234      5.4366045145152642
   269   1      7.6814835840700182      10.136002462214245      3.5289109103600258
   270   1      8.7986393585161853      11.408782874155046      5.2561450221408297
   271   1      7.4673654267954035      12.648291959937882      3.5376916385603994
   272   1      9.0278016726575405      13.870343410651985      5.4694609354327035
   273   1      7.6429373091154149      15.184839289139628      3.6496450770149691
   274   1      8.8992110002401663      16.685315642731322      5.2845333911473142
   275   1       7.732068227333583      17.986828283175562       3.588224133221205
   276   1      9.0441328427914573      19.079061459438826      5.3880840000644401
   277   1       7.667827408001207      20.528730186015913      3.5830421705733118
   278   1      8.8927026060235317      21.589913481467079      5.4497766331924842
   279   1      7.5914631420679237      22.945587436276128        3.56536819324673
   280   1      8.8899059689031308       24.15931273347779      5.4250000503610414
   281   1      10.278621338196796     0.16245710063589441       3.647157536555298
   282   1      11.520809756363802      1.2962536872965085      5.4994689884603867
   283   1      10.236880847279108      2.4966351781829785      3.5694046540172955
   284   1      11.365934489938022      3.6708972050454727      5.3011582539480191
   285   1      10.098426838052216      5.0671626847317217      3.4702229213827755
   286   1      11.410716980865942      6.3814555572466585       5.460839634157697
   287   1      10.187893542344518      7.6151495030096843      3.5323587173969395
   288   1      11.558360229634001      9.1391358991344305      5.3792186179884665
   289   1      10.119401142027929      10.160313063708585       3.657739891250837
   290   1      11.548451013309048      11.460958676182305      5.2388804931276169
   291   1      10.101560496413043      12.632611976059756      3.5420984507235627
   292   1      11.447303379946378      14.038738836489001      5.1670986147863713
   293   1      10.198974350834886      15.207178356807486      3.5232642007263606
   294   1       11.48818086715761      16.560156940631654      5.3172252590510585
   295   1      10.283686115812403      17.843890223665252      3.6452081389282958
   296   1       11.55660613090445      19.151488495792172      5.4641390908436263
   297   1       10.29630523541098      20.528872260314252      3.6443815573100626
   298   1       11.54811236957665       21.71324907677522      5.4295711954476289
   299   1      10.278797922201086      23.072268558657729      3.6054246784108486
   300   1      11.442828936616035       24.22457652905387      5.3458116949250334
   301   1      12.717204652924197    0.057090740733746252      3.7211446460239439
   302   1      14.048586925569047      1.2183800880902473      5.5221555569265268
   303   1      12.677958343833829      2.5461806117733419      3.7685692469348582
   304   1      14.012217454539396      3.9119340160929288      5.5112107059445767
   305   1      12.918202876168852      5.0614114009335083      3.6670953407514228
   306   1      14.248508742907875       6.381490175659855      5.3596063390996109
   307   1      12.915612063902472      7.4582893504057379      3.6617433770311449
   308   1       14.18999594589096      8.9399595479655609      5.3329368558734167
   309   1      12.900910253115493      10.205968440594825      3.6390268799130374
   310   1      14.170147859693188      11.542689408098392      5.3113297500071948
   311   1      12.809270492833576      12.808019688304704      3.5883506029968428
   312   1      14.137146495633976       14.07688362006391      5.3352029303587098
   313   1      12.819356445388975      15.492814895767797      3.5506509543877551
   314   1      14.073118843987611      16.597201868531027      5.3814904215849504
   315   1      12.842501243256478      17.886332111187123      3.6467152586392322
   316   1      14.065161878377594      19.103282173481617      5.4447519844521004
   317   1      12.814347029691266      20.437657150176378      3.5791499391828436
   318   1       14.03093146918946      21.666338827786877      5.3996619970423776
   319   1      12.841291462387538      23.063241666935625      3.5899053671612369
   320   1      14.164585369110075      24.253844516848741      5.3852561431848578
   321   1       15.27189467249941      0.2431761904612918      3.6046840162520883
   322   1      16.573783343538103       1.257688625287712      5.3521670474601102
   323   1      15.236122805281706      2.6198808135322866      3.6156971849037656
   324   1      16.628965449198031      3.9026973257132949      5.2400993320811731
   325   1      15.240228263663051      5.2004252785038583       3.456350453716071
   326   1      16.649398438340043      6.3348273450366879      5.3748503410063027
   327   1       15.48415964795486      7.7412644321488102      3.4681593292375057
   328   1      16.765402094205676      8.9092517844049866      5.2008069104973789
   329   1      15.391154333361737       10.09215523648226      3.5463119358178354
   330   1      16.678448022032573      11.514112342080848      5.3595168254996484
   331   1      15.309397449209879       12.71150828889232      3.5484553286275511
   332   1      16.729515774550112      14.023596367182613      5.3667296384274685
   333   1      15.340958634117809      15.540084117324634      3.5883428262870689
   334   1      16.629314350442794       16.44510488449977      5.4980873678163507
   335   1      15.270187960581058      17.912538317763985      3.6722559252144422
   336   1       16.74463701138578      19.251298165829045      5.4051595726727957
   337   1      15.394074299688452      20.378774218470287      3.5819878344444889
   338   1      16.551302397928549      21.888714529546142      5.4080145501375085
   339   1      15.362893524059533      22.995682820980015      3.5450848710392986
   340   1      16.648920263346543      24.402753768764608      5.5148660119823578
   341   1      17.762529173543289       25.49023002452849      3.5173002243733906
   342   1      19.121945404763764      1.3446373711444155      5.4323041214738863
   343   1      17.753307966044961      2.4463268946548422      3.4705699190064587
   344   1      19.074352864887345      3.6653617764860149      5.2871298575796484
   345   1      17.867405025379799      5.1422627098537506      3.5813825743652261
   346   1      19.102993096661141      6.3643250778691129      5.5203888888567842
   347   1         18.050001332135      7.7142539774849856      3.5313433703496897
   348   1      19.223744705956733       8.950368255571405      5.4545788422127579
   349   1      17.901299367736595      10.350862259546568      3.6618135146165924
   350   1      19.172268741561037      11.411211250438779      5.4100435666216864
   351   1       17.95876407070433      12.843557486866159      3.4503260861287228
   352   1      19.327271202303901      13.986364274224711      5.2939688875211157
   353   1      17.869400390068176      15.244086639642644      3.4633340137610857
   354   1      19.201123214857354       16.76142372612156      5.4237999262071828
   355   1      17.693751844920389      17.756717532893724      3.4834278638594935
   356   1      19.145102705873374      19.324191944128181      5.4414351862376602
   357   1      17.770215769172715       20.58387163630027      3.5927001721234322
   358   1      19.090357232217297      21.699514528976152      5.4442160827179373
   359   1      17.984212909761073      23.123584081538002      3.8131770554499123