dump/Cu_400_0/steps_21 (written by ASE) 

2000 	 atoms 
1  atom types
0.0      25.526554800834361  xlo xhi
0.0              25.5265548  ylo yhi
0.0      36.100000000000001  zlo zhi


Atoms 

     1   1    0.034811095939434884  5.7465639573889339e-05    0.016165137638722644
     2   1        1.13458769147877      1.0720178807406942      1.7613247178679101
     3   1      25.510333759594804      2.5881210186179282      36.028985561386527
     4   1        1.40613623095788      3.7116851264767985      1.7983328782734251
     5   1    0.030026798007516304      4.9487913105203987      36.083069376238072
     6   1      1.2408225989727242      6.2552691295379956      1.7557372393559261
     7   1      25.505362622998916      7.7196711573814216    0.078733554736379691
     8   1      1.2465493509579537      8.9832807311449319      1.8472753373907829
     9   1      25.452069803387744      10.029348915602061      36.092699614600299
    10   1      1.2486788489804157      11.444132353139171      1.8222345871649277
    11   1     0.08043035303833819      12.865063358754918       35.90729477356323
    12   1      1.2402721183570904      14.062640233084538      1.7432357984783935
    13   1    0.017277187379147921      15.395925070857047      36.000976032895814
    14   1      1.3236913228627238      16.491968957048254      1.8015539269086842
    15   1    0.062192940386880467      17.890341923031723      35.940436333471382
    16   1      1.4579231295028199      19.176888540129934      1.6596687907648409
    17   1      25.441670839015899      20.532983288797229    0.021573008992891107
    18   1        1.13614231846819      21.805468504538762      1.7990719333507288
    19   1      25.488306182570835      23.119261588055789    0.062305961804395175
    20   1      1.2935509443709854      24.271442932251425      1.8513622559717993
    21   1      2.4704486883100203      25.355988414165555         36.072820308672
    22   1      3.8161429457565563     0.99066566332835027      1.8228363403772267
    23   1      2.6487081430708752      2.3912310097175782      36.055548323491131
    24   1      3.8839269711832065      3.7399107263425893      1.8539943735638196
    25   1      2.6706737672834917      4.8849846525101634    0.084392171543470298
    26   1       3.800946344207444      6.2864988264097752      2.0092674032806945
    27   1      2.5166568221653907      7.6761122060378302    0.053712297040306202
    28   1      3.7842900520692435       8.714731161022943      1.7542183468724362
    29   1      2.5395192585256847      10.168188510436998     0.10883762600141154
    30   1      3.8469158981824494      11.303942366081005      1.7595210632973584
    31   1      2.5589447246649999      12.803536422607555    0.078118137133196708
    32   1      3.9480291760880819      13.958301307459193      1.7687017426155209
    33   1      2.6819778710656559      15.226244352055021       36.02539630948295
    34   1      3.7352350480289389      16.409438733901485      1.7804235580141154
    35   1      2.4756387428867419      17.729433163633296      36.091574110756163
    36   1      3.8488190309478925      19.083541227524201      1.7487150859584728
    37   1      2.6735475971923006       20.40066445529807         36.009513571366
    38   1      3.6462362970723956       21.68102011949161      1.8295829809343094
    39   1      2.4707234715867692      22.762128428476409      36.024968178866096
    40   1      3.7346714856885725      24.155196312041909      1.8160846903332521
    41   1      5.0403900780751023    0.041358567391174668      36.096522537516606
    42   1      6.6233467879097159       1.286707682691314      1.8020447121312815
    43   1      5.2009492504545038      2.4928067523284541    0.086576212457646143
    44   1       6.481417100120284      3.9894702737700616      2.0001665219798377
    45   1      5.1218744950078534       4.944302325278386    0.057334813420561653
    46   1      6.2737123092391949      6.4714023927698552      1.8988825396800852
    47   1      5.0470692697374266      7.6107988022630249      36.068511217750604
    48   1      6.3076699833186209      8.9785313955289183      1.8641289796792548
    49   1      4.9769147289495956      10.139679074401606      36.078803683761826
    50   1      6.3847169369305652       11.50947089732705      1.7629399509366737
    51   1      5.0482534288417202      12.739697575836075    0.071442380117741885
    52   1      6.2790423037558503      14.225800331377744      1.8839080643482018
    53   1      5.2334463288877471      15.219374443382037    0.017879000351661047
    54   1       6.569627340127262      16.489346901685963      1.8625677698081873
    55   1      5.0260552266469318      17.709839522497472    0.048882181233977806
    56   1       6.256224052117739      19.209435418292117      1.6557875934180415
    57   1      5.1016837456483719      20.403453732284447      35.969321042910913
    58   1      6.1959246244532471      21.683428050422645      1.9066559323013177
    59   1      4.8672054651146004      22.887925618067602      36.035577528540934
    60   1      6.1799749098393946      24.219339816024245       1.793862386486307
    61   1      7.6381260959419732      25.498592800753592      36.065577993700551
    62   1      9.0260696539844361     0.99466842190290339      1.8433107085155598
    63   1      7.7711386489047687      2.6445653463753005     0.13293453432374908
    64   1      8.9666308803893831       4.031630294680105      1.8731232651565159
    65   1      7.4978165296222929      5.1896212700150723      36.099340501910618
    66   1      8.8984980255345842       6.584897832150677      1.8745865405185771
    67   1      7.5109176970938902      7.6361896938228622     0.14254750293806653
    68   1      8.8061683713465122      9.0349835353509551      1.8836855505204522
    69   1      7.6591343302239743      10.174209010274486      36.087781346310884
    70   1      8.9624604575405478      11.679990957073924      1.8605850745351984
    71   1      7.7303684313755703      12.750011039019746    0.065621689880231468
    72   1      8.7708682042478365      14.002636810899677      1.9399660582563678
    73   1      7.7456727308162252      15.290068236099581     0.12606652454778658
    74   1      8.9660722525039045      16.691141730471493      1.8771687355726143
    75   1      7.6497067585025835      17.804983212792525      36.079392007136363
    76   1      8.8794670303459977      19.234868304807144      1.8756267167978762
    77   1      7.4202731517429896      20.406961147703534    0.013963487998921654
    78   1      8.6605133398345373      21.718797618323041      1.7883051026701413
    79   1      7.6185023036982003      23.157698760666992    0.080963883819663379
    80   1      8.8599650324608419      24.217299148419695      1.9009091622949763
    81   1      10.214367535533109    0.045645021444754789      36.064292616475285
    82   1      11.443253617240039      1.2457021902811212      2.0235558954407229
    83   1      10.250984080932504      2.4805933543011154    0.082764731415068155
    84   1      11.527028793838078      3.6565188635291754      1.7160076615325024
    85   1      10.185688475798795      5.0382048726629085      36.020943060662475
    86   1      11.575292385827089      6.3248943927409025      1.8051880254837236
    87   1      10.234165302786483      7.6629549562044845     0.06214324127313374
    88   1      11.568487211072238      8.9368091346924015      1.8706874871087718
    89   1      10.167110526740723      10.381835260897001    0.097392229676575001
    90   1      11.433860654886203      11.385248255190065      2.0019942670699944
    91   1      10.313769841306458      12.808708010925239      36.080165220993131
    92   1      11.347913879235332      14.209579280688246      1.8873273193327349
    93   1      10.233763698942633      15.552230947725853      35.984658073336774
    94   1      11.297945077867301      16.700022443366734      1.6886654212818601
    95   1      10.151862930650957      17.979494786834824      36.083743343081942
    96   1      11.374034866592574      19.307972228402985      1.7357841689283875
    97   1      10.032078387262839      20.459545029096283       36.08820879161572
    98   1      11.442645590131271      21.832844801789307      1.7855169653230305
    99   1      10.046811869619431      22.947771949078124    0.035255729859397879
   100   1      11.336437883412785      24.214918073572214      1.8336218580769017
   101   1      12.608239363514688    0.096807002482500418     0.12008844683274432
   102   1      13.973596556335021      1.3790763646273414      1.9679538133419661
   103   1       12.62683090814312      2.4981078214578258      36.037202523000232
   104   1      14.205602231351405      3.9289377190520156      1.7133461473638822
   105   1      12.830897282812712      5.1663227378604049     0.18473791931113495
   106   1      14.243839575346191      6.3248237265150982      1.8041560926359697
   107   1      12.717343943708302      7.7231603346617392    0.046317688897545541
   108   1      14.067235065836483      8.8512265733959552      1.8338081783395883
   109   1      12.819900765452253      10.404324339483153     0.14760259742994303
   110   1      14.069840109430373      11.611835802736341      1.8033012163126498
   111   1      12.579820593548314      12.682690259859212     0.11186604708201447
   112   1      14.052650279890285       13.97216565269049      1.7150726144867119
   113   1      12.742804503900471      15.290217478968646    0.071962576211501358
   114   1      13.808726923887834      16.571456517264732      1.7983572754222685
   115   1      12.774404857743294      17.784262676671926    0.060374132625417902
   116   1      13.851867030162532      19.151086180105683      1.8325018577110868
   117   1      12.632403566040498      20.586479849793751      36.087807725380479
   118   1      13.986388288574975       21.77791597634533      1.8468160382215499
   119   1       12.69034844919935      23.074781161643319     0.18053554452692425
   120   1      13.829048814489319      24.280851456616269      1.8177339974811741
   121   1      15.173667048451273      25.511327397346644      36.025237506812964
   122   1       16.60698557668389       1.279630276243696      1.9418207203808708
   123   1      15.249426708883325      2.5434690045825707    0.049972633417928687
   124   1      16.639544203459049      3.7214267171736659      1.8415651715395724
   125   1       15.24926535914925      5.1185105488199705     0.06336965395614691
   126   1      16.664229759162204      6.4331335623593571      1.8627498656480723
   127   1      15.350154646308212      7.7619815401468228     0.12973000122278802
   128   1      16.596389867795427      8.9265945563110982      1.8680604633797324
   129   1      15.506754955525594      10.273556835149181     0.22004061020188612
   130   1      16.702555595403769       11.46138188841226      1.8073656207938247
   131   1      15.280226965603109        12.7992063849619      36.082385336712179
   132   1      16.553116823545789      14.127488900674148      1.7596151018671098
   133   1      15.211155512115891      15.268320575340422    0.027683186066360589
   134   1      16.601241275882806      16.670137250884409      1.7757438291583736
   135   1      15.181857740494085      17.786537074371644    0.033958809590365055
   136   1      16.561472320379057      19.276597182662648      1.7897218152129659
   137   1      15.165404288320682      20.383487539992441    0.049133443359608113
   138   1      16.450014892965918      21.782122392082705      1.7659029474306969
   139   1      15.312814530795485      22.989305176747632      36.091619327409724
   140   1      16.541024990459356      24.363858427678753      1.8773112858567069
   141   1      17.693899781468197    0.024481078033139769    0.073652982902001618
   142   1      19.196968005488579       1.275694262873589      1.7761524016455965
   143   1      17.707947653226899      2.5043787519913758   0.0044230184949583598
   144   1       19.15404647609558      3.9461264140038761      1.8055128261679088
   145   1      17.877578198461638      5.1481175754619981     0.12730340079297084
   146   1      19.130726444151016      6.5482384621001204      2.0461622756024447
   147   1      17.915253823374417      7.6835873578409597     0.13640573945790485
   148   1      19.177163809265092      9.0087875950012748      1.8029324056054616
   149   1      18.162342508967765      10.332469741353504       36.02423557337589
   150   1      19.148641234676401      11.471356099356475      1.8287010293843069
   151   1      17.897181370789593      12.833874127730912    0.016705186129820523
   152   1      19.046926244547425      14.069945768703064      1.7385478067500111
   153   1      17.869201404900355      15.363722439980776      36.072909563679126
   154   1      19.264992999018069      16.564466099970275      1.7764777265991727
   155   1      17.914018660088949        17.7776698761758     0.13451059407811955
   156   1      18.991221615856983       19.25645173181476      1.8510580243009476
   157   1      17.607315961858074      20.379403333723424       36.09651247295043
   158   1      19.001551525600803      21.842854203189717      1.8186842182233465
   159   1      17.688506837679203      22.973060672408355        36.0818702890002
   160   1      19.176435045847107      24.319053306116292      1.8984142153436341
   161   1      20.263723876636917      25.507533528847986      36.050579754972098
   162   1      21.711011287989084      1.2790327306088434      1.7338323895843257
   163   1      20.344793295811911      2.5506963388342516    0.015407214046945223
   164   1       21.73259483044319      3.7815824178908164      1.7648944562082185
   165   1      20.397207788738523      5.0390640850311765    0.046270046303266255
   166   1      21.675720938222351      6.4079181225058708      1.7839931629754471
   167   1      20.406459587138592      7.5553460276365225     0.14812388402274324
   168   1      21.863235386095365      8.8835290696948643      1.7737874405628535
   169   1      20.509303413024888      10.130653261275302    0.037035148387349323
   170   1      21.590101253306457       11.43642959506799      1.7287977418201779
   171   1      20.367712291077279      12.939107611337937     0.04157568776943215
   172   1      21.676645488663009      14.086673449710526      1.9939315595661695
   173   1      20.292379739362751      15.423355202505451    0.028371768911426908
   174   1        21.8708601087266      16.556150169952559      1.8260903372563444
   175   1      20.303642357615523      17.917665537800069     0.19612981802507648
   176   1      21.701038207136911      19.012168701688147      1.7095317130269665
   177   1      20.314459641441427      20.347639879736839     0.17174359182826043
   178   1      21.716206204597547      21.676525433942317      1.7538632307581667
   179   1       20.35065451883213      22.921044855819986      36.053617553615972
   180   1      21.759244923646545      24.206329342491284      1.8410912718846708
   181   1      22.996577915478042      25.386952798549153    0.058487883158488761
   182   1      24.123823389515341      1.3174126034520013      1.7981279322739967
   183   1      23.095740960661413      2.5821091096492599    0.020259077004493514
   184   1      24.187869212359242       3.767518778105901      1.7937354769486999
   185   1      22.923713810443733      5.0959612178558471      36.088726233640223
   186   1      24.229366060912675      6.4140507677808607      1.7546049642744721
   187   1      22.965799553543107      7.6166142394539502      36.013970405936192
   188   1      24.280345910252649      8.9588371254222476      1.8725953679750329
   189   1      23.051628634604526      10.061103317357434      36.036961505698777
   190   1      24.243038822136583      11.385329246638465      1.8028357035971796
   191   1      22.913410210995188      12.839880464174609    0.077824487489215291
   192   1      24.281467858927748      13.941991804272035      1.8011711845232317
   193   1      22.906369545583132      15.244050546874664      36.009918647230087
   194   1       24.30052864645106      16.514537983418769      1.7834330820280584
   195   1      23.030774441361249      17.796705933186008      35.997124515601605
   196   1      24.273400325367529      19.128944266294958        1.87051881018565
   197   1      22.950007541042552      20.314516506241695   0.0016975417332560033
   198   1      24.095145455235976      21.838176881718518      1.7924725183804997
   199   1      22.872336732440733      22.803371526206121      36.025692178537298
   200   1      24.188410698198133      24.375446296095017       1.918106607148774
   201   1     0.11728887540923447    0.079079604274460827      3.6666646820819317
   202   1      1.2807993094641161       1.214351938126059      5.3402549672834896
   203   1      25.457553085267616      2.5354467631084563      3.6028602271112624
   204   1      1.3263521603973114      3.7722872831144563      5.4479056133894925
   205   1       25.41801859817695      5.0208414983199292      3.6973425674041862
   206   1      1.2360356391478613      6.2648527302834243      5.4139315420288536
   207   1      25.443608575333201      7.6167045409472882      3.6349018022133408
   208   1      1.1887807323069106      8.9886830661166393      5.5949026129731587
   209   1      25.516029577768222      10.335343948393021      3.5895369295860386
   210   1      1.1992088632248323      11.393574700034758       5.276423684563067
   211   1   0.0019375640090793808       12.82147399718728      3.5034499508225614
   212   1      1.3167142366064497      13.923328318877322      5.4009108181570893
   213   1      25.484271959062916       15.38422693615113      3.5956466037929777
   214   1      1.3601570104666623       16.57000814398161      5.4057608541152549
   215   1       25.52452418419859      17.831454863189084      3.5990622285989184
   216   1      1.0984713891932814      18.967719050732242      5.5034081863406525
   217   1      25.502184259485574      20.308218198596428      3.5389633696108032
   218   1      1.3407589735537713      21.808905520318639      5.3424877718459696
   219   1       25.51856130771726      22.985256825694872      3.6273153569440688
   220   1        1.15422117534424      24.163022043770969      5.5359871512026739
   221   1      2.4481994363634199      25.293649930082694      3.6780595762351407
   222   1      3.7635869145052387      1.3155172770662373      5.3963543898416209
   223   1      2.6198678146649943      2.4603820951325055       3.423868852713281
   224   1      3.6950344829310895      3.8653690779566672      5.4891142641101736
   225   1      2.5618016439324669      5.0489376460345037      3.6939463970789594
   226   1      3.7759806842943426      6.3753348931612495      5.4509646957153155
   227   1      2.3840632690993053      7.5769213639581503      3.6093125954413838
   228   1      3.7160154270956021      8.8109218968160778      5.6058889918707848
   229   1      2.5246732943772638      10.109703779647628      3.6960227854677496
   230   1      3.6268034426116929      11.329964550602931       5.464430612752472
   231   1      2.6459462927251356       12.74738984891319       3.385731967900381
   232   1      3.7417020038248983      13.955871988272898      5.5809311819829608
   233   1      2.5329870517270905      15.255755861106477      3.6273029293262584
   234   1      3.7965546086082891       16.55484796610531      5.4628133430471815
   235   1      2.4778915916108724      17.850677817791905      3.6199759357233101
   236   1      3.7602630146664877      19.123838081592055      5.3868749030541787
   237   1      2.3854876511020113      20.401927939453874      3.6547967429269246
   238   1      3.7575758257728671      21.653559943141861      5.3380983933728992
   239   1      2.5279690049644703      22.937939294532477      3.5604544225301984
   240   1       3.791794562008044      24.286860060691367      5.5076564877888678
   241   1      5.1331232343183135   0.0070215184026777505      3.6131965275846172
   242   1          6.199389808387      1.3208660379002288      5.4980802468260155
   243   1      5.1445037421539492      2.5920168233184495       3.570688593629439
   244   1      6.3054200272948533       3.663267697666766      5.4434827218957409
   245   1      4.9824068210804153       4.978298717611616       3.894137526960987
   246   1      6.3951933445217515      6.2320736282248861      5.3904039110398605
   247   1      5.0295558081665952      7.5548973959223638      3.6603676478727052
   248   1      6.1672177238274735      8.8979415303353342      5.4364018122449993
   249   1      4.9662488955723756      10.274406451860177      3.7667745728009931
   250   1      6.2024740606322197      11.532943665758495      5.6003517471226063
   251   1      5.1692331559728437      12.668233577074833      3.5620209559786407
   252   1      6.2567958572889966      13.980298455312456      5.5186468055463758
   253   1      5.0605819030035821      15.275455729873794       3.693351068441376
   254   1      6.3930585675817682      16.586519213759065      5.3422188569085343
   255   1      5.1239723424220944      17.805119442140448      3.5129736822148527
   256   1      6.4771979545382683      19.194222836575253      5.5363349242006867
   257   1      5.0799313637417525      20.239629679320572      3.7123431824630653
   258   1       6.416345192349274      21.701221960439096      5.3993170462457245
   259   1      4.9892783372391971       22.76258555393126      3.7026831935255418
   260   1      6.3381042144320405       24.21278883894999      5.3799876511474647
   261   1      7.5972192762609403      25.461694449938719      3.6928120181440933
   262   1      8.7969176729389087      1.2189171354549324      5.4629723247028954
   263   1      7.5566800245473038        2.49208180090536      3.7247672302777413
   264   1      8.9342820240843217      3.8105666700657439      5.5011010267140525
   265   1      7.6003905894846451      5.1482356012807999      3.5934181073768294
   266   1      8.9256123813606205        6.42830803997962      5.2926590092949581
   267   1      7.5659353281828174      7.6967801705774566      3.7324171158939987
   268   1      8.9445365351115633      8.8887530976989986      5.4499723133605684
   269   1      7.4758920811557186      10.240480153671999      3.6633074375859707
   270   1      8.9151163383335739      11.363160635975857      5.3708247125508386
   271   1      7.5968250336943983      12.787545831793166      3.6747060902528457
   272   1      8.8657003202778544      13.873490774927095      5.3845518465199147
   273   1      7.6916500883287018      15.332773096441048      3.7215316233879201
   274   1      9.0051336860774818      16.650057705052998        5.57783831490024
   275   1      7.7331252141153151      17.907085338370347      3.5847372086568603
   276   1       8.968285246351142      19.322127221865642      5.4278359835493379
   277   1      7.6028637674803372      20.475793673125089       3.718890036364515
   278   1      8.9156456309139163      21.703729565313715      5.4932587346347832
   279   1       7.567195489800759      22.897015235872487      3.5619269965604641
   280   1      8.8323226985884631      24.227566066111926      5.5190179075327643
   281   1      10.162823703893716      25.461531698985439      3.7339161203935602
   282   1      11.541539758496898      1.3952696996916554      5.5983340261663033
   283   1      10.143907681822897      2.5897450166875471      3.5329325257782114
   284   1      11.520463183431945      3.9347916386496151      5.4157034025665682
   285   1      10.272509231690776      5.1798500134744065      3.5897707656059534
   286   1      11.440962613586263      6.3289109836249775      5.3829293331398462
   287   1      10.174704060277003      7.7417682729685149       3.691756441872728
   288   1      11.499257222495308      8.9358143639553251      5.5328777307130688
   289   1      10.121346313534442       10.13247401336281        3.74884467486461
   290   1      11.576288119450139      11.468252670945496      5.4290572244859563
   291   1      10.137465129576061       12.82936211689484       3.574648348723771
   292   1      11.467421294727243      14.032464165130071      5.4253162724691837
   293   1      10.274295211081451      15.349716385370181      3.8584165616997841
   294   1      11.638082242647391      16.687431039620137       5.443457399610053
   295   1      10.150103421733267      17.913653154225809      3.5822432998280989
   296   1      11.505230802932008      19.226094633093613      5.3802422844504756
   297   1      10.104398288820162      20.543400165673219      3.5372546378044043
   298   1      11.570256244143975      21.669812823973867      5.5612870622745563
   299   1      10.143573333889112      23.078661827924918      3.7714465327652813
   300   1      11.353917420463988      24.232879583109739      5.5573406002982857
   301   1      12.661293104605088    0.010859016010374643      3.7289157203938519
   302   1      13.982266191734009      1.1814707220334131      5.5323449609326705
   303   1      12.708356868274478      2.5821349952783725      3.6897619888974624
   304   1       14.00065500184883      3.7768194661580421      5.3543331185745107
   305   1      12.840841928944855      5.0834903151883433      3.4578349753081628
   306   1      13.927080012556695       6.405638145983783      5.4304054168137394
   307   1      12.636176386220924      7.6519838356724152      3.6316992810586814
   308   1      14.324526799551462      8.8437750703520699      5.5003002240236185
   309   1      12.859181140864303      10.150890211810934      3.6532531898034994
   310   1      14.021458133148863      11.574182584081411      5.3437752634619047
   311   1      12.699271090657392      12.826380949358846      3.5751250235634973
   312   1      14.043901881302428      14.054287949011345      5.4894976919041074
   313   1      12.685295031143239      15.310513737479363      3.5866247131354712
   314   1      14.061402820187521      16.561985448037476      5.2552217408947177
   315   1       12.68999352464518      18.052223269267241      3.6419011124692502
   316   1      13.997744490213107      19.206068372377707      5.4299830085896881
   317   1      12.793835450486965      20.539401880095458      3.6499256425665578
   318   1      14.116810777296587      21.591366487846344      5.5192785939447191
   319   1        12.6122891716872      22.983969595634228      3.7269278945713902
   320   1      14.053673280072095      24.267039978178161      5.3979455633315547
   321   1      15.219500347404091     0.12624362308768969       3.690687268205723
   322   1      16.588783701766257      1.4165703172893589      5.3693189574185656
   323   1      15.432353582234546      2.6949216438788546      3.5804946696779094
   324   1      16.685265500183927      4.0135360844785088      5.2625599476317326
   325   1      15.296962664490902       5.249907747359825      3.7795291059185376
   326   1      16.618617421430613       6.498514336747089      5.3741137409903086
   327   1      15.287460268359522      7.6602727479894268      3.6952943547592327
   328   1      16.687561133759019      8.9056613592952214      5.4767833212616885
   329   1      15.335192320378466      10.231921723768327      3.6995114722934637
   330   1      16.423430377586381      11.412309212206779      5.4571842235065562
   331   1      15.142839427121716      12.832019176431809        3.59024591047196
   332   1      16.562487260424575      13.928812383269976      5.4634506581838318
   333   1      15.322699115889403      15.303538368896183      3.5845941447494054
   334   1       16.62281123366656      16.507236222393693      5.2961758354611952
   335   1       15.44492268792146      17.948079260280942      3.6300736334059995
   336   1      16.447850560848249      19.219887766375717      5.4306806150259934
   337   1      15.150142645980569      20.549049243631487      3.5543399513751286
   338   1      16.677130115100308      21.738589246846729      5.3187354168182148
   339   1      15.332694349804493      23.180109493965759      3.6809352030180436
   340   1      16.656863049958513      24.389309870473749      5.4119181378415986
   341   1      17.927529701575335      25.475537145222479      3.6679211574402228
   342   1      19.155591487238294      1.2610454299266112      5.4034711129525475
   343   1      18.047466840316524      2.6007038258018791      3.5925351219273569
   344   1      19.220650649386478      3.9482259498123078       5.279400966278506
   345   1      17.928456921161114      5.1241671681006489       3.484088356637824
   346   1      19.212162386561467      6.5112536811391646      5.3510211951997775
   347   1      17.821179002099782      7.7465063566585224       3.642053632633941
   348   1      19.032251893423403      8.9403349342428289      5.3647097327629547
   349   1      17.790857351461838      10.217768038809256      3.7350718918324821
   350   1      19.027884341570459      11.565579203025655      5.4235667912528482
   351   1      17.918010568155587      12.772176546303095      3.5285988866506068
   352   1      19.024196931297286      14.155141778572867      5.4707782140026211
   353   1      17.900458236907546       15.20836096773791      3.4750403566154184
   354   1      19.092040728934371      16.603405731217887      5.3869248248287915
   355   1      17.899271960041546       17.86677940321055      3.5065963332868946
   356   1      19.158811146107904      19.147009411777013      5.4600108263183813
   357   1      17.671517280114951      20.516434571780554       3.615026227492081
   358   1      19.121983124092399      21.659274272683181      5.4144868184683626
   359   1      17.796473923550945      22.969567619871732      3.5626077713979276