dump/Fe_1350_5/steps_51 (written by ASE) 

1995 	 atoms 
1  atom types
0.0      28.699999999999999  xlo xhi
0.0      28.699999999999999  ylo yhi
0.0      28.699999999999999  zlo zhi


Atoms 

     1   1      0.2498538075367947     0.15372152430965094     0.20972532603727795
     2   1      1.6379863718027639       1.650545498900954      1.3869717207468388
     3   1    0.030650192769578335      2.7007619873895723      28.632117872190832
     4   1      1.4244827455754259      4.3994395740934422      1.3105625645242418
     5   1    0.016626512136453855      5.6961790580565497      28.414397124980102
     6   1      1.2010315501413056      7.0653834624726946      1.2319522262217775
     7   1     0.12598346989156189      8.6014218845120478      28.459958367832073
     8   1      1.2953705480871693      9.7616774131554678      1.3831237152781912
     9   1    0.029033569324874449      11.465869742671364      28.527142037741587
    10   1      1.3465529603631921      12.798936289711968      1.3427411962519831
    11   1      28.508529895759029      14.313122295726364      28.548270670174389
    12   1      1.3737752886746442       15.87815720297486      1.4038304265084762
    13   1    0.047346494897013265      17.147712785673356      28.673703943323545
    14   1      28.617295574471118      20.047637096907213      2.9583763293493899
    15   1     0.10842841472805381      20.050025521631078     0.10079733980037425
    16   1      1.7542539444151544      21.622011612033589      1.3010014470248155
    17   1      28.505687703039555      22.787211602871302    0.020769412562640345
    18   1      1.3426566319502533      24.213380834046042      1.3274313500232193
    19   1    0.015367853297677137      25.827159048843555     0.23784139952236946
    20   1      1.7580804017105509      27.246344621252206      1.2544477138204806
    21   1      3.1574722382328386      28.568143931386178      28.578433988902241
    22   1      4.3921316601952904      1.5234024121902046         1.4423951003772
    23   1      3.0240815613142811      2.8913723699454401      28.515982377731863
    24   1      4.1767614754217632      4.4799460648775336         1.4375688436548
    25   1      2.9295892895559517      5.6322694201030234      28.569325681133311
    26   1      4.5027293173537535      7.0276672745226652      1.1202916147404383
    27   1      2.8785712226300171      8.5284841144049359      28.589987083471474
    28   1      4.1476559581830399      10.043952302907565      1.3105838519987971
    29   1      2.8562447149451726      11.583593419652177     0.16185822226773314
    30   1      4.6598452273252109      12.871092343672489      1.4294259394362947
    31   1      3.0212700739795006      14.348357842468598     0.16305222814258968
    32   1       4.165467422418951      15.917467951389812       1.461333361766479
    33   1      2.6746593179683291      17.234887134971174      28.475244217554849
    34   1      5.6303242126031741       20.15893489958318      2.9201279286059014
    35   1      2.8000743553740564      19.831652036151905     0.13485535266214574
    36   1      3.9978636097251865      18.642854382288206      1.3942695705495562
    37   1      4.5691999774608005      21.541132120700937      1.6354976756414541
    38   1      3.1818567474076676       25.79313619843489    0.062802889903696257
    39   1      1.8346394845602874      24.322752747302378      27.509768375681166
    40   1      4.5511481186124909      27.117474970321755      1.5583769403579495
    41   1      5.6413477295745738     0.13611454067360004    0.061217440499354007
    42   1      7.1832805270971596      1.4120521555201082      1.3684105551237389
    43   1      5.7130599209823014       3.021395486122668     0.11381220231937722
    44   1      7.2232755159847883      4.5725307611888493      1.2419986032565369
    45   1      5.9016433645656647      5.7669521649695517      28.638129714097776
    46   1      7.1498892580731717      7.2035745336738728      1.1989684308650794
    47   1      5.7224357858106023      8.6265265850222619       28.69330161078604
    48   1      7.1997994517129973      10.075027829662156       1.357108545991458
    49   1      5.5950388866484904      11.425240944652014       28.63870824863206
    50   1       7.122977051888757      12.793145015747946      1.2467753030162152
    51   1      5.7661212839262816      14.294005188468601      28.631826201267007
    52   1      7.0601670956408249      15.854777896920497      1.1779629018209326
    53   1      5.5000192945857904      17.397252619512695      28.528247076072915
    54   1      7.0053570643272023      18.607360585761281      1.3420967880508883
    55   1      5.6913100401502534       19.91569904805576      28.563381730435175
    56   1      7.1286766490641114       21.30780821842874      1.4146018798240787
    57   1      6.0289230810039562      22.851918957388282      28.631277249112916
    58   1       7.168382097145102      24.129422352232325       1.391301736916466
    59   1      5.9057867836745812      25.907919824566871     0.12138243759053453
    60   1      7.3045411246909451      27.372175947778317      1.4399099816121732
    61   1      8.7048384915537831      28.554372330233495       28.61767942432553
    62   1       10.21076250109107      1.4735799550919406      1.2393117295503762
    63   1      8.5309761533859145        2.63440644100814      28.587776596273628
    64   1       10.33153692916097      4.2391993123154048      1.2907461066418231
    65   1      8.7324043654512877      5.8078967963816268      28.686562418778653
    66   1      10.265622597612422      7.2745492963776668       1.427560973768925
    67   1      8.7124206020291179      8.6003593375610681    0.016393896769943704
    68   1      10.331341663317149      10.159520830549011      1.5127367168711419
    69   1      8.6545332745475694      11.393468652039987      0.1461085443448383
    70   1       10.23217985393717      12.686522336217109      1.4340074280760293
    71   1      8.6552509263383115      14.096880356448519      28.469200368378285
    72   1      10.024878029594447       15.60611636062683      1.3659123727958886
    73   1      8.5944166848553145      17.315368341998088     0.15372926672818052
    74   1       10.00066079062311      18.614615278516137      1.4426345503140969
    75   1      8.5745854802525034      19.791774670911511      28.534747514739138
    76   1      10.010960800693727      21.439154104798128      1.3351860293949458
    77   1      8.4522011987731247      22.983554682635283      28.643243430507283
    78   1      9.8723042293980701      24.256397901929631      1.1649266126292792
    79   1      8.6752718625953431      25.979512370943446      28.671008307370997
    80   1      9.9683046442934646      27.157708844089193      1.3381918703565021
    81   1      11.699975012054106      28.549800677734428      28.606576512165958
    82   1      13.145299300980115      1.2914007680705131      1.4587073223332025
    83   1      11.718467579147784      2.7392537636637821      28.587758702595284
    84   1      13.411961020298868      4.4156667261227325      1.4284765406112672
    85   1      11.901292889565449      5.8552510086355065      28.673762032346136
    86   1      13.283202355740974      7.2341344297003651      1.4470885738589807
    87   1      11.586357028734612      8.4548499367461094     0.13923211502531097
    88   1      13.041086374158752      10.033335944494109      1.4504005341295276
    89   1      11.700131213910966      11.570136623577833    0.090063606111504976
    90   1      13.073779233624943      12.991123948712533      1.4148059779734012
    91   1      11.557236869821724      14.244420361486757      28.656630218765322
    92   1      12.933276251328913      15.866538624268014      1.5987073485530345
    93   1      11.576207253020016      17.393996255291849     0.24791194651747891
    94   1      12.859153103247019      18.797723032807333      1.6330605805686331
    95   1      9.9718633752564187      21.420920482934694      27.333117816757525
    96   1      12.896920336054368      21.544919201595125      1.5813781254509542
    97   1      11.404938580959262      22.854526797980547     0.12284859187747083
    98   1      12.805962872740581       24.26489883872496      1.3510361164622864
    99   1      11.470036917556003      25.836186414676757    0.053637398389207537
   100   1      12.791389280603358       27.30118499120881      1.5184663480993985
   101   1      14.529956195002672       28.62429404582727      28.588564117775647
   102   1      15.832587955142589      1.3090906810065575      1.4033616856551019
   103   1      14.477283121499365      2.7342601114426297    0.092906289980464948
   104   1      16.073602207229289      4.3963161884642963      1.3846267921455588
   105   1      14.612862261928436      5.6961199721289759      28.567295476079199
   106   1      15.857631769987348       7.168933404277956      1.5574415697788151
   107   1      14.582141551198568      8.5802098296003102    0.058330470545081323
   108   1      15.774508339769627      10.028604707559499        1.41523694881896
   109   1      14.407136543565024      11.413069519407706      28.658821578214191
   110   1      15.656140785515792      13.031436284728951      1.4928886216257626
   111   1      14.466927696474933      14.603209449241355    0.054432975157976717
   112   1      15.852791881392012      15.742202800656269      1.5172379325283265
   113   1       14.42219172792799       17.37103540354375     0.32385686057391438
   114   1       15.88187201510326      18.828921437769235      1.4124947672412065
   115   1      14.273334449394167      20.191858193444475      0.1534149397921509
   116   1      14.229612011770609      22.995123287923828      28.632201520485754
   117   1      13.083861240076695      21.573754422387474      27.395281631009581
   118   1      14.228538613130269      22.837506905499474      2.8802088543047568
   119   1      12.788684502877341      24.468654305328279      27.071137391294346
   120   1      15.911992975348396      27.024145250660741      1.3645174738125985
   121   1      17.161399252749206   0.0046053942078873701      28.504509420937499
   122   1      18.666677059111262      1.4884567066617136      1.5503435150894789
   123   1      17.274454128306459      2.8397778930719495      28.604674610498211
   124   1      18.522840356627963      4.1955483273760317      1.4701880086269865
   125   1      17.316415162057009      5.8012414594058583      28.426032120353813
   126   1      18.646258608484075      7.1272027679385737        1.77614746742389
   127   1      17.342449061856779      8.6857486220209665      0.1111334111016162
   128   1      18.857032602451167       9.933914082227643      1.5380787910635705
   129   1      17.082746616693122      11.531065623643796     0.23237878424054079
   130   1      18.559373955958598      12.969498085246471      1.4738542488846418
   131   1       17.12230785517151      14.390378245071712    0.020883247862968787
   132   1      18.611927944547908      15.837337211685393      1.6477102567562723
   133   1      17.084768343724413      17.303729049859566    0.064984489034748072
   134   1      18.707036408506411      18.672058403704561      1.5111791908554222
   135   1      17.141184051506205      20.154890998469636     0.18152830135169337
   136   1      17.297884858937714      23.075450311557596      2.8792159472945333
   137   1       17.13705128270913      22.692971992114671      0.1295822845910152
   138   1      18.675787124516354      24.371449045975382      1.4777402982448267
   139   1      17.392289825782083      25.643493821389555    0.052810727943142462
   140   1      18.752244516758683      27.346237565612789      1.3667567816055439
   141   1      20.382885768681536    0.095962300213875418    0.096978689080185684
   142   1      21.667629155265494      1.3846328999799871      1.7029685520095759
   143   1      20.007491727094791      2.7649495671491313     0.17412398309791119
   144   1      21.544017030062044      4.4350869571766234      1.4336091340993093
   145   1      19.922524685620843       5.774331101741633     0.10863155779676399
   146   1      21.360938341427634      7.2569244500420256      1.7237230297572077
   147   1      20.188101599820882      8.4767076736151683    0.067440690933767644
   148   1      21.412637546058189      10.016427572423131       1.535439465811226
   149   1      19.991843297860751      11.585611748431905     0.19817273325104448
   150   1      21.625059766240593      13.018233096446089      1.5502258254682018
   151   1       19.97799792842887      14.325971239485645     0.10820305109552925
   152   1      21.551716544949709      15.890995171756156      1.4567303512517589
   153   1      19.848122801277302      17.155669968919106    0.053756553058860804
   154   1      21.416875993963515      18.751279643821469      1.5867666080561649
   155   1      20.113685564520338      20.136462924001986      28.688948219083947
   156   1      21.598582131304145      21.469743129058848      1.7123978930743533
   157   1      20.063862935944961      22.778966010489469      28.678000637094868
   158   1      21.547918608548684      24.308540054494497      1.5940976102173532
   159   1      20.106165363786456      25.700887938609522      28.643239791478109
   160   1      21.575081626310798      27.264860736636109      1.4904512157146099
   161   1      23.075333039109704     0.21509653146436153       28.63718998227414
   162   1      24.655305623742297      1.2155981438627572      1.5009406312463067
   163   1      22.881625308159844      2.7725063523936688   0.0025515493449461226
   164   1      24.327695487720437       4.279842808902572      1.2885867342184611
   165   1      22.904263824046872      5.5167525925568492      28.550325961629603
   166   1      24.166701564819327      6.9989224004270625      1.2552527302476626
   167   1      23.014969432679603      8.6140632512072006    0.073401784019995225
   168   1      24.418039240865081      9.9344507019710804      1.4852334439386143
   169   1      22.910779376145886       11.55909548926053     0.14216748826083841
   170   1      24.307040068319488      13.072548482190264      1.4230126207722706
   171   1      22.881406847310068      14.438807712698598    0.061141396594575695
   172   1      24.403040189930504      15.892823413659301       1.747460357506929
   173   1      22.887596319839655      17.302703658629987    0.074263140499635796
   174   1      24.354615569514618      18.503626586593324      1.3865356906857638
   175   1      22.901409984019235      20.250320244254137     0.21353056067061957
   176   1      24.434677763742961      21.361834296194015      1.5797525483371948
   177   1      22.927165082695897      22.991439823786067     0.13898743061093899
   178   1        24.4697405241028      24.344150608238618      1.3884465352683368
   179   1      22.999068810344244      25.799385084341349     0.12461708580885887
   180   1      24.444035253172949      27.306120458374632      1.3083689338187237
   181   1      26.134075968620039      28.597397732362456       28.66129645512089
   182   1      27.381376881427641       1.115695695527221      1.5067401636980768
   183   1      25.773941323929979      2.5310096462224263      28.527267347923516
   184   1      27.249756217974543      4.3714980521982509      1.2757508203921943
   185   1      25.760127624394549      5.7425829059703322    0.092907368411692781
   186   1      27.348041816899304      7.2123415534210134      1.2495926502736778
   187   1      25.651994914767265       8.578679016708044     0.10327114639861734
   188   1      27.308679672385303      9.9551262667676692      1.2321615982111433
   189   1      25.882451532580934      11.566259902421631    0.081023985664523859
   190   1      27.380493703223831      12.895102931259078      1.4786854457853793
   191   1      25.877573038250855      14.259089215450464   0.0072397386631450761
   192   1      27.298868256411478      15.770494499271564      1.5279562869973677
   193   1      25.874653748134673      17.342027696469412        0.11198553154843
   194   1      27.484105108620152      18.599622048986724      1.3125030015968246
   195   1      25.827930331645554      20.144569394386519     0.13870542405867348
   196   1      27.313980086085813      21.577019703740405      1.6355255059714051
   197   1      25.775177771399562      23.039776288483605      28.687988564735946
   198   1      27.176032471969332      24.315317534203825      1.5072703763419557
   199   1      26.027074109811871      25.828241023984916     0.22834870666730472
   200   1       27.13777283481831      27.369381261665474      1.5565968882828882
   201   1     0.30467819671864699      28.653365152257155      2.7580748866317091
   202   1      1.4287259174912716      1.1989491464211712      4.2217183884940166
   203   1    0.064760595981068036      2.7911177279465291       2.785929013405986
   204   1      1.2173235588123252      4.3771209826012187      4.1543688189236558
   205   1      28.463388576085695       5.645187808334529      2.7255806676773422
   206   1      1.5378997515080404      7.2495691150409174      4.0596978705422284
   207   1      28.688039373197615      8.5629293472782564      2.9798169812003166
   208   1      1.5323488340728768      10.020105988755423      4.0777323314687646
   209   1     0.11579759603087114      11.468925464716889      2.8389895371807472
   210   1      1.4580101159569627      13.015276626682295      4.4202581377902117
   211   1     0.12648489505625185      14.395961962145558      2.7433395548393156
   212   1       1.264909514508133      15.639560377882116       4.244039191060299
   213   1      0.1012145818022204      17.371355843733735      2.9381936905353725
   214   1     0.22372071033255603      17.075536934655027      5.8387528753151079
   215   1      1.4391026305221117       19.00011950607076       4.411023107469072
   216   1       2.814858888035634      20.234831743067325      2.7333189367153183
   217   1    0.025058682106522817       22.91564683297598      2.8895399844795913
   218   1      1.5292006453607783      24.456754042679737      4.3107515910764036
   219   1     0.10076185116393122      25.953663022368904      2.8167425237299977
   220   1      1.7473821008477222      27.404260692351329      4.1490122614027145
   221   1         3.1527660793384    0.030496939333397775      2.8152745508624557
   222   1       4.359447356266581       1.581111559498539      4.3053485071645294
   223   1      2.9749730234702483      2.9248844623228609      2.7149990665279216
   224   1      4.3542544583537293      4.3055458549925341      4.1504145842627009
   225   1      2.7322155550524365       5.927219343140969      2.5982723421182183
   226   1      4.2208868324792954      6.9696906553453672      4.2076246037165443
   227   1      3.1015631707284195      8.4829020473618382      2.6991216967447262
   228   1      4.3093890386968337      10.188913337998567      4.4754882038869592
   229   1      2.8259074058359941      11.426757756161113      2.6819733489868551
   230   1       4.248957731173852      12.817771388593529      4.3155410019597182
   231   1      2.6940943161156063      14.145564488505793       2.850393902540679
   232   1      4.3656131499901836      15.814443002391192      4.0319020337292031
   233   1      2.8428209310914885      17.216169071099383      2.9641695455611425
   234   1      4.2399009579695743      18.835229359897571      4.2102029461891064
   235   1      1.4145046525219296      18.625256434893203       1.396031709413444
   236   1      4.2251646966998413      21.674482449024239      4.3695643880191302
   237   1      2.9403385934044382      23.196168830005202      2.9156843534896248
   238   1       4.334978463367106      24.446655716933194      4.3219622989729611
   239   1      2.8081496478941874      25.833591674481212       2.903063111259184
   240   1      4.5730474333152804      27.327283150337017      4.2781873588992427
   241   1      5.9832522700162381      0.2115304549876669      3.0207329073919773
   242   1      7.5132480238114958      1.4952246072371729      4.1282162043824959
   243   1      5.8287218212852014      2.9060509265763241      2.7122196716857943
   244   1      7.3708604393956954      4.2044565936321776      4.0704390078750823
   245   1      5.6420687888604366      5.6725568704644953      2.8795107077622202
   246   1      7.2530185909741105      7.0929828761386817       4.145542079444426
   247   1      5.7379254320585504      8.7015969140423444      2.7472796956131211
   248   1      7.1192560880998128      9.9106923336796999      4.3330792941088472
   249   1      5.7305220955425602      11.345465844356063      2.6079205613693039
   250   1      7.2898911255860535      12.671458687091414      4.1611926281588536
   251   1       5.823759916122766      14.574527866159615      2.7641797234790144
   252   1      7.0174182067689479      15.719813356331588      4.0206546203630174
   253   1      5.9020221433066888      17.323362556939195      2.8904816652495025
   254   1      7.1569227173545835      18.480177724364349       4.339749794322592
   255   1      7.1969560312380603      21.529277058550644      4.3807361634102913
   256   1      5.8727734742299944      22.948233010743465      3.0424089183473764
   257   1      4.4993759912050519      24.424311978676254      1.4630617005220978
   258   1      7.5480058167199378      24.680337083811491      4.4545455437238433
   259   1      6.1356237464327945      25.638524763702197      2.9149208926274257
   260   1      7.5299047843970062      27.422578383652283      4.1956384982300383
   261   1      8.8545406436358682    0.033611123593823442      2.6959375042535942
   262   1      10.251575972302824      1.8092983309899067      4.2406756561398362
   263   1      8.8810487489970455      2.9002400349732644      2.6496216340815306
   264   1      10.133641996201282      4.3926096486253208      4.1454923855382129
   265   1      8.5880446927721312       5.806810907813488      2.6820963974150676
   266   1      10.004216336223205      7.0208482361062599       4.042297794927415
   267   1      8.7558837502055109      8.7940107706531538      2.8099814172595305
   268   1      10.197287906999129      9.9185989854911902      4.3953178521932497
   269   1      8.6594919935966921      11.388388528318524      2.7641467396219568
   270   1       9.954923085305424      13.007927338050731       4.347139548172116
   271   1      8.5856761962809429      14.599040399120646      2.7731615131664062
   272   1       10.00964872103083      15.760796530865052      4.4190513500082842
   273   1      8.6111679922285109      17.134038989810442      2.6551546064474221
   274   1      9.8581965420256168      18.694011087985732      4.0440754682459268
   275   1      8.6162694226457823      20.160252084835946      2.8448683146269218
   276   1       9.989120202313682      21.436333303798442      4.2384953847417126
   277   1       8.744374680512264      22.852558936677422       2.732799021510139
   278   1      10.136713406905214      24.304378340980033      4.0760949000948239
   279   1      8.5828036298057384      25.733563533612724      2.5006427806283664
   280   1      10.048233017954846      27.313943693242521      4.1021430927284106
   281   1      11.361424738018769     0.08483229406929256      2.8138146809802929
   282   1      12.865122242415193      1.3712048787185716      4.0021584335184581
   283   1      11.826844176723917      2.9305805417134971      2.5471566486785262
   284   1      12.926689252444879      4.2795598928903296      4.1747261202958557
   285   1      11.661841018771156       5.722551958873475      2.8180728056272524
   286   1      12.803486644065444      7.1743353649438992      4.3004333323611998
   287   1      11.494545577487076      8.7746165917324408      2.9515758755819959
   288   1      12.913701845652351      9.8774066919505117      4.5172939319413778
   289   1      11.544141161269186      11.692371620489524      3.0290421142172375
   290   1      12.951009094488631      12.959464978842373      4.4411161994475252
   291   1      11.576296953565711      14.302146877318933        2.96338123362001
   292   1      12.824358598842558      15.771954314622324      4.1772727686031761
   293   1      11.225393323360114      17.297559285541418      2.8145808788655819
   294   1      12.883588341406311       18.61740970070991      4.3079883017430491
   295   1      11.356376381915009      20.036750895056226      2.8216288151731428
   296   1      12.985902182056886      21.430969219514544      4.2174683937604192
   297   1      11.342734498949733      22.799247682340571      2.9320980713251559
   298   1      13.078726004402457      24.238914872821056      4.2856312674185189
   299   1      11.436272344235199      25.800501307095455       2.801341261734275
   300   1      12.892570152285652      27.162955253976083      4.2149699725360028
   301   1      14.575383507578916      28.410462272631111      2.8480362034358451
   302   1      15.583063441939281      1.4493204358132408       4.465512348665869
   303   1      14.527213026208869      2.9274210231567062      2.8668800378511583
   304   1       15.87596269411279      4.2999695534784781      4.6229493890817954
   305   1      14.466400800336125      5.8273853319953197      3.0817765242250514
   306   1      16.108146737571037      7.3609505030281133      4.4862398303389668
   307   1      14.702509331425476      8.5465046925645964      2.9273231005883997
   308   1      15.931075376747728      10.155609593505135      4.2983210479403313
   309   1      14.388912030230253      11.408236861710039      3.1112025839102779
   310   1      15.705499147307059      12.959933161441642      4.3467658162217937
   311   1       14.27098451794572      14.433811017953973      2.9872412018942147
   312   1      15.496213808825193      15.754279591783718      4.2911359435379319
   313   1      14.293214092457909      17.371872041956266      2.8058822326247514
   314   1      15.968482690828052      18.950815190046356      4.2365736368814568
   315   1      14.349312195880557      20.224260107153377      2.9758152190686942
   316   1      15.589847095623464      21.796478284523015      4.3899553480795186
   317   1      15.630136416793407      21.581741789775485      1.6367988692575959
   318   1      15.702931524468061      24.702930718893899       4.274038457296685
   319   1      14.454704798458749      25.637288159350099      2.6606180451064469
   320   1      15.860554558618064      27.210721630800016      4.1032517177501528
   321   1      17.267481824260773    0.014595200754070158      2.9126070139524098
   322   1      18.857733849970479      1.6326287877880423      4.2185779968917076
   323   1      17.081330850560519      2.7228769889024069         3.0913754508697
   324   1      18.611643074809379      4.2712508697091955      4.5193465257768457
   325   1      17.049461943963696       5.640561641262833      3.2323932645211726
   326   1      18.761632030469457      7.1329699791973962      4.6158634179206706
   327   1      17.500897791788812       8.765698683980327      3.2208260854306752
   328   1      18.600637255935201      10.198577459449332      4.4964178415856519
   329   1      17.332120994592866      11.523898760769798      2.8592895483238867
   330   1      18.935039818752816      12.866945418720757      4.3772742489777148
   331   1      17.278255092055637      14.460165682286837      3.1170168675721079
   332   1      18.730541383686322      15.910964597950656      4.4849279598255984
   333   1      17.204395327261629      17.458061734307027      3.0892554881706826
   334   1      18.634447685674115        18.9886491922212      4.4215936918145369
   335   1      17.276381950694351      20.285936614943218      2.7199209106989328
   336   1      18.355775541556522      21.595219418491638      4.4482549956497923
   337   1      15.659019302476279       24.26486232193723       1.352161870360806
   338   1      18.639058661496577       24.42624359835111      4.3024865543859132
   339   1      17.487826241731128      25.755266060647102      2.7729947956637266
   340   1      18.722194810045476      27.352953699182503      4.1765481322113915
   341   1      20.110584099197993   0.0092959031343527281      2.9514546374925223
   342   1      21.634162781719926      1.2165476066389038      4.2478664189862787
   343   1      20.156169407982084       3.073595739422025      2.8766059318747841
   344   1      21.910450500075076      4.2406664904728242      4.3729991112218114
   345   1      20.084050229699056       5.312596454845151      2.9596635512348315
   346   1      21.591022169228999      7.1415537048449655      4.4469729126283859
   347   1       20.22950005324607      8.5375790729208365      3.1243181451907245
   348   1      21.766868326638313      9.7682167436218688      4.4212857180666303
   349   1      20.115104857903049      11.258207455765861      3.0606580818436253
   350   1      21.509682325328658      12.739651383992118      4.4241307496693025
   351   1      20.180748916549696      14.380485329421949      2.8782598332625926
   352   1      21.733527493144702      15.666508609543239      4.4147397208721513
   353   1      20.073305886238778      17.371355173943645      3.0004891099260567
   354   1      21.514278648021232      18.825047333287323      4.5229709604271671
   355   1      18.699915888441204      21.457761109229942      1.3154227695224785
   356   1      19.998155255699565      20.233915994727777      2.9399956399600602
   357   1      19.975172984558153      22.698563408299734      2.9495023932943312
   358   1      21.710575402406352      24.501482993498339       4.239995846536841
   359   1      20.029801975386839      25.814825108132137      2.5484937645099199