dump/Fe_1350_5/steps_11 (written by ASE) 

1995 	 atoms 
1  atom types
0.0      28.699999999999999  xlo xhi
0.0      28.699999999999999  ylo yhi
0.0      28.699999999999999  zlo zhi


Atoms 

     1   1    0.027215918865923731       28.47046819066863      28.600750513119028
     2   1      1.6454451149589422      1.3442707773282108      1.5487513451174102
     3   1      28.696134673594006      2.8272832104178742    0.083842127234049768
     4   1      1.5555029106615625      4.1179454632092272      1.3887397932468724
     5   1    0.064862537736941922      5.7344371571603165      28.556638208062537
     6   1      1.3498033712503015      7.1219435132310531      1.1263734589675078
     7   1      28.585769010569138      8.6866879334899583     0.18032244340924988
     8   1       1.495101722957781      9.8542381055998867      1.4645669994135451
     9   1     0.19635691969339245      11.436552721126954     0.06161101615265363
    10   1      1.3128071845246398      12.817707174242921      1.4894097849829462
    11   1    0.067127521738146192      14.477137448623402      28.594602714282932
    12   1      1.3618838464190632      15.777681816849286      1.4399746897045687
    13   1     0.23364614361613689      17.450771024004073     0.53014555511687222
    14   1     0.28127627288896645      19.754463036783775      2.6485128714147996
    15   1    0.060280244070068614      20.282671041875279      28.692995733757162
    16   1      1.7963619653481386      21.694179176402844       1.318781128428542
    17   1     0.33158685322109005      22.999472069466336      28.597984370627675
    18   1      1.6140479958598826      24.508790967637761      1.3942919196159651
    19   1     0.12117979025394053      25.839983914223108     0.12456791685650612
    20   1      1.6774204483179032       27.26692643634328      1.4870348058221796
    21   1      3.0116916710437707     0.10044763020404331      28.570378239488722
    22   1      4.3338766042433354      1.3979861387496282      1.2734636962424468
    23   1       2.857862786354167      2.8764776228731237    0.036885146738575382
    24   1       4.411411421119805      4.2662106738074899      1.2399556035834283
    25   1      2.8178550752069347      5.7836012207273733       28.59928968982355
    26   1      4.2930228028548969      6.9464902782632976       1.478586630377891
    27   1      2.9044460836881556       8.580738752190209      28.557000762255996
    28   1      4.7954190279042876      9.9236255210943636      1.2501992117517162
    29   1      2.9959620331798935      11.083610994475224    0.011607491599056644
    30   1      4.4499366515071763       12.62628958332545      1.2388130678016755
    31   1      2.6705105249423804      14.489332261085947      0.1981844813393307
    32   1      4.2393497055475304      15.570476011416419      1.5197630327243703
    33   1      2.7804887903184197      17.330072426441255      28.586266544293498
    34   1      4.4161600175369804      18.716507170649592      1.1968993068788663
    35   1      2.8670269773704291      19.956945086290588      28.561955811731128
    36   1      4.3244267274526935      21.505136005866685      1.2246216117968869
    37   1      2.9255199155236715      23.034043043654904      28.569507346448411
    38   1       4.354843277040545      24.532775756993445      1.2108518605314877
    39   1      3.0687464199452443      25.910801577529082       28.42704788000146
    40   1      4.3974408045875695      27.385368973683338      1.5503480651333568
    41   1      5.9582460953095566     0.17884352589809402    0.053412211770773967
    42   1      7.4074561969276909      1.4369197482248863      1.4211099608628501
    43   1      5.7207204716500408      2.8499033416761104      28.407546437263751
    44   1      7.1138774802294487      4.3444262441304211      1.4403634278243429
    45   1       5.731958014493685      5.8379730677701165      28.558804026514082
    46   1      7.2755113541702823      7.0693066010059766      1.4727381197830243
    47   1      5.7717888571378051      8.3097382214357829      28.551327227902792
    48   1      7.3656546955169935       9.750398466748198      1.1957091274572786
    49   1      5.6415306000795118      11.333811144392657      28.462654462232582
    50   1      7.1893466194129383      12.772612046323255      1.1570160450352327
    51   1      5.6256230893308405      14.334369140344274      28.524067150015259
    52   1      7.1670552836531414      15.551257738537727      1.3114480268303967
    53   1      5.6917687852347614      17.140028968149288      28.674278514602992
    54   1      6.9944618760224468      18.627688966162886      1.4703210694154676
    55   1      5.7866044262893892      20.017720965430101      28.459102022157612
    56   1      7.2605330885438333      21.320883082704292      1.5105724710004778
    57   1      6.0178225139906978      22.851257927429728     0.11010745501398551
    58   1      7.3716817739528322       24.56793822714657      1.3323056001328273
    59   1      5.9050136073093036      25.932695314444526    0.017812976823461214
    60   1      7.4351474601025922      27.345533224673403      1.4404457457418387
    61   1      8.5433898584596388      28.697476624895206      28.471298816134183
    62   1      9.9706433391353233      1.4218109325537835      1.2793273342202394
    63   1      8.7542286252468173      3.0513966748080357      28.655163959928093
    64   1      10.108491135319152      4.3424740592403772      1.4461559294606221
    65   1      8.5628887888090901      5.9882214501928361      28.548996693489745
    66   1      9.9897633403737451      7.3049422997341207      1.4821932245385836
    67   1      8.7655883620077173      8.5976842305086052      28.255700876992169
    68   1      10.007734770433698      10.058468469079459      1.3082371451420038
    69   1      8.6687977134922729      11.553321483847784      28.608651125403075
    70   1      9.9917770583201371      13.044561142753391      1.5055085088167965
    71   1      8.7233381635548888      14.180045174016948      28.463095331894181
    72   1      10.089022687848541      15.664160591329585      1.4719472965173153
    73   1      8.5190268561476117         17.201046191621    0.052930841670775011
    74   1      10.007291845241188      18.431621782317237      1.4519992230177421
    75   1      8.5962905041180253      19.870796745243005     0.13259542161512156
    76   1      10.133487543812128      21.728151395091484      1.0174885750937375
    77   1      8.6019557068181847      23.020367921462064      28.552304982959484
    78   1      10.092247101815779      24.595296880987092      1.4140197364106377
    79   1       8.588634778474205      25.899652296598518      28.664033203804653
    80   1      10.020193736149116      27.275434618513387      1.3388979971145871
    81   1      11.701399590967497      28.370985420779618      28.677047615202341
    82   1       12.70873347785326      1.4174151080192701      1.1378109645874024
    83   1      11.409540141049549      3.1776517037988357      28.469621399611231
    84   1      12.972637326514953      4.3943095895435489      1.2269472219296504
    85   1      11.393154353516524      5.9366592176469437      28.541831526866989
    86   1      12.954216412696651      7.2246979476740734      1.3407698169194293
    87   1      11.352187067909604      8.7480586955758604    0.055711157128427967
    88   1      12.863948255136584      10.000704102899267      1.1757022302329914
    89   1      11.530725814780418      11.565522451990628      28.564660084828944
    90   1      12.914403811414493      12.851504020013506      1.4233419775168281
    91   1      11.700523391951693      14.178285908920627      28.601745240008459
    92   1      13.106488714150339      15.770086968580092      1.4878635713917665
    93   1      11.395291160164005      17.153166501514061      28.456418099743434
    94   1      12.843956792955574      18.503757327917111      1.3389770905970415
    95   1       9.711538146248305      21.414353101702734      27.315107388831521
    96   1      12.923356545582665       21.61831267319959      1.4662949900793021
    97   1      11.613932994859519      22.890008393622399      28.618088660797298
    98   1      12.872256490903229      24.413726100306238      1.5276677554242384
    99   1      11.555107995318757       25.97821798980193     0.02631310121770411
   100   1      12.960227674548996      27.473982437210854      1.6441813063550856
   101   1      14.546529508244939      28.513547288371715     0.10472633316310283
   102   1      15.905357913863112      1.2358343131966769      1.7422228833697211
   103   1      14.448906284363293      2.5721118664965736      28.451919701361479
   104   1      15.874712910234258      3.9195814940007119      1.3765473288573735
   105   1      14.411310183284689      5.7121435973600327      28.641718668273569
   106   1      15.536111008531579      7.2124046671597961        1.51221281783421
   107   1      14.368139230091936      8.6165939456416538      28.664341214986809
   108   1      15.846377353089313      10.190699972670082      1.5900564772606576
   109   1      14.257150956027701      11.651626028742106      28.688137708328927
   110   1      15.604464658903051      13.150739486848792      1.5725496801636818
   111   1      14.114122406242194      14.489348067626501      28.626696713150729
   112   1      15.644887431302616      15.934228860883383      1.4626374064605905
   113   1      14.338493120440113      17.260580486586885    0.050213958852634757
   114   1      15.695124016417143      18.569233789054504       1.599344972245069
   115   1      14.353277322373238      20.141762283507479    0.078077207471096755
   116   1      14.389327990912657       22.92625874495943   0.0096567742762658851
   117   1      13.178761691477003      21.542485186907445      27.242958169477269
   118   1      15.938764450345854      24.293423537816501      1.5393476811124858
   119   1      14.422763586513478      25.899812813149389     0.13193568633720354
   120   1       15.92033017572577      27.234370364864116      1.7098791639596935
   121   1      17.320840205982247     0.02221147671066321     0.20761046031427674
   122   1      18.546668379575411      1.5250277347360892       1.489027718031922
   123   1      17.197149887623681      2.7614298183189478      28.581833421415155
   124   1      18.472741402177174      4.0513776542021249       1.536424630399654
   125   1      17.053211591066539      5.7709349067688578      28.561749764983023
   126   1      18.558694509340203       6.902822542150278       1.528470428251693
   127   1      17.024899140714144      8.3951953289851193     0.10548737217027333
   128   1      18.527304890258822      10.052080017766036      1.7031770842195899
   129   1      16.955756857047156      11.460325356123587      28.658555095225299
   130   1       18.46319612032913      12.809043811459867      1.4906684517405666
   131   1        17.0338033336559      14.457824825414191     0.18301517201336981
   132   1      18.900684764162932      15.802792142366231      1.3595538285336604
   133   1      17.287119738659079       17.14326846646621     0.13342939585986652
   134   1      18.545866662122215      18.743149485025267      1.5110646861467427
   135   1      17.200256568420894      20.165871145318455     0.25277383905199713
   136   1      18.681528348970065      21.592370479371134      1.6873909585924822
   137   1      17.326722770029701       22.61722701329635      28.698983276998877
   138   1      18.671841215364594      24.373480072902534      1.4768979232341379
   139   1      17.309134495336181      25.999604421175409    0.048116502830146124
   140   1      18.856174584667002      27.095607884617916      1.3105904036670499
   141   1      20.070889362857809    0.031709317200193127      0.1436520940316087
   142   1      21.282384565466483      1.3954769130813578      1.6005389783874764
   143   1      20.007387293095249      3.1179740760002272    0.047857175873696242
   144   1      21.649553842689787      4.1470755462559445      1.5226947250313188
   145   1      19.996043096016024      5.6870570067596127     0.11559122247459744
   146   1      21.352564761620389      7.2620678197244937      1.5738690697495705
   147   1      19.915197623311975      8.6183407984031213     0.11799618148970689
   148   1      21.550011231311952      9.8492351890605807      1.4569309860041917
   149   1      20.120449338069015      11.395185082685945      28.637156899338521
   150   1      21.534108084091727      12.920696651219364      1.3363683020109984
   151   1      20.008536780827054       14.11092457661195     0.23083507612699344
   152   1      21.444125466363722      15.791429902845627      1.3040003618843119
   153   1      20.161574083927704      17.403405802874865     0.01237806865474341
   154   1      21.372311202994347      18.640253525200681      1.5826583890368866
   155   1      20.038929438279776      19.982251106747068    0.052121070151542728
   156   1        21.5879845987496      21.537950451231584      1.7657364735322407
   157   1      20.110116540539792      22.953028207134533     0.37814062243708002
   158   1      21.588387875549611      24.327865750722136      1.6914678448584255
   159   1      20.432957037423268      25.851647446870498    0.005902758672414174
   160   1      21.451315342837869      27.151269687626126      1.6649982020696132
   161   1      22.824369751328916      28.664819315943081     0.21926962785399826
   162   1      24.368044251159453      1.3317307909764156      1.4661585877632326
   163   1      22.980132276401964      2.8631783414220418      28.670830999011436
   164   1      24.098340246414885      4.2579298825497593      1.7030501703116088
   165   1      22.748471731121331      5.8595930230891344      28.614644061347452
   166   1      24.305513465234831      6.9506865943942477      1.4174715111973555
   167   1      23.012151421691105      8.4301482409010298     0.27893113184597956
   168   1      24.502978862898296      10.045232484202105      1.5384534306336364
   169   1      22.945447717898379      11.444697313012249     0.12635008023211181
   170   1      24.390677080721709      13.176055775016467      1.1333283812195287
   171   1      22.758057937702258      14.430403802314075    0.010280738100436802
   172   1      24.377613846296672      15.660528416981945      1.2930744813619302
   173   1      22.814025257991464      17.558681042153957     0.31029615784225462
   174   1      24.522363728346576       18.69643396745219      1.4993140667076785
   175   1      22.932749619805833      20.273817971674173      0.1038808662821681
   176   1      24.319373685291424      21.567905723332565      1.5633517586153627
   177   1      23.061396082867667      22.841236520357743     0.08075251393033786
   178   1      24.626937175267116      24.308140616295216      1.6139860965887689
   179   1       23.00615551071779      25.647757279510987     0.15249928873662377
   180   1       24.37102396487462       27.41733168746341      1.3709825366981585
   181   1      25.908851565450107      28.494279446516636     0.07016139477912034
   182   1      27.156419981815127      1.4288005873377181      1.4825585096618406
   183   1      25.572545237327962      2.9861552431201388    0.038301843810222558
   184   1      27.290349313352838      4.2075308818330646      1.6055829717947971
   185   1      25.499195221162054      5.3835865789146728     0.21855472215371491
   186   1      27.108050403687724      6.7081305348963225      1.3241824385484271
   187   1      25.824684393323569      8.5813783541546744     0.20425344019880648
   188   1      27.207314823275926      10.104015373085405      1.2536140616675078
   189   1      25.880508906983572      11.311110293215098      28.644996619405404
   190   1      27.361917019352472      13.060681673984398      1.1757304048581534
   191   1      25.829366123187125       14.69303541953955      28.440052012199573
   192   1       27.38575601830896      15.823123282588197      1.3364058206321825
   193   1      25.670013208746273      17.248263194701238     0.06173788465860084
   194   1      27.154500631032082      18.572081279551632      1.5174797227009893
   195   1      25.937513091157069      20.278965709143058    0.063323767896247163
   196   1      27.454769402734801      21.398412658587425      1.6404382517089058
   197   1      26.049297184658471      22.816751357232938     0.49331617211370099
   198   1      27.398136328894207      24.409849070073662      1.4729015501394092
   199   1      25.761375964256782      25.832015177920443      28.663531093720209
   200   1      27.267628906572096      27.284739235017199      1.4188880426943349
   201   1      28.690998329607709      28.566954487488943      2.7749699179052412
   202   1      1.4142086811887336      1.2674649511023299      4.2755420387449075
   203   1     0.11182669740798044      2.9979799287821169      2.9500691322142218
   204   1      1.4752036511389752      4.1211214363924666      4.4762289443812433
   205   1      28.610684837495825      5.6086991115812843      2.8787356244593956
   206   1      1.4318651962364244       7.013541102571673       4.303062005308127
   207   1    0.011059718274555756      8.5097108325291941      2.8148100313311484
   208   1      1.4521354064839462      9.8103173777045516      4.3704471565540128
   209   1      28.533186568051423      11.365050473777451      2.6568988478236282
   210   1      1.4268580346544142      12.735429655640498      4.2976153462483584
   211   1     0.15304585107162541      14.411640778168595      2.7545256410456864
   212   1      1.3985916094271145      15.772916189942178      4.3388446831979506
   213   1      28.599421229831567      17.117796838075311      3.1045854800104293
   214   1      28.647435590941132      17.100206876237067       5.603659182678749
   215   1      1.6543169799243631      18.486598484227361      4.4255740471701266
   216   1      1.5082142011286377      21.574001793166499      4.3371603207301561
   217   1     0.30773449307785328      23.106557843547435      2.5828083082252986
   218   1      1.2475444685075459      24.471835323768701       4.135022830506438
   219   1      28.675086511028383       26.04919909319073      3.0373408618857409
   220   1      1.4813551149468713      27.280017911507876      4.3586248691340632
   221   1      3.0725225792606108      28.591777578979777      2.9092850849518994
   222   1      4.5402266525412971       1.572414179271276      4.2186284982330156
   223   1      3.1378627020983072      3.0092143196904217      2.9523431508511586
   224   1      4.5682588317594783      4.1576983311631226      4.4184402352072283
   225   1      2.6864887200482479      5.3634184273002035       3.123038004077729
   226   1       4.223199884524111      7.0141288473495162       4.307485970322471
   227   1      2.7833898662061425      8.4070270842313359      2.7222174246545801
   228   1       4.228703519529069      9.7137612608313528      3.9041934923153812
   229   1      2.8978218873382868      11.358572329863238      2.4977110440287449
   230   1      4.3300663112460827      12.805118601337716      4.1843897130764356
   231   1      2.7208279981056651      14.260115953581979      2.8704604530075026
   232   1      4.2593070906401236       15.61456656523036      4.3787059854995105
   233   1      2.7959532625505878      17.239010359696575      2.7421439101517535
   234   1       4.273730339335728      18.436452997740979      4.4658771594936981
   235   1      2.8352389913493203      20.127575544981049      2.8534082813128183
   236   1      4.4497774653941162      21.774243822634581      4.4358379960003269
   237   1       2.913149250969707      23.095139211713896       2.906147639819133
   238   1       4.315003843056135      24.363750755790829      4.5175944783768509
   239   1      2.8558794907745111      25.966369850363595      2.8686339943389139
   240   1      4.6049742602163315      27.182730596388147      4.0096056283814026
   241   1      5.8455097847551629     0.12438109058324495      2.7572781270151943
   242   1       7.200253104878831      1.5809634924231428      4.1903108906632784
   243   1      5.8632997495316035      2.9040966446539973      2.7258847484889204
   244   1      7.1867901762379089      4.2845746574447965      4.3098449991211929
   245   1      5.8197326711240711       5.587329700684168      2.9641335266165498
   246   1      7.3056221885255859      7.0222417812867555      4.1727093981053267
   247   1      5.7547427582937116      8.4222944358251315      2.7236830358007391
   248   1      7.0599455002888876      9.8869631764914683      4.0844191215923944
   249   1      5.6741916415240823      11.266774651246376      2.8999407080465103
   250   1      6.9799776579017285      12.711357433772115       4.210882176045847
   251   1      5.5975084637219279      14.161899101018104      2.8815949470295825
   252   1      7.2797857316811223      15.462238084368789      4.3628920475923225
   253   1      5.8163492751457246      17.115464392207336       2.779519917649758
   254   1      7.1893324899154685      18.886504664219522      4.2544429147471901
   255   1       5.579273328520518      20.009294684186845      2.9114571536302618
   256   1      7.2994263908941699      21.350731206896391      4.0873582090012981
   257   1      5.6318628313952326      22.871934084635562      2.8354968897095301
   258   1      7.2687340401269953      24.271771955278602      4.3482999104558067
   259   1       5.827970745895148      25.898196638791628      2.8072211752133631
   260   1      7.2951290529017729      27.092679024575567      4.1953902997016197
   261   1      8.6836251822897434      0.0234449323967512        2.95222310155753
   262   1      10.037149545323897       1.544276207575173      4.2965650181801127
   263   1      8.7481059440369258      3.0690047339420303      3.0020514067344815
   264   1      10.141338707403337      4.4607597769655118      4.2572413150627817
   265   1      8.6591264189738979      5.5619647757516191      2.9588693995776167
   266   1      10.213784026958825      7.1657483875612984      4.3472432235710734
   267   1      8.7076722569463669      8.7323481928169766      3.0542802659668613
   268   1      10.108567635880602       10.12267348293558      4.2689795400471802
   269   1      8.5643436567544011       11.49241579942333      2.8658616444304696
   270   1      9.9200622639909088      12.810547478834252      4.2497312499680122
   271   1      8.4649882330029911      14.139697673915977      2.7701421454466759
   272   1      10.066525915546906      15.858299445544009        4.43885842506067
   273   1      8.4495917124085693      16.918439472196546      2.7938137321792174
   274   1       10.09339237547225      18.296682903717262      4.3658657580886286
   275   1      8.8737856906069403      19.973584684614213      2.9293524540354845
   276   1      9.8847882401633171      21.643312445926078       4.183986327301759
   277   1      8.7451749975566617      22.967483877250132      2.8833234242393946
   278   1      9.8930815938811278      24.505142184358778      4.3691745626128595
   279   1      8.6486918501870758      25.983508121346759      2.7458924934505595
   280   1      10.020581173290994      27.243410219192761      4.4519714619946464
   281   1      11.389578355000737      28.600320964771516      2.7731320409632296
   282   1      12.815957524148558      1.2469396153270613      4.3721273032400028
   283   1      11.512413472090095      2.9315636091554511      2.8310522465181851
   284   1      12.847781712888889      4.1217199732350096      4.3829936272394132
   285   1      11.503807579069081      6.0412810152163274      2.6189383999902462
   286   1       12.64734444910879      7.3057014760833585      4.2921084498080617
   287   1      11.282618548951394      8.6816060404759483      2.7367798199360651
   288   1      12.836373913928073      10.128185798424123      4.3246564754597987
   289   1      11.521968852749895      11.433076414197945      2.6234675728909918
   290   1      12.705644934618181      12.814155544764718      4.2741754516794126
   291   1      11.366641559937934      14.380817940260501      2.7988926230797113
   292   1      12.872902339045343      15.586602698722521      4.1411369247514678
   293   1      11.631840286125803      17.150845639220119      2.8986941181120218
   294   1      13.026163628848913      18.568314699409239       4.503500780801315
   295   1      11.352268356002002      19.996070010990099      2.8876811702965584
   296   1      12.642207108271359      21.433123983127519      4.2238815043027209
   297   1      11.416230419468558      23.116922061054758      2.8897503036829213
   298   1      13.212915105343743      24.601720006082239      4.3758079723092216
   299   1      11.516580014556887      25.784832782243253      2.7676755008583416
   300   1      12.952378537839579      27.233795481312352      4.3792115960496405
   301   1      14.253891525314762    0.056663439852047887      2.9402813170064386
   302   1      15.770689360177551      1.1751804066382998      4.5306870439602385
   303   1      14.215939170648946      2.6920968369149372      2.7096422877687347
   304   1      15.601960129739783       4.142223608630097      4.3638415117845284
   305   1      14.260447847776451      5.4898213115870647      2.8639583394173869
   306   1      15.557932720240398      7.1868651080946933      3.8711521575160126
   307   1      14.320159830041655      8.6834309345542593      2.7346664268018004
   308   1      15.889994246260857      10.047175878919374      4.3671262702014859
   309   1      14.101898376046456      11.406868105967417      2.6830703715885531
   310   1      15.800378896072313      12.908797029873286      4.3326906411321602
   311   1      14.213270875320658      14.147792799322865      2.9368690708637475
   312   1      15.627438085829715      15.730515417706231      4.1884841980967416
   313   1       14.49174680666107      17.348465489184637      2.8645550051970075
   314   1      15.813802451689021       18.63905978404102      4.3585544511202645
   315   1      14.098588042033301      19.808156811830951      2.8491410338004122
   316   1      15.598850456800168      21.363245024626089      4.2981714711290717
   317   1       15.50750279683731        21.6518295294395      1.7048977983605142
   318   1      15.629470034644894      24.288857742641287      4.2293290403085253
   319   1      14.370016955740295      25.975835011292457      2.8571790544593223
   320   1      15.638526943265678      27.249585803770824       4.282867104392162
   321   1      17.317860059833503      28.473653467715284      2.9360087663604628
   322   1      18.414033149895531      1.2567650739585938      4.4844792288828499
   323   1      17.083835377426784      2.7304879261183599      3.1474980145483973
   324   1      18.573114898187399      4.2484716997452399      4.3579380668187166
   325   1      17.069127628646427      5.2866873008929671      2.9575227504712034
   326   1      18.392372632906557      6.9820970684937951      4.3160333376668927
   327   1      17.299653801603668      8.5989580859117041      2.7815051934693202
   328   1      18.691336868826031      9.9728058942427733      4.3492242033697526
   329   1        17.1658843941782      11.473445307929032      3.0421252968727166
   330   1      18.740673102521605      12.787868224181574      4.0777711844333426
   331   1      17.006426954829344      14.215693405858715      3.0515524519218067
   332   1      18.457361871858538      15.652564881132131      4.2705430073862543
   333   1      17.310909569850878      17.051426992386602      2.7677114317526734
   334   1      18.636908383379257      18.681900278154618      4.1534147565676074
   335   1      17.362528725393037      20.177333751090593      2.9005469707553639
   336   1      18.742801348016346      21.669713678877166      4.6716063501745388
   337   1      17.153789554517672      22.840149599040981       3.132959471585957
   338   1      18.367134518147409      24.208690544667679      4.5868840861149005
   339   1       17.34579318310313      26.004515759368335      3.0272627093013864
   340   1      18.547837509215064      27.104788001965627      4.7586135419957394
   341   1       19.96222272573133      28.615890446775381      2.9772329346957145
   342   1      21.267598077421113      1.3352801312916665      4.5209334040547677
   343   1      19.983778872531616      2.8027137227362555      2.9544050703913265
   344   1      21.473914096760407      4.2449738063604032      4.5377099241635506
   345   1      20.007540977438001      5.4306719792103708      2.8453352128853897
   346   1      21.270858259856645      7.2257300608091475      4.5498450921442046
   347   1      19.921112095470548      8.4451462984137233      2.7952940808283424
   348   1      21.545952793658568       10.07774181939363      4.4054528958537622
   349   1      20.252563234900734      11.604144256833802       2.579456900502533
   350   1      21.569778479104475      12.646721118384399      4.2543114640521305
   351   1      20.182898487886415      14.369504538921396      3.0497578061032815
   352   1      21.692257483230591      15.681239444599576      4.3982845401159132
   353   1      20.079065572447636      17.250725161761082      2.8919613614634225
   354   1      21.337558419028031      18.487559453591473      4.5957822548546128
   355   1      19.933658827373414      20.148372307173293      3.0479580328471112
   356   1      21.473122984096317      21.462672769681053      4.4760261253978744
   357   1      19.977105450626119      22.964830785840551       3.117641458799175
   358   1      21.571956338948269      24.401908098107292       4.369634535222799
   359   1      19.743165950683768       25.75507622270025      3.0031068333155679