dump/Fe_1350_5/steps_1 (written by ASE) 

1995 	 atoms 
1  atom types
0.0      28.699999999999999  xlo xhi
0.0      28.699999999999999  ylo yhi
0.0      28.699999999999999  zlo zhi


Atoms 

     1   1      28.449719477775123      28.611430360134115      28.483460706522653
     2   1      1.0900996486989114      1.3147515761485022      1.3281748258765564
     3   1       28.46687390763363      2.9082719734630329      28.618791912185785
     4   1       1.235675433840175       4.357376012037764       1.375611581991153
     5   1      28.496369259491178      5.9609748655119619     0.18596583063350644
     6   1      1.3161288154476543      7.2219591647035504      1.5341593513292877
     7   1      28.650650212275664      8.4952757673110568      0.1145168997340419
     8   1      1.5374030866363233      10.128125998909738      1.5852160956380772
     9   1       28.62921855131761      11.532647459372646    0.012376774111146464
    10   1       1.462085720097571      12.923193549725214      1.1791279084731399
    11   1      28.645100831660958      14.322170909834682      28.514063485884577
    12   1      1.4533037038878565      15.573701843121263      1.5314591470545915
    13   1      28.552783953334487      17.154672317629789    0.059085026360639795
    14   1      1.2715772627387887      18.902664100685357      1.3842583243806199
    15   1     0.04898219096385336      20.253389009349174    0.068917447350599931
    16   1      1.3402155535285727      21.692002788811706      1.2908374486724943
    17   1      28.625229528498679      23.204271716846314       28.61598341593788
    18   1      1.3729178331741663       24.31614121829897      1.4595146879134158
    19   1    0.042636317692669096      25.663426134543453      28.584740093924779
    20   1      1.1556227329141515      27.053735818082973      1.4664026198305016
    21   1      2.7101972881309973      28.603907585339929     0.21767081120710838
    22   1      4.3458938952553163       1.150065238005151      1.6513915126226939
    23   1      2.6403637633666688      2.8982612579807232     0.02905836952677426
    24   1      4.0307137116014937      4.3706993874452591      1.3381170614685742
    25   1      2.6659578169658174      5.7459044634539618    0.024174033082420023
    26   1      4.2765302112644799      7.2052809318345457      1.1631043767281999
    27   1      2.6338328304751739      8.6593999268367075      28.521913059804319
    28   1      4.2296705491623374      9.7794406653435431      1.2920166127257517
    29   1      3.0449452899968232      11.352383854785149      28.443097578653891
    30   1      4.3247537862964762      12.764070619150393       1.381232339377483
    31   1      2.9656535184311723      14.280876817570016      28.689097553450299
    32   1      4.1752707785188816      15.907639368765647      1.5884711157695273
    33   1      2.9067107158407395      17.326068305583512      28.492433480901571
    34   1      4.0974216174754732      18.781305983506716      1.4071962041392565
    35   1      3.0485733614918598      20.462822217760802      28.685790747688969
    36   1      4.2908089401554372      21.583479207338776      1.3711339324750265
    37   1      2.8969071831541267      23.135982538124235      28.493507434288517
    38   1      4.2214385344777137      24.637505642021342      1.4038818847673595
    39   1      2.7656122621990815      26.009922670633994      28.642205827259943
    40   1      4.2161561671469805      27.317606834764995      1.6628827816065386
    41   1      5.5301641283256355      28.678252962335222      28.626689196890766
    42   1      7.0472676287870462      1.1060149103527004      1.4731279143459355
    43   1      5.3737296522275013      2.7551187134771347      28.692750200703276
    44   1      6.8677420363432553      4.2521761850468147      1.2342430904418389
    45   1      5.3890408944211066      5.6261103559394323      28.586040725984834
    46   1      6.8293474146235429      7.2749463391409481      1.4665939510294714
    47   1      5.5698359882310342      8.5153561417390851      28.448410452305144
    48   1      6.9952942185445695       10.00777722332101      1.5993846274405428
    49   1      5.7774713361644903      11.460320928764727     0.18784074808050955
    50   1      7.2296645647061082      12.999089351775154      1.3137566438650421
    51   1       5.749927721374382      14.540127041433431     0.31489146132364509
    52   1       7.198427808273868      15.874417709241229      1.5024905075595698
    53   1      5.5937546518448382      17.387475603100835   0.0042592544642161573
    54   1      7.3093160992484458      18.805984939964922      1.3935654453310122
    55   1      5.9399203941014695      20.284161895605212      28.676596034729844
    56   1      7.1797748621960258      21.616907510283429      1.4641856222438727
    57   1      5.8316755573506986      23.025890376896612      28.593846700233378
    58   1      7.1053127882917249      24.471691218876305      1.3774876709182657
    59   1      5.5400760372426667      25.856649225879277    0.011787463992607168
    60   1      6.9230277804678719      27.330419637599444      1.1932134535044376
    61   1       8.552380038315377      28.498192727299639      28.688621053954066
    62   1      10.146207979919938      1.3374095122809635      1.2503069250798489
    63   1       8.326149097322693      2.6415442905608884      28.608497288494505
    64   1      10.105521235379683       4.071684585965814       1.374361755001074
    65   1      8.8155492380357661      5.4987449702088727      28.649964891458154
    66   1      10.006887460817547      7.0331266332698972      1.2811609208088595
    67   1      8.2333086457576048      8.5821108667794146    0.081451408554153254
    68   1      9.9392608782039336      9.9328020814742484      1.4656525900477848
    69   1      8.4097193586161154       11.33186084698727      28.597549269546338
    70   1      9.8276439661412258      12.716661932921411      1.3046078909166907
    71   1      8.6633002148484959      14.536032268681989      28.649468360857686
    72   1      10.101468586598006      16.051262386396065      1.5371707695202175
    73   1       8.439844442755728      17.221831573789785       28.51598910315629
    74   1      10.186162702183907      18.923005945456882      1.7632973283920705
    75   1       8.578770809907331      20.139507900468082    0.054673871568058856
    76   1      9.9483776581830092      21.567636215719986       1.308923496722695
    77   1       8.472559111009037      23.042662021522084       28.59628901595098
    78   1      10.105907819328829      24.380940507644137      1.3041942120069614
    79   1      8.5729840435738893      25.689754459038163      28.612383234364806
    80   1      10.019035203927867      27.187192224272614      1.3105968922716682
    81   1      11.584107424543793      28.573838037711841      28.400935041078014
    82   1      12.827798496960085      1.2579030137495455      1.4660980672750026
    83   1      11.473403291093764      2.8221658888749181      28.507006207427754
    84   1      12.846973716267723      4.1527023432382562      1.2434969413393906
    85   1      11.459215410684156       5.685815103691799      28.688576101041292
    86   1       12.95583846938608      7.1180156852730665      1.4857166329683433
    87   1      11.474225252211955      8.7538220493879599    0.056566017179227261
    88   1      12.847833331668337      9.9790233415111178      1.5902933818744609
    89   1      11.416365134489796      11.539040993312284     0.12622480535870859
    90   1      12.648402521781689      12.819131669409741       1.343069456985279
    91   1      11.482576940826496      14.433115183133502      28.691515271891721
    92   1      12.883458124801459      16.061415685249649      1.2472571090540319
    93   1      11.142897801295447      17.402829275315977      28.618778615858833
    94   1       12.82850271079659      18.713550213069276      1.6084132263231152
    95   1      11.554146337484951       20.03305080241028      0.2493519282310557
    96   1      13.096673234836571      21.822004426750784      1.4151775666149873
    97   1      11.563295526615835      22.899101251236342      28.697804866110356
    98   1       12.84650401136426      24.376236566196056      1.1762140826310541
    99   1      11.534685088665633      25.815825672871338      28.586143801233519
   100   1      12.956680712722731       27.22607902104517      1.3656331489721993
   101   1      14.433254225668312       28.56190250643991      28.323727939828217
   102   1      15.606441016442025      1.2711183857126789      1.2645318267797165
   103   1      14.270002828399152      2.6197480530041393      28.650670099034716
   104   1       15.40410010531787      4.1521340673086913      1.4702869945849342
   105   1      14.052958382736435      5.7614684547256081      28.618521036027403
   106   1      15.713650443393819       7.038905409710285       1.382468645426979
   107   1      14.477094920228106      8.6590740149562517      28.634044190006268
   108   1       15.70188355644734      10.066460605344913      1.5875169935996156
   109   1      14.361290044419368      11.671043142961958     0.12988935283021885
   110   1      15.734738862176362      13.136051053401394      1.6694704952063362
   111   1      14.321681322567191      14.224456840538707       28.62027576660757
   112   1       15.45730993298594      15.874229407560177      1.2955117093160433
   113   1       14.39049364538319      17.447984965543338      28.557822479133137
   114   1      15.583385506862923      18.693451744291796      1.3671589348724749
   115   1      14.253938785580685      20.057219660825822      28.575548457518622
   116   1       15.87783695811639      21.726963076526769      1.1993959346365612
   117   1      14.343568815856479      23.055406926124544       28.68925406333787
   118   1      15.647844585689246      24.520891788904297      1.3452632371014925
   119   1      14.300869386500203      25.707399451046779      28.331912664723369
   120   1      15.712463764960001      27.412577839980599      1.0696465777968671
   121   1      17.261158912312922       28.65307086706375       28.60721763772996
   122   1       18.52872631863335      1.4191900292992381         1.5178733008275
   123   1      16.952841910024478      2.9299601794369403      0.1693806994167629
   124   1      18.737775660920548      4.3455248375119266      1.2903985853125171
   125   1      17.257666009973654      5.7210331308550488     0.16320302343149251
   126   1       18.89339081020044      7.1380352127228122      1.5901675768462729
   127   1      17.126978768812478      8.6047995848600856      28.683110980986601
   128   1      18.315643096484045      10.167414143785031      1.3008919786332409
   129   1      17.092913121854277      11.821849489754063      28.642635222713711
   130   1       18.55038191799656      13.198159218379105      1.2645523879816314
   131   1      17.085604479422393      14.435429022459004      28.376380069843833
   132   1      18.673244459522049      15.858428731160833      1.2308591261077018
   133   1      17.020183680540409      17.497891165067035      28.657874588204344
   134   1      18.682596546312471      18.682296489970966      1.1322587245582447
   135   1      17.388006141774699      20.027274001002347      28.591156032132709
   136   1      18.673352988432502      21.372433434039134      1.3726947306607358
   137   1      17.423644375681111      23.171993723036671      28.586046584550189
   138   1      18.777167428454714      24.533551473970309      1.4220011524552201
   139   1      17.152682108823139      25.747214351508724     0.01928776147391318
   140   1      18.756610037777662      27.169107479229734      1.3714093461595103
   141   1      20.087400084075206    0.045075531834790655      28.634612116664844
   142   1      21.593722035013016      1.5533253424805362      1.3557719105634867
   143   1      20.071095337006721      2.5398720172068692      28.646688298271243
   144   1      21.422201850894485      4.2942114602496089      1.2765471997344664
   145   1      20.008323978369102      5.9040863547995261      28.599299690209307
   146   1      21.373409881146952      6.9922781601549895      1.6160713892648568
   147   1      19.965130884003322      8.7298439640412528     0.18769878481975866
   148   1      21.579150471372682      10.246196117167022      1.2167739935023982
   149   1      20.151506315605499      11.609126001477154    0.034939216238683388
   150   1      21.512883138047009      13.011424662035687       1.443578970045222
   151   1      20.080950799281762      14.437262864401839      28.651900760481027
   152   1      21.680189582561724      15.685762826918923      1.4817016259202658
   153   1      20.367999477895147      17.154368516160623      0.0129329264549483
   154   1      21.545047909599564      18.773018767703181      1.4412776587343155
   155   1      20.243698043211843      20.136232538549059    0.030821063943176383
   156   1      21.472212586276171      21.453276129675611      1.6551339687744864
   157   1       20.23216589229343      22.987581802061342    0.071232818882958751
   158   1      21.756178824901422      24.655206099544323      1.3429247583002064
   159   1      20.216829976589633      26.017061529306066      28.587296621691479
   160   1      21.481402974956822      27.501896214261755      1.2670131002030529
   161   1      23.091360888690691      28.544289953955019      28.640977288468761
   162   1       24.44141994087116      1.2467204561245246      1.3543700288063514
   163   1      22.963391647896739      3.0089079797337246   0.0069952378080643147
   164   1      24.667376274188587      4.3282857450366468      1.3149486198432545
   165   1      23.074827615378378      5.8415043429772258    0.072430333230454447
   166   1      24.210858648487537      7.3851098699293631      1.5949725446943703
   167   1      22.738591075152495      8.5916711253272027     0.14486441661331353
   168   1      24.449735848135827      10.084862852180423      1.3214565667804434
   169   1      22.922903867226047      11.566069754993791      28.467566092817535
   170   1       24.21886849761442      12.805731643374273       1.595922705134819
   171   1      22.953090539106732      14.254659673151261      28.679526111665755
   172   1      24.586998493705945      15.909515599220518       1.409764535387011
   173   1       23.05532049772269      17.020068351971648      28.586378537410035
   174   1      24.553596366793265      18.582069273419616      1.3202028220077189
   175   1      23.138030621320823      19.960449963326994      28.695226954563921
   176   1       24.48884915688441      21.614325145934735      1.4942900814686466
   177   1      22.990931017513642      22.862577211811814    0.011033873506153204
   178   1      24.328541425053224      24.410608881705496      1.3883596233112037
   179   1      22.953136738890173      26.043793834565562      28.559057690326412
   180   1      24.485931239247403      27.387370953858472      1.5782848199945871
   181   1       25.83097255748585      28.609737313203741       28.52315855749119
   182   1      27.193976034826292      1.3105065945986787      1.4529811007274254
   183   1      25.759812289977138      2.8766378945890541      28.635343697910049
   184   1       27.16690042444349      4.2505793276827761      1.4475610827775993
   185   1      25.873767448401672      5.7967605382319931      28.603636414924821
   186   1      27.134177647494898       6.912403175430252      1.5852920474043004
   187   1      25.718250890746013      8.5302343992565923      28.643354783982105
   188   1      27.271349482265833      10.029237556732713      1.4321312613928388
   189   1      25.847729950829365      11.447909380984134      28.635808052029816
   190   1      27.399304829062284      13.056225871978434      1.4846993419181331
   191   1      25.868418852889775      14.423467306588636      28.572746128600901
   192   1      27.178552632962624      16.019533314818911      1.5443927745443276
   193   1      25.881291802998962      17.292678855143372      28.616546058617221
   194   1      27.433354523785585      18.706611228640337      1.5066957941108734
   195   1      25.803929242092345      20.117887159914144      28.504011011803883
   196   1      27.194356436118206      21.549968640649137      1.2411223875710327
   197   1      25.911231918629053      23.089537029393696      28.671872921470111
   198   1      27.332349032587821      24.436051721811289      1.4769881133093696
   199   1      25.903298028289964       26.04242495678724     0.30826124003760952
   200   1      27.375262814055155      27.154627683338784      1.4426970203489542
   201   1      28.563368278008753     0.05438978681321497      2.9130625840726121
   202   1       1.303481141703821       1.417472977283307      4.1577350127359258
   203   1      28.547955184452224      2.8786724590441972      2.6531973541456626
   204   1      1.5841855511848377      4.2161704062390699      4.2088008434188859
   205   1     0.10475227475219587      5.7182288407229027      2.8535958685358866
   206   1      1.4708773835131854      7.0586635349766844      4.2924041981769898
   207   1     0.10893308675309829      8.8098513627084465      2.8767107686260744
   208   1      1.4547302573279823      10.178534817448053      4.4342271675450817
   209   1       28.51938080677991      11.678467182667653       3.032478661958419
   210   1      1.4748038245932458      13.219080078541868      4.3459214267801931
   211   1    0.059739089986659215       14.46144467615591      3.0534856836543232
   212   1      1.5462267814843127      15.844676863078957      4.1809244795774836
   213   1     0.14329739124276669      17.261691869193967      2.8285687634955581
   214   1      1.5644245686541722      18.868499918768183      4.2961860588685017
   215   1      28.643537244681113      20.233013019691292      2.8041869684454235
   216   1       1.260970636194692       21.44989001214967      4.4095701637672882
   217   1       28.58665005602268       22.80696700659993      2.9667078554352684
   218   1      1.4236551215007018      24.375882122516916      4.6082233658251841
   219   1      28.646662793262735      25.559137257231654      3.2933063659443129
   220   1      1.4507644614987272      27.251030006075631      4.4972098457479444
   221   1      2.6705319894408164      28.566914182585979      3.0339251168891983
   222   1       4.122079321286388      1.3714235589990043      4.2179090173456117
   223   1      2.6708039734724136      2.9312920576977173      2.7259437055517197
   224   1      4.0745804198324214      4.4490146311321865      4.2944188077031447
   225   1      2.8238265085660621      5.8081465039737497      2.8545901662186783
   226   1      4.2499495555992945      7.2248538261144857      4.1814558683509748
   227   1      2.7646202426574762      8.5649642454570838      2.8975840208735262
   228   1      4.3781848180563498      10.064708305442409       4.272579160367628
   229   1       2.876076530212663      11.512752878805346      2.9723861292614409
   230   1      4.4106049562682985      12.926404881932935      4.5013876511652455
   231   1      2.8607042770257398      14.142594626330121      2.9295957237466714
   232   1      4.2076232858242824        15.8621402663001      4.0915475110778301
   233   1       2.787755566738531      17.469554962299636      2.9089216239756199
   234   1      4.2965258421122847      19.064323656126707      3.9690606744208479
   235   1      2.7948554568347981      20.218095970723006      2.8706490117002694
   236   1      4.2658554901877928      21.734280385483945      4.3693843170527407
   237   1      2.8053145532351431      23.142986321159281      2.8962524057944479
   238   1      4.0393324457692312      24.490887208346162      4.3827232465961687
   239   1      2.6302068575230932      25.846517485600792      3.0056347142988096
   240   1      4.1198311140457955      27.209625034282436      4.2599671959405265
   241   1      5.7512626782812291      28.507448053874185      3.0928684915256506
   242   1      7.2429093897653791       1.436910123140855      4.3639211995784368
   243   1      5.7151695207384154      2.6559389241451519      2.9260477731088286
   244   1      7.2936719428628036      4.1860664938289798      4.2781773013163891
   245   1      5.5779235421091951      5.7105922869624601      2.9159775793294522
   246   1      7.0695515481583167      6.8459471274101995      4.3481698747315027
   247   1      5.7187969244075827      8.6868411973997794      3.0552226228306227
   248   1      7.0771448724005506      9.9422112679487853      4.4426880858112305
   249   1      5.8077236949061888      11.708716764547342      3.1300264972385121
   250   1      7.0461665101879127      13.022872846233186      4.4458842059138304
   251   1      5.9742730582670109      14.202720342127796      2.9027441261594609
   252   1       7.141550152699609      15.797082324986226      4.3293843608402005
   253   1      5.6543915684504444      17.143709245997538      2.8008117981864062
   254   1       6.918444634401113      18.689400681034556       4.112516106777532
   255   1      5.7123499309827386      20.185020246809259       2.654780839718784
   256   1      7.0502154191668449      21.462048673830445      4.4165082270227574
   257   1      5.6022550638625059      22.999972992732204      2.6962240797805741
   258   1      7.3597542550824606      24.425447546392913      4.3615432042805642
   259   1      5.9465349642188041      25.974161077258763      2.8284728126022967
   260   1      7.0625436361420721      27.385255181282478      4.6400307231266904
   261   1      8.5911348155704896      28.477090978077442      2.8202552904878404
   262   1      10.021026611224183      1.5715344035900658      4.0412004277270626
   263   1       8.383355031455002       2.666472622114338      2.7090106012464719
   264   1      9.9528241451047101      4.1443345339657078      4.1467150855660391
   265   1      8.6437820998939134      5.7310990534565978      2.5645866773077941
   266   1      10.107866742604822      6.9434420539286386      4.3551804397044886
   267   1       8.470703429752211      8.4118894906685906      2.8691821671425708
   268   1       9.900047361766724      9.9786777779181168      4.5711972072292655
   269   1      8.4486833499046092      11.225157631886024      2.9835077855105729
   270   1       10.16538894550326      12.953097073010634      4.4296325211222998
   271   1      8.6600172242036155      14.673086532017258      2.9448203185254282
   272   1      9.7641751213216725       16.16533862351843      4.3022863987676798
   273   1        8.49417573826282       17.55235103896986      2.9558183456506062
   274   1      9.8694438474514481      19.095909990797715      4.2643772793756636
   275   1      8.5367547270979696      20.324230154716826      2.7709710939360424
   276   1      10.047797107727057      21.666264120665595      4.0146093603823276
   277   1       8.323045248659561      23.085515259087263      3.0509835734389013
   278   1      10.022410317919663      24.624717262158729       4.262411187221522
   279   1      8.5413001080935693      25.875967352581526      2.5060752936808157
   280   1      9.9697967683438531      27.112700871503048      4.2756947797857832
   281   1      11.362077526687859      28.619618151381065       2.809724975761299
   282   1      12.954021474739333      1.3572101710587725      4.1341122792329683
   283   1      11.594049998613423       2.691655756027036      2.8731376582538002
   284   1      12.818523377140322      4.1324619418508819      4.1920788420836095
   285   1      11.509876855582899      5.7245568702905905      2.6256801052733856
   286   1       12.82928736403216      7.1203713487517497      4.4640338818991943
   287   1      11.365041885416135      8.6431831993750432      2.9347760895239499
   288   1      12.767235158985969      9.8952646175886461       4.267346829195799
   289   1      11.341529795794852      11.583670749251807        3.03777836408528
   290   1      12.736610512874703       12.97962684552021      4.2109364308578474
   291   1      11.351829831295815      14.365918322977587      2.7605114428151967
   292   1      12.839138838582892       15.98264161935839       4.175788856349671
   293   1      11.289406748137653      17.325509756629042      2.9947014720563314
   294   1       12.79963478956812      18.943131253625396      3.9446840083810399
   295   1      11.726381505399175      20.570160784312066      2.8812958962770461
   296   1      12.984549446820264      21.541077090834008      4.4049685226613855
   297   1      11.778009150977836      23.235454730183161      2.8522942360192913
   298   1      13.068675801286389      24.547306900201168      4.4441471027126953
   299   1      11.333204737239109       25.74468289545883      2.6591345696978235
   300   1      12.768811016538027      27.101119031435626      4.2303767942822068
   301   1      14.386525778911295        28.6878551919492      2.9200882305631932
   302   1      15.806048447089697       1.306564777245115      4.2333110168674191
   303   1       14.25088169077544      2.8000013545148019      2.9883014066648004
   304   1      15.818667893458505      4.1354813036159701      4.2595599840617142
   305   1      14.150367238127702      5.6184008347505321      2.7353501438834753
   306   1      15.707996596471228      6.9255095978052879      4.1752510470011979
   307   1      14.289842662246343      8.4823284863583588      2.9848274947868085
   308   1      15.653393257056674      10.047411950070614      4.2740357650491596
   309   1      14.442365332442348      11.543115300243594      3.0329795285198631
   310   1      15.916759688354377      13.164672635623845      4.7365315521097688
   311   1       14.16932638107486      14.640074888182854      2.7942023742417965
   312   1      15.493470857869784      15.968980096149341      4.2713158722410407
   313   1      14.194685530281591      17.444302134273723      2.8268803388852475
   314   1      15.761705780276449      18.688061550462287      4.1632370959180225
   315   1      14.324408118347295       20.37699269958263      2.8327814355072052
   316   1      15.860772181792996      21.762813484995533       3.928828539282073
   317   1      14.254749240339313      23.133825166985925      2.8538272563508587
   318   1       15.81903815482069      24.619102966958035      4.2401306687382005
   319   1      14.192327682516487       25.74931398057068      2.6662918676181659
   320   1      15.756444628736274      27.150331561164833      4.2358497897085039
   321   1      17.135663685922466      28.596727096585145      2.7746791247431708
   322   1      18.514455557255811      1.5012487135218753      4.1081985437181414
   323   1      17.016868578612353      2.8244777946383235      2.7694338146230288
   324   1      18.671359195589755       4.216927932447109      4.1139483465979092
   325   1      17.243835908134233      5.5135182285784046      2.7943956278049087
   326   1      18.597287410799307      6.9622265943305495      4.1545112980024044
   327   1      17.089271600136875      8.6455091630335144      2.7851590754699584
   328   1      18.731241625476379      10.170122187178233       4.496740561874514
   329   1      17.262261926700603      11.600973037509293      3.0582657762949919
   330   1      18.746600508601674      13.087017775362705      4.3782822707698976
   331   1      17.257636077201688      14.604577016530694      3.1061812276267462
   332   1      18.648629558097831      16.037011111446819      4.4172668581985022
   333   1      17.424241004489804      17.345851126700563      2.6979315694074111
   334   1      18.656855401346036      18.770515667090457      4.3788635522853845
   335   1      17.189210190858979       20.00035389385938      2.9427565364447759
   336   1      18.610971020255246      21.494679549156498      4.4177999996861885
   337   1      17.225284507256575      23.029745352515292      2.3777002347933482
   338   1      18.650331354375059      24.302829117190075      3.9621694083435979
   339   1      17.215371863890301      25.981540183390379      2.7513425274425791
   340   1      18.580764797753705      27.447187344771155      4.2173677210460081
   341   1       20.06738627312469      28.634490334044642       2.766471301987405
   342   1      21.566491235191346      1.3404598848348772      4.3910240089533579
   343   1      20.270579215725327      2.9526592210947045      2.7546382624885037
   344   1      21.418186086309497      4.3844857675973445      4.1124782776312401
   345   1      20.072748920825017      5.4574485049171688      2.8452498016587477
   346   1      21.615701255628686      7.1870352443198549      4.1308322243686915
   347   1      19.927560093218371      8.7343941859114906      3.0435523824416122
   348   1      21.342620352992139      10.260235572038859      4.0914559052846959
   349   1       19.87365389084529       11.70454434950466      2.7027434676351167
   350   1      21.610473320727671      13.190540366314814      4.2271340335771965
   351   1      19.898408163542435      14.591948085802981      2.9186884915992475
   352   1      21.676553167572898      15.783288932606879      4.1891510701369459
   353   1      20.092323934666943      17.373071018490648      3.0231405380205842
   354   1      21.502980017570181      18.620424989095362      4.2436563374387131
   355   1      20.083278167071903      20.077357483947914      2.7531152164206087
   356   1      21.374668182923145      21.560385481823339       4.469892544558145
   357   1      20.179577423870505      23.053813250318921      2.7046426647838988
   358   1       21.44255119500826      24.329896520246045      4.3506871026229597
   359   1      20.191622433572014      25.729806691862056      2.8123217248670804