dump/Fe_1350_5/steps_61 (written by ASE) 

1995 	 atoms 
1  atom types
0.0      28.699999999999999  xlo xhi
0.0      28.699999999999999  ylo yhi
0.0      28.699999999999999  zlo zhi


Atoms 

     1   1    0.055313940568206731      28.575671275321486      28.476433268103765
     2   1      1.3065947639872546      1.4418961094401086      1.6228956347804679
     3   1   0.0062461038467633593      3.0058284509278201     0.28312567117665122
     4   1      1.4195366978436244      4.4626928128770986      1.4971243991966257
     5   1    0.047221509337169135      5.8940027537853288    0.076399659122375826
     6   1      1.5829428345510916      7.3285107777725296      1.3389252445692355
     7   1     0.21370403276563402      8.8163099033139058     0.13196696432423771
     8   1      1.6339201240601249      10.064702624915634      1.4845690656723487
     9   1    0.054037337515013106      11.608492496028424     0.08026541323573616
    10   1      1.5368466854900358      12.895418018671812      1.2338218752645826
    11   1      28.518139303442471      14.379481722580186      28.688781406085283
    12   1      1.3375860835745033      15.636323192034407      1.3037287185784072
    13   1    0.066841050477594879      17.243079866319793      28.636856223827834
    14   1      28.692095187057262      19.926668738380958      3.1350044846915628
    15   1      28.566427891222165       20.01202862914748       28.66501231830064
    16   1      1.4174717892476918      21.459341106755616      1.6199601599964362
    17   1     0.02310151676197306      23.109567531263483     0.13191297910536839
    18   1      1.5455048018537361      24.356753611364944      1.4126591904974586
    19   1    0.046262005814288923      25.735664257021931   0.0031286076198284614
    20   1      1.4579606509957563      27.314801587777247      1.4609075945419823
    21   1      3.0435840158272258    0.021863342608901343    0.071968272658864532
    22   1      4.1657499737596941      1.3330933290974945      1.6381491117774427
    23   1      2.9202138798573336      3.1124090422591424       28.54284987442233
    24   1      4.2909457251047645      4.3751449909801279      1.4847529160389754
    25   1      2.7683576356033344      5.6355385420404733       28.67718685841314
    26   1      4.4738351833964902      7.3289162362323594      1.2171134164534116
    27   1      2.7510483806185251      8.8211072100331993      28.500763572573593
    28   1      4.2225710649631827      10.277272971181448      1.5114130931501228
    29   1      2.8132002557821618       11.33936247524243      28.345127841663327
    30   1      4.1819008982172621      12.848165400335191      1.2587681429406752
    31   1      3.0177409747581745      14.332191782448264      28.467672813699327
    32   1      4.2854510941727639      15.713217917338614      1.3319267445297105
    33   1      2.7844816121291491      17.141582478863405   0.0082147892416514993
    34   1      5.8614616702985032      20.120158930457151      3.0077210712650952
    35   1      2.9866458406489258      19.880089913041118     0.10011835000832441
    36   1      4.4208498278562027      18.520178036060312      1.5507110136915117
    37   1      4.3306319769356429      21.619324163485157      1.4945782631377931
    38   1      2.7849687639650735      25.867037755302089      28.681180802150028
    39   1      1.6137085263028574      24.537542629968577      27.110198854201116
    40   1      4.2392931982824695      27.168494651726359      1.4393652261051322
    41   1      5.9563657074968166      28.418342880882481     0.11248600171081759
    42   1      7.2339491455365934      1.2546177846784405      1.5211036482188105
    43   1      5.6300682283260741      2.8653717420568778      0.2954715734360539
    44   1      7.2708524728607538      4.1124458900922818      1.8260394771239687
    45   1      5.7721514504018137      5.7721014661151111    0.061618481268033203
    46   1      7.0918553654800682      7.3505193950866348      1.2029825148570468
    47   1      5.8384699593061367      8.9204448360834814      28.363923472603847
    48   1      8.5472838492601166       8.667795765806833      2.6707194968979127
    49   1      5.6278503291330768      11.481872048227157     0.12201735722692326
    50   1      7.5199033137962674      12.814454110425178      1.4615422557701654
    51   1       5.565256854366158      14.403269310079535      28.645868488615523
    52   1      7.1833456604579862      15.514636851758992      1.5987088852331912
    53   1      5.8434311153236376      17.123887232668277    0.036793380114886427
    54   1      7.1643290661510566      18.579247373570027      1.3882175372936683
    55   1      5.7463895693075759      20.002851125814825     0.17675724381008412
    56   1      7.1159158559625091      21.420304598499243      1.4259590312434967
    57   1      5.7245050317183326      22.655578847197827       28.68651684386619
    58   1      7.4471045488875562       24.36847918628926      1.4883208591477113
    59   1      5.7890992457508483      25.985036361221177     0.15716830608005247
    60   1      7.2176896922109837      27.168086730538235      1.6707791876916516
    61   1      8.3166358684774817      28.570964154448834      28.691247421190667
    62   1      9.9806264371111446      1.3501991054137765      1.1997906276333874
    63   1      8.5698003595626808      2.7891142837475629     0.22316793552473643
    64   1      10.091559421575553      4.0957812208675559      1.5800795099883211
    65   1      8.3269160541968397       5.571352636390726      28.687804479184184
    66   1      11.640219628705504      8.6052903122422784      28.527105984459173
    67   1       8.585187570110671      8.6881588871029081      28.641575794963902
    68   1      10.261490075784129       10.10358457813806      1.6166605235765454
    69   1      8.4108258770063742      11.328673439696164      28.618930512343599
    70   1      10.104020675719765      12.666622996028982       1.298812881417666
    71   1      8.6705378695142947      14.384099116843759     0.01751595185314727
    72   1      9.8516073287035173      15.773656483033106      1.4785009764795869
    73   1      8.5351824487791674      17.141405450642416      28.698803373372357
    74   1      10.122075830213983      18.537138157749528      1.2026533637969112
    75   1      8.5659491628744409      19.916830936524185      28.685130783638972
    76   1      10.184123321246917      21.564609054397991      1.3938946919589159
    77   1      8.8863857844141005      22.702271086152138      28.625198660898381
    78   1      10.221665043193873      24.518332981417185      1.4090957156175816
    79   1      8.7516526405215345      25.895410300782935     0.11259189488893076
    80   1      10.287390252356399      27.312530454314636      1.3228440430159709
    81   1      11.626956971542038    0.083548131155180241    0.048431484573438786
    82   1      13.020799982033084       1.116796505725357      1.5076470177550054
    83   1      11.424305066816519      2.6817424138348769      28.595370243478815
    84   1      12.983148125803519      4.3021137402320564      1.4402285786721545
    85   1       11.54778228741303      5.7082898335432857      28.454025535771908
    86   1      12.728311617201758      7.0206124616294723      1.4008755231523304
    87   1       13.06800812331201      7.1005578427355855      27.160816477864131
    88   1      12.959934723020291      9.9880468707078212      1.6059103319103432
    89   1      11.527933681566903      11.302978459601063      28.695110693020101
    90   1      12.773433368853651      12.804665482434572      1.4169351491508233
    91   1      11.414557772154213      14.340564312243368      28.651932593921064
    92   1      12.716817039034586      15.546280381626399      1.5794586412580549
    93   1      11.623494428571114      17.119078447121009       28.59416075662191
    94   1      13.022412712782913      18.598557885968095      1.4300778089613808
    95   1      10.280370134231354      21.266589965934251      27.256230545819378
    96   1      13.123045846336662       21.56320191789154      1.5702539003212097
    97   1      11.471712586071334      22.889801129142203      28.630629504851072
    98   1      12.964230398358639      24.382491325667011      1.3856168308599546
    99   1      11.479175059649691      25.706067198528395      28.459696234481871
   100   1      12.882819277257905      27.019815226213364      1.3083787048026696
   101   1      14.455707865089744      28.590956483841286    0.015157372731960108
   102   1      15.918715385772726      1.3772678402093912      1.5076842782779527
   103   1      14.338388631941823      2.8307903273781343    0.010926149257386449
   104   1       15.55369318806666      4.2819988290930375      1.1930143906770587
   105   1      14.438008910956425      5.7674293148470284      28.598253257007318
   106   1      15.981389940888757      7.1336379410266533       1.415186989489496
   107   1      14.584300928170311      8.6381649575469481    0.094930406555147409
   108   1      15.988904668016918      10.102707025211783       1.478569369030923
   109   1      14.280215245720337      11.443993953331026       28.44203441519452
   110   1      15.917228453711452      12.998320715322738      1.2417536209800337
   111   1          14.40546737357      14.423303295823613    0.079034357553609921
   112   1      15.938714178631461      15.970335797693378       1.574200553005902
   113   1       14.27192760549346      16.948403237890474     0.14679214217399017
   114   1      15.677860996072393      18.539956422349924      1.2012593640381501
   115   1      14.428554608023944      20.090366251641328    0.076091657382801187
   116   1      14.623073511466282      22.943759016774511      28.631821127791369
   117   1      13.089750734170968      21.515212202969334      27.591514128986454
   118   1      14.530180834976083      22.842080689190801      2.7733843809368062
   119   1      12.908586359571785      24.156209632063863      27.213494600889121
   120   1      15.782161095885646      27.244114102793514      1.5013248823564695
   121   1      17.459545378223588     0.19179989452354679     0.23562904845445024
   122   1       18.87386140152379      1.3710101160395431      1.6846055260337602
   123   1      17.683428611110045      2.7851372063828106      28.600709310888863
   124   1      18.392983456498346      4.4463229532678072      1.3682626361147652
   125   1      17.179729435136263      5.7812724034557386      28.666813240570836
   126   1      18.838397577692593      6.9703664018041547      1.5224176485720378
   127   1      17.430519454532426      8.5642544466322068    0.023350020555835724
   128   1      18.780792231251379      10.033958703211624      1.5128980629071747
   129   1      17.450136509501274      11.564808166387811      28.424107219858328
   130   1      18.559171968101609       13.03938046267265      1.3937505123383296
   131   1      17.306862319936922      14.573384759036607      28.639273410236711
   132   1      18.705738815188223      15.749692702021656      1.4977897739061732
   133   1      17.231933228831597      17.007920031908039     0.15384354468119457
   134   1      18.554166740421042       18.34166381458758      1.3316786878585836
   135   1      17.349438652578659      20.021152375876682     0.30155818105250681
   136   1      17.396928940466044      22.961136603201439      2.8898128317175273
   137   1      17.118887590932058      22.793294976349099    0.013539937466941871
   138   1      18.958265497547323      24.662804716603127      1.5071109027164089
   139   1      17.343557819055022      25.954383961808421     0.10987057504094067
   140   1      18.724751818979122      27.411517747741144      1.4751384910948795
   141   1      20.209374325473384    0.080038849570235104    0.049058288519052043
   142   1       21.45098057005665      1.5453038836999542       1.622099760802131
   143   1      20.072638160751328      3.0740683442868835    0.052135692620799909
   144   1      21.511733286123331      4.4468596111176364      1.4105379278483383
   145   1      19.936717108416495      5.6469481515879991      28.483000633075495
   146   1      21.501067864084369      7.1720365890142919      1.3667242021740658
   147   1      19.915046032040458      8.6837908172011034    0.035444729139385366
   148   1      21.611566177752437      10.009873101711793      1.3656270871303708
   149   1      20.183251698803293      11.475314068635305      28.424727025481161
   150   1       21.36485537309229       12.98499355568277      1.5943961851409412
   151   1      19.926443800460596      14.261639873293959      28.558289171038311
   152   1      21.480888513398757      15.649449480100488      1.5201815479962768
   153   1       20.03907575655305      17.050344710769284   0.0091530164390064804
   154   1      21.578488549791977      18.699016261581921      1.2464610824250248
   155   1      20.068767816640943      20.130425889580753     0.19753161374934503
   156   1       21.35946501173693       21.63622465028844      1.5087757838361096
   157   1      19.904456545303539       22.95119147905806       0.330606881417919
   158   1      21.493097286074295      24.529295145589586      1.7397939609661657
   159   1      20.032826429400181      25.855636748289541    0.071137413022904591
   160   1      21.806116886824245      26.943907144390089      1.5349984551847227
   161   1      23.033383495293727    0.018848112131833569      28.585556138414262
   162   1      24.425159508218972      1.5037953931652275      1.3929938701044311
   163   1      22.915152885139381      2.7763403446482013     0.10382435223698398
   164   1      24.407294513303309      4.3426285297512059      1.4705347271674443
   165   1      22.974383554801882      5.7630446939549129    0.082563342132755291
   166   1      24.576205382341907      7.2827487231540236      1.5353724815907968
   167   1      23.086940745610601      8.6386726732276706   0.0031277592690685278
   168   1      24.354937605839741      10.217746708981929      1.4360186171308427
   169   1      22.637790997490466      11.531949966789057      28.645257555336144
   170   1      24.074758059403315      13.006720167286414      1.3964021742250341
   171   1       22.72992380992525      14.253037743652767     0.13269132300499673
   172   1      24.397736659435083      15.721210385693063      1.4000657819805162
   173   1      22.967267468285094      17.075205421707107     0.21848828159285175
   174   1       24.48804452314922      18.448577735643081      1.4724806090775346
   175   1      23.148499514347542      19.929989984321494    0.092093298440772756
   176   1       24.55708061188669      21.519597045758825      1.4565354291288819
   177   1      23.085596807127892      23.012064984427468     0.13725351827703197
   178   1      24.440507163305856      24.371526745189659      1.4443353425326453
   179   1      22.913867140707559      25.858740362013904       28.60209857640821
   180   1      24.356803972483618      26.997059355554395      1.4740729144106341
   181   1      25.876371757234594    0.077253940147989059    0.023584674547009854
   182   1      27.160414950921737      1.4527957654223191      1.6155550479223384
   183   1      25.984595504612479      3.0649841731242033      28.690854644838268
   184   1      27.311120486329933      4.3930318239699071      1.5198521020268581
   185   1      25.850571198016834       5.614000712067778     0.11072537532028248
   186   1      27.242381562260086      7.1630830123618727       1.533356710793885
   187   1      25.820526175935267      8.7164317174296659     0.22602200724793409
   188   1      27.306318808688648      10.111982946414134      1.5436917780527566
   189   1      25.770175345110843        11.6115566733321     0.24035471476361187
   190   1      27.165820378195161      13.028914600844153      1.5669748061071473
   191   1      25.971585149874127      14.501594983383077      28.454022677375455
   192   1      27.267955074178712      15.837209065808048      1.3549449318958628
   193   1      25.792975871042326       17.07587806697379      28.665372467843895
   194   1      27.141968532160178      18.572723011466859      1.5488504817716047
   195   1       25.91816483037384      19.941764889580114     0.10091597827681646
   196   1      27.375624210115017      21.451787052896055      1.5421596337797498
   197   1      25.926632122021665      23.018565175327158     0.16183661623502976
   198   1      27.520253894651546      24.431499173161114      1.7470829549156739
   199   1      25.961908238555012      25.781550803774973      28.635649672018999
   200   1      27.524115113729959      27.000745836573181      1.4212459129630355
   201   1      28.618535456350759    0.023924176699529367       2.849782899347395
   202   1      1.4623481956319451      1.4217599474777212       4.538894961043904
   203   1    0.025932020210234778       2.960549470882857      2.9010874887012941
   204   1      1.3443282221362665      4.3566064770851529      4.3831471542199747
   205   1      28.647718696348196      5.9438546909827679      2.7812386986625257
   206   1      1.5775614575580801       7.259422775535552      4.1023455254339734
   207   1   0.0042654133649200586      8.6316595916998029      2.8773214352733274
   208   1      1.4360644457400102      9.8293791683627045      4.1796524442982737
   209   1      28.674635916594045      11.530565298810325      2.8927927252202017
   210   1      1.4022627050985097      12.825607882897415      4.5468909574576939
   211   1      28.576252236407601      14.570777007946555      2.7714065972323958
   212   1      1.5230757674397184      15.814672733059711      4.4083189931674331
   213   1      28.671185908550004      17.156845783395418      3.0201792223933186
   214   1     0.11800541193660043      17.152095560482657       5.778455297943272
   215   1      1.4778611384963389      18.437188724297755       4.403672862099417
   216   1      2.7869553205232727      20.046860402470102      2.8852665153421762
   217   1    0.020994700223845267       22.92755141194991      2.9772759103116284
   218   1      1.2481491176872175        24.5183840918342       4.481839248793869
   219   1     0.23894024457763585      25.941595165969876       3.171580137303089
   220   1      1.6391203270506729      27.436301816322217      4.6802582079912325
   221   1      2.9536469478456224      28.620776994907217      2.9412489984158174
   222   1      4.1925786102486988       1.557591135225685       4.367897714790022
   223   1      2.7829642883878924       2.880495829301116       2.940925088747067
   224   1      4.1346686081699637      4.3610895939750485      4.3418159149586568
   225   1      2.8221578091077042      5.6513797534036518      2.9923009444002813
   226   1      4.3752425060590632      6.9045327677463408       4.293141602223864
   227   1      3.0288764781540864      8.5175629693161472      2.7949916813798028
   228   1      4.1258974756643196      9.9254374130159952      4.2323279978716961
   229   1      2.8735316785174505      11.588706766819014      2.7652168929256842
   230   1      4.2555314944992029      12.906305357364873      4.3423436422401327
   231   1       2.902162657139959      14.266913027940532      2.6554546824734659
   232   1      4.4211451584872767      15.471951627404927      4.2175524197927743
   233   1      2.7655154292730453      17.081576315628848      2.8290697653560399
   234   1      4.2955537782794888      18.570670700810869      4.4135001002393688
   235   1      1.3451148395064827      18.491135370680535      1.6500601432138076
   236   1      4.2876850538706064      21.693261740621654      4.3419793480525426
   237   1      2.7713072379989407      23.093269329539911      2.8623025062946441
   238   1       4.473641997451888      24.169096128521151      4.3441350995798098
   239   1      2.7933689476176733      25.759767663893726      2.9205907742753774
   240   1      4.3740758926577898      27.161451696551936      4.3457339684023193
   241   1      5.8009242033355966      28.631635261695237      3.0362462097301868
   242   1      7.2306440335141247      1.5591354740734678      4.3259923127386299
   243   1      5.5963909609600675      2.7624634612692032      2.8859073156135793
   244   1      7.3701037209555595      4.3971658699556944      4.3730251361953476
   245   1      5.5259040116241191      5.7524867400437536      2.8851609845874604
   246   1      7.1026621325388408      7.3478232054120083      4.3315334008834014
   247   1      5.7377678990688787      8.8489424539602712      2.9315135258978637
   248   1      7.3484376818363142      9.8969798736841952       4.300769865520981
   249   1      5.6819678150695214      11.493987215560294      3.0375554822945876
   250   1      7.3413349091008975      12.849814226702399      4.2606629018342588
   251   1      5.6762226255517643      14.153925824274014      2.8270443801118623
   252   1      7.2327346676879358      15.663103148366405      4.2035209523114077
   253   1      5.8196826571131286      17.154548902598503      2.8527668569828846
   254   1      7.0510632620406994      18.651504150371572      4.2430451896115065
   255   1       7.380455123634011      21.572831713516678       4.204872759339918
   256   1      5.7474066565038093      22.707842663776411      2.8372286155546473
   257   1      4.4478729169330586      24.431812078310394      1.4401745848786172
   258   1      7.2272278842877835      24.328431596897449      4.0523489128838266
   259   1      5.6957365053368836      25.786556125424518      2.8982986146489611
   260   1      7.1784314691315361      27.282755595214123      4.2762202479189222
   261   1      8.6039243719412166      28.604289190834677      2.9560853063315333
   262   1      10.039039603456335      1.4932785093517498      4.2651296405323489
   263   1      8.7493363739182026      2.7081986123363531       2.848800127297614
   264   1      10.091715687106205      4.3754581743298191      4.3687748902904602
   265   1      8.5079298597146078      5.8431715713216477      2.9035084856392959
   266   1      9.8952711518171768      7.1136083511455332      4.2660099668359699
   267   1       9.778846516350459      7.1685097752656883      1.3975406314392798
   268   1      9.9945485242675076      9.9298000868691272      4.4031917749048146
   269   1      8.5510242153947082      11.368206932785435      3.0000340692003995
   270   1      10.115332159830388      12.774288359058044      4.4038388163683058
   271   1      8.9012857779612435       14.17876454464365      2.9640764761030511
   272   1      9.9387903914654334      15.885595880008658      4.0758693009883897
   273   1      8.5514181134725842      17.422356889755878      2.8164909273578576
   274   1       10.13735446661914       18.70206777119326      4.2873467107929688
   275   1      8.5068485259540569      19.914279378728565       2.712239025467726
   276   1      10.065924325844257      21.534895073216969      4.2480786613694352
   277   1      8.6538976856627148      23.003165455643202      2.8208665153565913
   278   1      10.072875389784928      24.415851196580292      4.2463279472882958
   279   1      8.7101566605975744      25.689831920184595      2.7796449227603706
   280   1      9.8843502393832221      27.242878398201047      4.3827996393281836
   281   1       11.53443166151976      28.492549589460285      2.9555915020554027
   282   1      13.034752088125762       1.355310392852072      4.4282400668434958
   283   1      11.505601212153088      2.7873320445572518      2.9792378208553929
   284   1      13.001031023923332      4.3861197071488176      4.4840629993087981
   285   1      11.262252936005471      5.7659368371045243      2.7329992187586076
   286   1      13.066353909418568      6.9031989038228527      4.3694478252296287
   287   1      11.410134829189721      8.5982775564997063      2.8495981630032592
   288   1      13.096649395307731      9.6938498137206324      4.3393074181863049
   289   1      11.775802249162023      11.287023446991533      3.1367633192402167
   290   1      12.758245056814557      12.862486911621573      4.5467456850919215
   291   1      11.543624406587094      14.044133344980166      2.9954702764783119
   292   1      12.986987866014081      15.748750287043926      4.1988019691455083
   293   1       11.53565531338495      17.284007912335181      2.7235288718735444
   294   1       12.97122138255911      18.600619820990307      4.2596986891205706
   295   1       11.57666536877003      20.001055434291111      2.8584694493513432
   296   1      12.875375168137655      21.484456947968585      4.3312990697279226
   297   1      11.726561021331815      23.050535967487708      2.9113870637509391
   298   1      12.860244526980388      24.377812274350465      4.3769511884330177
   299   1      11.544812640785267      25.920471859635953      3.1466363087063951
   300   1      12.997041609069347      27.054015702678342      4.3596789646770251
   301   1      14.389515175534086      28.468193502936561      2.9677996939275149
   302   1      15.780235199493399      1.5560209069970725      4.2715154210545121
   303   1      14.326939928738573      2.7624030985444721      2.7342587006515591
   304   1      15.730181469049382      4.2425147704544566      4.1047376558021975
   305   1       14.39139453467021      5.5976791747534431      2.6632821178466979
   306   1      15.762113250974584      7.1346168515479489      4.3434882135077286
   307   1      14.284526544816481       8.404210496651185      2.7087585951499475
   308   1       15.95813733597765      9.8397886670836865      4.2793847594104637
   309   1      14.428391391463322       11.42544093014072      2.9890860213176107
   310   1      15.704302374231364      13.105557472686193      4.3668949257460321
   311   1      14.382745814501016       14.24919810487977       2.712458628017929
   312   1      15.653507929395603      15.609055546814123      4.3047835712029192
   313   1      14.370350327391623      17.090536261522395      2.9480862732542885
   314   1      15.590501135979109      18.735062125509589      4.5178174214301343
   315   1      14.215615550489522      20.100515513632672      2.9002739723545838
   316   1      15.963346067300311      21.506240708250719      4.1375353166083757
   317   1      15.772406173508992      21.323101667701259      1.5083025058367514
   318   1      15.869911302537885      24.567638454731732      4.4371086676915645
   319   1      14.257603975659803      25.875849750592863      2.7489161625324061
   320   1      16.023822308443066      27.137305488565911      4.4643653091101916
   321   1      17.049564138316683        28.6882452606438       2.896532569696332
   322   1      18.623254995751097        1.30050868616994      4.1993890339728539
   323   1      17.240901219253978      2.8113094248624502      2.6164642430540641
   324   1      18.623668662268656      4.5000365262732851      4.3919838228643107
   325   1      17.348275519906316      5.6888567271451906      2.9668822605412202
   326   1      18.458441401574341      7.3059959110659518      4.1997724032492902
   327   1      17.442213077679416      8.5725036727525534      2.8183267856697163
   328   1      18.832585701167254      9.9508581234305922      4.3744095836960302
   329   1      17.351705275480651      11.553289319883229      2.6978633302996062
   330   1      18.697083185867275      12.883600445823053      4.4308908640882105
   331   1      17.055748404794421      14.247479422221213      2.8545640183350192
   332   1      18.399215498723922      15.751581075352018      4.4216217042387651
   333   1      16.909085428257121      17.178181427605239      3.2185294301724223
   334   1      18.540801670022059      18.617796745537799      4.4760642149492256
   335   1      17.140119646001892      19.750460610970041      3.0260953428235084
   336   1      18.585422587163116      21.450229758778203      4.2533774286386246
   337   1      15.827092430699263      24.386433562455089      1.3860810746966767
   338   1      18.772883543229703      24.418702004979004      4.4736234938674615
   339   1      17.317262478698002      25.908981242836084      2.9714672600550416
   340   1      18.512135495587493      27.350941428756659      4.2243403325138775
   341   1      20.120508196699276      28.598794907760908      2.8961219090184489
   342   1      21.487740178498651      1.2562395308721426      4.4070155990128317
   343   1      20.241756051275427      3.0080025800753551      2.9698974432670484
   344   1      21.427365498194757      4.5058249929626193      4.5869956929895235
   345   1      20.155493370173723      5.7181886310549119      2.8154363190672371
   346   1      21.280168192238566      7.3158523662930603      4.2694543239029139
   347   1      20.188265008146757      8.6721695973423767       2.651474140054312
   348   1      21.375568303602556      10.121800920477378      4.3105998646885526
   349   1      20.112225500595493       11.34321922263015      2.7872181524611515
   350   1      21.448976114007397      12.755151118046347      4.2710044193629573
   351   1       19.88854206965145      14.054544771455467      2.8905128011280228
   352   1      21.335117259359055      15.682585372761533      4.1471747133065051
   353   1      19.960881671776935      17.135964872254171      2.8481779949943649
   354   1      21.405905712292757      18.826742949377266      4.1934958539220233
   355   1      18.582194778089629      21.480212119751357      1.6214226615846419
   356   1      20.149999716623668      19.885567438020836      2.7489468800857582
   357   1       20.00307518217879      22.992354627466412      3.2597593332623762
   358   1       21.62191200474156      24.354534629949313      4.4203918389251706
   359   1       20.12573469575737      26.001761675048265      3.2049350561287486