dump/Cu_400_5/steps_51 (written by ASE) 

1995 	 atoms 
1  atom types
0.0      25.526554800834361  xlo xhi
0.0              25.5265548  ylo yhi
0.0      36.100000000000001  zlo zhi


Atoms 

     1   1     0.12886393158106144      25.457720688100668      35.882085728224347
     2   1       1.420317486615051      1.2279705561492074      1.7364653599415887
     3   1      25.391486066469987       2.600128620564917      35.957171317328452
     4   1      1.2607664300192918      3.8283288335994969      1.8038927699340539
     5   1     0.08188349277768775      4.9951112172660883      36.081904389251164
     6   1      1.1563250683090596      6.3925299004766458      1.8432574779622211
     7   1   0.0010589776665207553      7.7181408690255555     0.10589409847145817
     8   1      1.0740650630504307       9.037129246807007      1.8804831821735657
     9   1      25.500496922903988      10.140298015404603    0.032077353734939598
    10   1      1.0829352688645306      11.580146436316097      1.7409735020463373
    11   1    0.011294236073811154      12.813268000833968        36.0993582811696
    12   1      1.2644434525658685      14.139388199037549      1.8622564399493524
    13   1      25.444914679240423      15.278286976550302    0.061601038513924733
    14   1      1.2160278169003222      16.683571612104263       1.850217941770266
    15   1      25.472539551978961      17.893831440848253    0.093787254448023008
    16   1      1.3827461084232469      18.976047075185562      1.9501812060716128
    17   1     0.07819848162994314      20.328010503018181      36.098237761670674
    18   1      1.3324267736924043      21.609509691079406      1.8132106111922097
    19   1      25.502137425368076      22.727113306613912      35.944379340173285
    20   1      1.2553671818386525       24.18106963159466      1.7934138580707435
    21   1      2.5073317372181974    0.019907192306793373       36.02246275756702
    22   1      3.9609908318234366      1.1992451438370668      1.6485422563429999
    23   1       2.342552914236248      2.5711489113983226    0.085378522138739782
    24   1      3.8436660222945882      3.6342954544770807       1.784996669040106
    25   1      2.4938857106047001      5.2040482363586751    0.040715779620632143
    26   1       3.551744437228658      6.4235773673542047      1.8826452737893296
    27   1      2.5440116904344254      7.6272455015524567     0.02526518298881229
    28   1       3.648615849469766      8.9903849341176851      1.8876760303872844
    29   1      2.4205483313014464      10.309495511300332     0.16685065818812758
    30   1      3.7938725986629751      11.522487925726152      1.8444220341587074
    31   1      2.5587881508216217      12.917904121048034    0.047663484126144219
    32   1      3.7726709556326341      14.117951481081501      1.9142088111925899
    33   1      2.3724634508698865      15.422758458200347    0.026829990509418155
    34   1      3.8730356520072409      16.559042914646778      1.8506171389822503
    35   1      2.6193743040709703      17.987596083038977    0.096915472307603154
    36   1        3.90569601846871      19.058740869561269      1.9694051232811847
    37   1      2.5941392557958345      20.324711515843941     0.20337960719757589
    38   1      3.7276881305209346      21.653480472411129      1.9546306663426307
    39   1      2.7645743150947157      22.990475126405713    0.036186509619222013
    40   1      3.8499934511389471      24.239811804407012      1.7526518780142402
    41   1      5.0766395321979827      25.472272921998421      35.965152931254828
    42   1      6.4201958079369179      1.1705844314604692      1.6794754753977243
    43   1      5.0393023504000682      2.4531262065593009      35.987942965895215
    44   1      6.2549886801093173        3.86710013642237       1.707553501342159
    45   1      5.1279347511258804      5.1607858445750558    0.017101463167512078
    46   1      6.5777062564806794      6.4360329515490138      1.6814758042096987
    47   1      5.0843293538494789      7.7267249895098065     0.19618089912030415
    48   1      6.1803130238288517      8.8958840338803267      2.0137245996350557
    49   1      4.9811096730336715      10.228463617145168     0.18961680974011869
    50   1       6.530787757222007      11.332750726174725      1.8041641989948509
    51   1       5.011602260072431      12.790087790052773     0.02717345463056518
    52   1      6.2409299774400004      14.057378328603761      1.7964447896179536
    53   1       4.979270266603546      15.387012074811908      36.095344870928685
    54   1      6.3595184760488888      16.573152566570037        1.97533302528484
    55   1      5.1004207633150331      17.879545020397821     0.18705424519142758
    56   1      6.3811677522414474      19.276166479628916      1.9815456869459362
    57   1      5.1018088851720611      20.401566263914155     0.25212044374994774
    58   1      6.6380453794421435      21.758412831844218      1.9559950191061264
    59   1      5.3077524222182912      22.889325552294171   0.0099432226678800393
    60   1      6.4267374582275405      24.197113290258049      1.8765477465252494
    61   1      7.7448392356314173      25.424601413107951    0.014596865511020962
    62   1      8.9619529428656666      1.2972927836059338      1.6694826441263892
    63   1      7.6756738322871527      2.6462286676750995       35.99883550822662
    64   1      8.9426701630693302       3.857418479750423      1.6066091926215544
    65   1      7.6735096500246796      5.0299608628076369      35.895580746891198
    66   1       8.957235887825302      6.3245984751222926      1.5590035886434626
    67   1      7.6933213233863134      7.6544676974948898      36.062690137970883
    68   1      8.7081546844149837      8.9079473445556232      1.7566841312544612
    69   1      7.4822832741024667      10.236843333027601      35.964320646373018
    70   1      8.9306526750640458      11.521798805632665      1.8746053222601731
    71   1      7.6152642248600335      12.605095070081221     0.10759143447054369
    72   1       8.814688867772082      14.024846100436726      1.7777826906642638
    73   1      7.5173470129666171      15.273688759825678    0.014345692772576505
    74   1      9.0313433348265448      16.645173888665688      1.9037952416903188
    75   1      7.6405799742061191      17.578343837105251     0.13835352147925717
    76   1      8.9729024818413112      19.177476917678622      1.8119070633722685
    77   1      7.7628117672457764      20.399681697623603      36.051761055891959
    78   1      9.1331029034458844      21.713479385358621      1.7204570293054322
    79   1      7.7155545281422508      23.028941423608316      35.944000580300916
    80   1      8.9072856503956928      24.127705733010469      1.9187754481033619
    81   1      10.136532535105399      25.503672945707638     0.11995246037528208
    82   1      11.321296241603271      1.3834630660314562      1.6858398708173792
    83   1      10.215917259589496      2.5121749570262417      35.997246079490012
    84   1      11.460623947252417        3.97117397736044      1.7861982074978742
    85   1      10.184454064285042       5.102546879109175      35.959438417037155
    86   1      11.432743991980354       6.495960181386641      1.6596822187926921
    87   1       10.17448529283044        7.66883466555384      36.084338821133223
    88   1      11.501421195251291      9.0180042852088214      1.7279888626938502
    89   1      10.241343251576572      10.209712450793194      36.009239253984845
    90   1      11.374457749375013      11.382593045098604      1.7433820581131731
    91   1      10.179938877034106      12.882804697973942    0.089650103055350788
    92   1      11.685243333780699      14.247649607462403      1.9050847952404428
    93   1      10.015262112135069      15.270254544110362     0.10064191734639953
    94   1      11.471773097419605      16.724133066515869      1.7274853816303346
    95   1      10.097334517186885      17.804587314528952      35.877385967946552
    96   1      11.313696001050157      19.225188282836065      1.7666785876529618
    97   1      10.220095267061955      20.370854579898126      35.914384900272239
    98   1      11.634927494900106      21.826240742622858      1.8641400647204012
    99   1      10.193463881087791      23.044992642512433       36.03254032664271
   100   1      11.529534081250578      24.485120586365309      1.7706215770725175
   101   1      12.812006183191993    0.031066758463119976      36.018260457093604
   102   1      14.020834950885151      1.2247027711755298      1.8052431377358189
   103   1      12.704960454096462      2.6704021316388928      36.099531393525496
   104   1      14.128183491887215      3.9289608358540695      1.7842167105836444
   105   1      12.763978676881488      5.2847534411823451      36.006326292359937
   106   1      13.967302700556628      6.5197426211098044      1.7065082938160581
   107   1      12.656850426403004      7.6376104994293286      35.907929272071897
   108   1      13.898165831654952      8.7963361307753747      1.6849093135159141
   109   1      12.645416853365042      10.250893809752482    0.011070553000433844
   110   1      13.899841326372181      11.444276902007113      1.7039694226049849
   111   1      12.620277502383086      12.808771548686419      36.076757125405685
   112   1      14.165115839004702      14.136328023755427      1.9531486870977568
   113   1      12.653960860508894      15.366819556211066      35.963356213720878
   114   1      14.057070572994485      16.483674179312768      1.7741364033010187
   115   1      12.743547499914149      17.792172552452936      36.066684542548721
   116   1      13.828888941649311      19.007956830685369      1.7810484235965751
   117   1      12.670667548849394      20.350730060058229      36.023915161508121
   118   1      14.253435516849207      21.499379464874494      1.8656608762663287
   119   1      12.843829733875104      23.162758317991806    0.011076859516731489
   120   1      14.167327698690903      24.293303035926765      1.7043620698539721
   121   1      15.375795283551568       25.47581878964014      35.979722307491414
   122   1       16.56383116431083      1.2280254092042873      1.7862797539047262
   123   1      15.178689150515229      2.5438882011558688      35.958955920192096
   124   1      16.614591515895938      3.6695921003547936      1.7748291878198883
   125   1      15.384294569604922      5.0951423412081818      36.003146995428445
   126   1      16.631802709526038      6.2677355514893085      1.7801199441121418
   127   1      15.226695148347931      7.6457050600925625      35.859171210473413
   128   1      16.693637940161292      8.7524604382355502      1.5218000202000797
   129   1      15.214942408513053      10.095130818968114    0.034026121416229661
   130   1      16.472853264412464      11.288386373020524      1.8385390317734382
   131   1      15.472175966754007      12.706287214058195    0.067959685709615872
   132   1       16.63881339344303      13.883491900750078       2.036683437282512
   133   1      15.300939174238295      15.277694556121002   0.0097724127276478615
   134   1      16.562851607300452      16.456670705809263      1.7039230993376564
   135   1      15.169809686797034      17.884464766067069    0.080976189024625028
   136   1      16.363775960264352      19.125057435949561        1.79339550431647
   137   1      15.212998053934708      20.365267283262785     0.03128574185302567
   138   1      16.631610856308157      21.654316916465106      1.7370212762710497
   139   1      15.313776222755436       22.85773352816145      35.940567404417514
   140   1      16.543252225469079      24.065670978905466      1.7958628016935809
   141   1      17.753467551261558      25.381033391608764      36.064028673154212
   142   1      19.060233065838801      1.1414536883275945      1.6855487311967647
   143   1      17.787405957949694       2.465014623626979      35.980826470335806
   144   1      19.078820505131951      3.6605382058513394       1.863524799087747
   145   1      17.816167268957283      4.9982789958247382      35.983886047921217
   146   1      19.165959774378731       6.205805313805719      1.7576489899239629
   147   1      18.032962138318101      7.4058247407124318       36.02058409552491
   148   1      19.204800155079059      8.8990164799456544      1.7775063067297634
   149   1      17.880497334653022      10.405114829491685      36.019178218403979
   150   1      19.275384088989547      11.366692904431288       1.637227071977249
   151   1      18.100427322161273      12.851762807182132      36.059478242316665
   152   1      19.247504720996162      13.962870084472232      1.8279682637051209
   153   1      17.754521014632399      15.185758486298088    0.014459846487920931
   154   1       19.09362945965556       16.47186312123873      1.6014334742308405
   155   1      17.729186761121074      17.719048802627061       36.06534978297875
   156   1      18.988291469304855      18.934148599123535      1.9026082403468896
   157   1       17.83198302444903      20.286076876707646      36.053799799450267
   158   1      19.177369430077139      21.723129289122785      1.7499217344534594
   159   1      17.815008516234517      22.975351374430499      35.957285653390777
   160   1      19.040802379945671       24.26974932800201      1.7889644144664534
   161   1      20.478809094064253      25.513097023493803      35.965556296152549
   162   1      21.721030155302969      1.3428766223940065      1.7819580605290419
   163   1      20.460849506653073      2.4982474851096685    0.039259121261954945
   164   1      21.528052962624479      3.8890937418216338      1.7308983508899141
   165   1      20.227805807602415      5.0361964583753709      35.948448437877751
   166   1      21.628199897417549      6.3585362152761364      1.7492841055915953
   167   1      20.513623595484631      7.5327912801375492      35.978276652237675
   168   1      21.638835463083748       9.025711302019646      1.7224765428359667
   169   1      20.417700258697838      10.077759147717749    0.061978693882031005
   170   1      21.885985163393112      11.509642021474907       1.952932118084221
   171   1      20.600936057436993      12.747644909608926     0.20674842091116244
   172   1      21.746188982114756       14.08955426581748      2.0453932495065947
   173   1      20.505452604469433      15.131236380097549    0.072451065451593882
   174   1      21.651683745130899      16.618131236929198        1.87861113688449
   175   1      20.445152431687593      17.816813394232856    0.037528600947371003
   176   1      21.671736436800536      19.120704432851571      1.8381010524493819
   177   1      20.427611979004499      20.296006872049158    0.047005799468001895
   178   1      21.727548043306779      21.665065465579875      1.8352343579949764
   179   1      20.382370625621295      22.964764674086364      35.975341485779047
   180   1      21.589269043350956      24.253494856318888      1.6220747489581511
   181   1      23.053552517186596      25.428027793456728      36.056519042329946
   182   1      24.157465120196512      1.2411603981583741      1.6644207297246805
   183   1      22.841686454319309      2.7144404591536797    0.087214471039510619
   184   1      24.305928411881418      3.7302766933138716      1.8969385858147578
   185   1      22.931284018605915        5.02497297692363       36.07450098743265
   186   1      24.197518270845567      6.2338879510636849       1.813754190128295
   187   1       23.10019291940926      7.6307229304501467      36.087450309733661
   188   1      24.172743294613511      8.9199116833297989       1.815685294483079
   189   1      22.991661815255785      10.089503389194412    0.037543544182415012
   190   1      24.262703567795857      11.573971066741093      1.7127887127696784
   191   1      22.978283701035821      12.810611735804073       36.02399511135642
   192   1      24.219766025934984      14.026630629977307      1.8199082917323608
   193   1      22.997813807597577      15.252824203338021    0.067243598201798607
   194   1      24.137070622077303      16.474835632081959      1.7540583228997542
   195   1      22.865336233795801      17.937910889957127    0.078569070724813783
   196   1      24.373303296976584       19.11900959082692       1.886849407104308
   197   1      23.006239822229237       20.34760800416592     0.01477934118898928
   198   1       24.35905342164811      21.590724708563929      1.7904359188834189
   199   1       22.93573245076518      22.826893783217372       36.03727724943159
   200   1      24.265726993916598       24.04301025151284      1.8152121623308524
   201   1    0.027841352500665956       25.38759578360753      3.5605917573346693
   202   1      1.3055417130945588      1.3362798159775688      5.3301884469400367
   203   1    0.040452341353569413      2.3313300090111468      3.5825721001948536
   204   1      1.1958156973768475      3.7831313876884103      5.2963936851903455
   205   1      1.1429791761686163      6.4000871386131131      5.2601532251759675
   206   1      25.343363490335239      7.6660805435549912      3.4737786255901928
   207   1      1.1911391468509394      9.0533476251185228      5.3365017653193156
   208   1      25.288774198550705      10.201363209649905      3.5784458957979952
   209   1      1.4277491123939745      11.606846469608334      5.6275995738533888
   210   1    0.042376633496690665      12.652316088467476      3.8241043056804767
   211   1      1.2472872793104861      14.186582154384649      5.6296524728780364
   212   1     0.18275999473006535         15.405443514765      3.6017875004759943
   213   1      1.3847397756427242      16.584021537422316      5.5464180928500175
   214   1   0.0011252211964766696      17.752366753586102      3.7542188404575128
   215   1      1.3227469365572937      19.094806008069966      5.4695440447773649
   216   1     0.10108314700226732      20.296384426879495      3.6887163904932505
   217   1      1.3950461739688951      21.594075289818555      5.3602753646112404
   218   1       25.50042557908969      22.794365659012925      3.6027032083497139
   219   1       1.365021875671288       24.12086335543982      5.4148683253899597
   220   1      2.5783860958766405    0.039507050723938862      3.5844820925645551
   221   1      3.8838400645087359      1.3914967980541557      5.2994899766518113
   222   1      2.6444627868407133      2.5951240486946676       3.581581906574423
   223   1      3.7465660887250047         3.7984756535335      5.4257885888258377
   224   1      2.5115496027597621      4.9523936572902825      3.5962092684773794
   225   1      3.6751289759823762      6.4448911394915838      5.3328802732800797
   226   1      2.3212211706185761      7.6459508924327011       3.604475661998892
   227   1      3.7035174894047467      9.0412648948809249      5.4291355808619821
   228   1      2.4881922939769998      10.447444736054621      3.6606354385549169
   229   1      3.8159354792629379      11.400903398313259      5.6124099503250795
   230   1      2.5279608908271465      12.893612195263943      3.7487098129701901
   231   1      3.8381915780202314      14.084629182418073      5.4224438783750717
   232   1      2.6029807064416026      15.382810285916792      3.6977145083824818
   233   1      3.9195950594499567      16.767609074274191      5.5176857333311773
   234   1      2.6463503549133249      17.814335474776254      3.6745477063667433
   235   1      3.8240813612331364      19.193241904479951      5.4666459903473807
   236   1       2.673970176799322      20.406034800825942      3.6888860643420522
   237   1      3.8077156786740907      21.758188005668938      5.4381752331226165
   238   1      2.6246846845861871      22.999605987919356      3.6500728508382272
   239   1      3.7187260448411066      24.253012305590264      5.3662565876840382
   240   1      5.0560482752522118     0.11142237136967721      3.4762975114148378
   241   1      6.4108995765079859        1.29523303535012      5.3085569546531177
   242   1       5.236327521777361       2.617533479070441      3.5313667506269533
   243   1      6.4628921830449748      3.7765467716836087      5.3392992292752979
   244   1      5.0532236017245582      5.1918148788486453       3.616470379069086
   245   1      6.3018264444245027      6.2886319832809301      5.3958132696564363
   246   1      4.9190559364772817      7.5757510394821512      3.6671629601956308
   247   1      6.1946214782025919      8.9935552282545697      5.4769500082651863
   248   1      5.1091386367554099      10.389061781586861      3.6283605302132727
   249   1      6.3164948840051514       11.52028727443261      5.4908910743422092
   250   1      5.0624402084641211      12.762110100031798      3.6822393593972693
   251   1      6.3533636234601776      14.225393317900075      5.5638202162804369
   252   1      5.0705025239914585      15.407608539812699      3.7477712591477226
   253   1      6.4245831735295491      16.617157755583829      5.5629017946355725
   254   1      5.1062747138659139      17.856726172560911      3.7865200015693112
   255   1      6.3047878424333863      19.117335361010323      5.5669903958913647
   256   1      5.1502321308627463      20.399536563226903      3.6295879938482951
   257   1      6.3089899047640365      21.749975167641537      5.5489627106352231
   258   1      5.1787708180945469      23.064561053466605      3.6129802451805406
   259   1      6.3646757819866533      24.193308224285698      5.3346168821753031
   260   1       7.688274910313301      25.440330129457053      3.4925331781942881
   261   1      8.8811354366031043      1.4266039918650451      5.3550472973991177
   262   1      7.5959333794378932      2.5152992584190601      3.3384166454382354
   263   1      8.9375841498424862      3.9687055370763744      5.4191399368615256
   264   1      7.6898615942420401      5.2125916218925195      3.5310621547135854
   265   1      8.9050446579924376      6.4598518985869431      5.4138302325092402
   266   1      7.4758499014744748       7.633354217952296      3.6509306223706277
   267   1      8.9705453421169654      8.9402974813179501      5.5119354629259441
   268   1      7.5633968848310333      10.111147009802249      3.6342563928002476
   269   1      8.7866015335346077       11.49564659893052       5.409345737341237
   270   1      7.7044268395211706       12.66849569201278      3.5087239312865126
   271   1      8.7866602244532768      14.020208944600826      5.5552216801076169
   272   1       7.670926194549101      15.334383870269992      3.6590674392264155
   273   1      9.0203761591063287      16.666077287484729      5.5025192352651118
   274   1      7.7015065659097521      18.005081451031948      3.6602285862949659
   275   1       8.938854793799095      19.188399446379492      5.4904157369490418
   276   1      7.7111603671716669      20.422623689859503       3.742109825950688
   277   1       9.014523668864399      21.781598506350235      5.4774655570050479
   278   1      7.6718196428077716      23.017145841865968      3.8605330041334871
   279   1      9.0434561947548335      24.380157699918751      5.5186215674315555
   280   1      10.209099080655138    0.063370435758988847      3.5884864629825208
   281   1      11.366844841173789      1.3258380210858007      5.4516325777891552
   282   1      10.148391349327008       2.624865372565957      3.3750309585040772
   283   1      11.295751543174815      3.8094013698451623      5.3076010220040883
   284   1      10.094877572532775      5.1204184278782074      3.5102759472669174
   285   1      11.399453622455377      6.2132007706119206      5.4384371023470282
   286   1      10.131731177001971      7.6665478241529819      3.5775258271757591
   287   1        11.3864656937333      8.9681951827084294      5.4465518910401425
   288   1      10.092266981806734      10.255123405135453      3.6675052902896792
   289   1      11.335012340207884      11.418015730086813      5.3834510250366323
   290   1      10.164784125074441        12.8502560029474      3.8026929150190485
   291   1      11.474721161180437      14.043729865997687      5.5711801462705335
   292   1      10.237029073235071      15.341663655189436      3.6230797981193392
   293   1      11.428653891046036      16.637174897461048      5.6330616119049113
   294   1      10.252618101069674      17.919378851704817      3.6300407038686089
   295   1      11.514577826946162      19.130634759744591      5.5855159981131584
   296   1      10.310155269552883      20.535807364677126      3.4973085117752025
   297   1      11.502609949995183      21.796267080605059      5.4973734051707845
   298   1      10.211261232138579      23.091471321388841      3.6609143549621908
   299   1      11.607534569459339       24.16938169247172      5.3727425466678795
   300   1      12.707614514968318     0.05556352843162328      3.6590127296024475
   301   1      13.906808812354067      1.3270457868350118      5.3079875556046288
   302   1      12.663100035251238       2.709320015046095      3.6352683119269256
   303   1      14.214071624665499      3.9358379223871682      5.3121197817305141
   304   1      12.731230310633734      5.0437021781831994      3.5640399836171817
   305   1       14.10317636168619      6.4024784280025244      5.5272218190216114
   306   1       12.74440791965017      7.5846508697393666      3.7621047039551239
   307   1      14.050061304184378      8.8056119548040819      5.3674328322236207
   308   1      12.669313271569683      10.078643979427472      3.6197607434529915
   309   1      13.971343062181274      11.245647955881889       5.443711782033839
   310   1      12.654635720930733      12.570540685758955      3.4744316202241849
   311   1      13.769939357610623      13.804764592164894      5.2846930923042219
   312   1      12.628614780564737      15.464382851130168      3.7877571817637663
   313   1      14.091510678871446      16.475871563428083      5.6483956441622736
   314   1      12.655452697678182      17.968032801820438      3.7134158703967319
   315   1      13.987256763499326      19.011386878369887      5.4508340041968282
   316   1      12.765512815066041      20.453640843156553      3.8244538855431629
   317   1      14.160972716462412       21.58493711122264      5.4548661525815278
   318   1      12.783281440917769      22.990806824989136      3.5319140651060601
   319   1      13.957894164719741      24.354773607207708      5.3281529416972422
   320   1      15.248601258494675      0.0204054479893046      3.5357448630559936
   321   1      16.558866477779958      1.1451508440550511      5.3099442724620465
   322   1      15.269418046107521      2.4909803877782091      3.5581160156880283
   323   1      16.607572691787169      3.5787534502755021      5.3383384973593495
   324   1      15.330558235491466      5.0849496606994871      3.6082846914029569
   325   1      16.605329179356865      6.3856930453302283      5.3142961306639727
   326   1      15.348241538877089      7.6702509775880987      3.5293666854989749
   327   1      16.664393734952014      8.7589419662838672      5.2624686589861049
   328   1      15.133075701658933      10.098573004151516      3.4669885568599508
   329   1      16.503628748856617      11.332996239729393       5.304481165195309
   330   1      15.117860352878957      12.699972495002566      3.5551139150541315
   331   1      16.526828394146339      13.971438997254388      5.4325585461985693
   332   1       15.40518682526973      15.299899104719405      3.6236198473901902
   333   1      16.520178677855782      16.543900200077964      5.5470276961286986
   334   1      15.125668666595747      17.777890549802624      3.4963337836235739
   335   1       16.52982781021916      19.233565410223758       5.488044236134793
   336   1      15.344374265360054      20.107168147217337      3.6535428535136165
   337   1      16.759716234121505      21.675570637445677      5.4333479748292595
   338   1       15.28672476977211       22.79803986402171      3.5599281856972205
   339   1      16.558887182191384      24.179448009915937      5.2870639658773255
   340   1      17.818285500006684      25.389776643225531      3.5073400101864993
   341   1      19.105776182275662      1.1643194734652449      5.5361533636250693
   342   1      17.795459391406524      2.4641118681615883      3.5396595867617635
   343   1      19.063219620024608      3.8711316275903318      5.3214173509927942
   344   1      17.768034920326993      4.9791924232951459      3.5970307097578393
   345   1      19.086598323377451      6.3384798470008468      5.3554412729055985
   346   1      17.909546093280081      7.6559974287154695      3.4298368656897762
   347   1       19.16112651842835      8.7359881202692744      5.3617870984000673
   348   1      17.690296032052622      10.155189380795456      3.6052726969332314
   349   1      19.264380851077153      11.380768829504012      5.3820941270289815
   350   1       18.04058553751188      12.546680519467699      3.6900799162816291
   351   1      19.027654855632218      13.938881356936571      5.4651798154464402
   352   1       17.90427866619202      15.214597615524829      3.4599670885672609
   353   1      19.083403388659107      16.559019211869078      5.3709866746248265
   354   1      17.936662299340977      17.729348941914232      3.6847514033921001
   355   1      19.233846638323364      19.136103079950765      5.4101157109986975
   356   1      18.074106353196935      20.410095428231177      3.6649384280272805
   357   1      19.236848605173194      21.822822068050336      5.5145486781816473
   358   1      17.832452223000832      22.798948195842733      3.5743449397720854
   359   1      18.974501581520979      24.334665369405531      5.3913935993887518