dump/Cu_400_5/steps_1 (written by ASE) 

1995 	 atoms 
1  atom types
0.0      25.526554800834361  xlo xhi
0.0              25.5265548  ylo yhi
0.0      36.100000000000001  zlo zhi


Atoms 

     1   1    0.046655768886529177    0.041156122538236355    0.027635476751811449
     2   1      1.3241420579561183      1.3355891799286441      1.8053400351236404
     3   1     0.03955358530792253      2.5982331470286444    0.095813770093786749
     4   1      1.2750944451595665      3.9525951380172075      1.7859316742856881
     5   1    0.043099321525377189      5.0860018361015111      36.049876520338124
     6   1      1.1493671630331321      6.3938260614576734      1.9467860303081113
     7   1       25.48225284669364      7.7292558733346786      36.011212569478353
     8   1      1.1379013079509344      8.8328813605540031      1.8309552835716558
     9   1      25.358995490609693      10.167949489145764      36.074914062044193
    10   1      1.1700291685556887      11.494514163148704      1.7669523277993346
    11   1      25.468847405246471      12.830598714872993      36.081812457686773
    12   1       1.238601159837142       13.99101705542912      1.8519849903593701
    13   1   0.0081237670167730938      15.345733883104105    0.012514495884204278
    14   1      1.3110790127779048      16.587899913541115      1.8129048157011654
    15   1      25.307996192626131      17.970915568851186  0.00064353717835956411
    16   1      1.2897764325053689      19.092616147865364      1.8487136450075916
    17   1     0.12809925548367065      20.319765023541326     0.07196817612579022
    18   1      1.4151665309007253       21.73013214113945       1.770539001563886
    19   1     0.10011847461931354      23.101734592725581      36.091776434893596
    20   1      1.2585795649973668      24.446747204453573      1.8302768458848737
    21   1       2.678971669647221    0.026281343013470421    0.053984418162303809
    22   1      3.9698534273657557      1.4073326142423008      2.1243007716726763
    23   1       2.580249284449283      2.5859209751233485    0.050307900844961881
    24   1       3.758562965331941       3.900222172248494      1.9295241062582933
    25   1      2.6081772356461279      4.9345830295654594      36.023399713661256
    26   1      3.8297006655662718      6.3104121596428602       1.575728172601079
    27   1      2.4974286274010438      7.5739244946373017      36.045126458866243
    28   1      3.7457176315764928      8.7972038881719534      1.8692654787691936
    29   1      2.4326070132804616      10.222736503604498   0.0095214404824446389
    30   1      3.7950846048081246      11.410032178012706      1.9887971169848011
    31   1      2.3787769596820723      12.788710415466886     0.12563878136159026
    32   1      3.7016384565283835      14.141529582137075      1.8930520165279301
    33   1      2.5084247319240625      15.337933776079424    0.044753239643898712
    34   1      3.7867567432311495      16.491025461899255      2.0360871249877603
    35   1      2.5765990471795588      17.988286895148459      36.078296351220764
    36   1      3.8348116371500365      19.007214404297329      1.7496860387163231
    37   1      2.6828293509343357      20.422527768143397    0.013416296782202155
    38   1      3.9514966968957324      21.701309699187455      1.6586276890080511
    39   1      2.6297457996848963      23.004679162185081      36.034032421642081
    40   1      3.7635575036311875      24.201916192608682      1.7904287921719741
    41   1      5.0704504368091614    0.015288748813496317    0.056138726649487505
    42   1      6.5464436250936906      1.2566762595227889       1.766004856250756
    43   1      5.1492537915629413      2.5077449686816755   0.0025160474531730863
    44   1      6.4946607653926502      3.7874652851341439      1.6833417476085404
    45   1      5.0633551613350862      5.0837774546989163      36.071117214527298
    46   1       6.418402093954243      6.4064946140268377      1.5685093166029096
    47   1      5.1340439155476156      7.8442893360754171    0.057398535160734759
    48   1      6.3510865887727022      8.9902965762524509      1.8358745032333463
    49   1      5.0746320241282916      10.193956835844297    0.081438665961661702
    50   1      6.2306711346956805      11.575668211741011      2.0168386903137057
    51   1      4.9760516271195669      12.719149976351423     0.10874150352004795
    52   1      6.2085211227138934      14.044771841327279      2.0851742914522111
    53   1      4.8881217751442794      15.281736373309647     0.23175689047753867
    54   1      6.3682979890420759      16.550460650224668      1.8960595113214265
    55   1      5.0570325474282445      17.700129081285699     0.05998468797811253
    56   1      6.4097079549179474      19.109672039136772      1.8511783048101749
    57   1      5.0737591606795354      20.324894451943486   0.0051033438355375261
    58   1      6.4428320575123399      21.475119491997646      1.7693455347074172
    59   1      5.1776065976798948      22.809737646655844      35.941739386858707
    60   1      6.4624806320292736      24.202211665484889      1.7969662820721513
    61   1      7.7611838307803014      25.320799522506384      36.036227185647022
    62   1       9.058563489996196      1.3149310197198585      1.7783462221047663
    63   1      7.7998380832721557       2.545770520938933      36.079342667365488
    64   1      8.9780759623632047      3.8746525910154617      1.8188830861855438
    65   1      7.7007603789886101      5.1434395584459383      35.928834984524187
    66   1      9.0575697694614234      6.2443211949344253      1.7605953821408442
    67   1      7.7148728176304164       7.730207196445714    0.052730381748540403
    68   1      8.8937985110479953      9.0317159719765563       1.847872405741884
    69   1      7.4239053196881519      10.369111290499331     0.11522774435670742
    70   1      8.8109586296282227      11.486805267634065       1.852356771130222
    71   1      7.5870650567531932      12.792731570387435     0.14568943259082529
    72   1      8.8303124967237832      14.148884663102049      1.8775799589972961
    73   1      7.5989324633120656      15.355189733557991    0.028663742734465824
    74   1      8.8168402167703128      16.712135771749537      1.8156410347135983
    75   1      7.6713901066932086      17.976924650104742   0.0015756667298319376
    76   1      9.0028964504172748      19.164821570928023      1.7619187368765452
    77   1      7.9416054494191535      20.362047514806711      35.877278676630731
    78   1      8.9558412521310711      21.670044138860543      1.6695612831062718
    79   1      7.8566393196273667      22.935798539900215      35.984136284938351
    80   1       9.002416081649093      24.058728831406459      1.6285411607867091
    81   1      10.160889542179133    0.004822635579219782    0.043053739494041468
    82   1      11.632601845484395      1.4434122748970595       1.798598790769995
    83   1      10.249163397054318      2.6786633314068884      36.002044541724082
    84   1      11.457276685291131      3.8406015767160344      1.8320148412418458
    85   1      10.295405050865556      5.1289463981071837      36.026685180934564
    86   1      11.647979852409179      6.3729637678478674      1.5722360142241216
    87   1      10.333543293937749      7.7295979514232505    0.030227100011597948
    88   1      11.405986666383221      8.9156260017916864      1.8076588645140974
    89   1       10.06095222678211      10.156975034078796     0.04821885614592241
    90   1      11.405840289887239       11.47406046895459      1.7348960817524914
    91   1       10.09768999517912      12.707605899901941    0.022211189239897081
    92   1      11.465065391187833      14.040527972908775       1.737289405266119
    93   1      10.026138427119834      15.226334354003376    0.046373815000606521
    94   1      11.450063452753207      16.384997705335277      1.8934154915506629
    95   1      10.301406519935076      17.694259525689418    0.040431394617803526
    96   1      11.584489181020894      19.055052994112611      1.8465331228950839
    97   1      10.388899581960468      20.199044348331373      36.053050715900248
    98   1       11.35668905525295      21.637194908395539      1.8433627737398994
    99   1        10.3725265992322      22.894092149398652   0.0012250998487388647
   100   1        11.5133172907512      24.413567750058874       1.793259210802943
   101   1      12.749660857286443     0.14682389976612162    0.082260664660282215
   102   1      14.236091880325242      1.2999161365921004      1.6844440023525413
   103   1      12.918019987801939      2.7214783428243861   0.0018500379218266978
   104   1      14.083972785592882      3.9285089929297961      1.7378352264949404
   105   1       12.88780413564862      5.2057509644411475      35.901765503705413
   106   1      14.043690776132106      6.4126269237890359      1.8885439253057497
   107   1      12.624487573060321      7.7422623093935252      35.929526845605295
   108   1      13.950666341466498      9.0413509894155695      1.7214243612666462
   109   1      12.571377559698659      10.130962293768565      35.957793980312978
   110   1      13.863592780873024      11.560046887604997      1.7103500874199549
   111   1      12.739919828242972      12.733097315338346    0.037227043028644956
   112   1      14.065454747224504      14.048391665081933      1.9430446250351099
   113   1      12.728190596131466      15.260408670005004    0.097035802652851652
   114   1      14.055535026763712      16.602509371238952      1.8756389010510595
   115   1      12.767435996432681      17.634801395392028       36.04808240272363
   116   1      14.118315847163091      19.160741108514106       1.842764108748157
   117   1      12.931723306673209      20.463631177069338    0.035504831232447027
   118   1      14.035656275322783      21.692370373243811      1.8939832624021165
   119   1      12.792737040961335      22.841638329195224   0.0025183408665156999
   120   1      13.960432405054007      24.151059397442292      1.6624980635858821
   121   1      15.439730424862578      25.504090084286613    0.017332526428117487
   122   1      16.598517350306427      1.2961374742472966      1.8094788434789388
   123   1      15.440312880507621      2.5970019459386062      35.978516955958106
   124   1      16.593219130297406      3.9386215834225657      1.8374225778996227
   125   1      15.389256259435273      5.1988140357063326      36.083534149959966
   126   1      16.786813062719908      6.4385330742214579      1.8349348770765688
   127   1      15.143437370396102      7.8572065409311049      36.097997773183707
   128   1       16.58351544325728      8.8718826016462913       1.799781111249616
   129   1      15.063093405955463      10.245311092339927      36.020057156559282
   130   1      16.636464455451005      11.464416376680429      1.6682490597715756
   131   1      15.186794590782545      12.887029292419344     0.12409301411182712
   132   1      16.697901416458087      14.093794595444328      1.9258687085145085
   133   1      15.357936404609514      15.281578166515359     0.14990370077512108
   134   1       16.52918417191453      16.643154045193047       2.030143808689262
   135   1      15.244556558553699      17.861340222352592     0.15344587062990059
   136   1      16.663451917599009      19.117590276023968      1.8807347341508955
   137   1      15.483652636974279       20.42769918063269      35.990383897721621
   138   1      16.631873436520412      21.677282037459484      1.7483801295397483
   139   1      15.371024039394882      22.889245951288263    0.068203458280777451
   140   1      16.578872844498203      24.341354989086053      1.8126062926784929
   141   1      17.869322490803011    0.068435666300590364     0.10264984197606285
   142   1      19.219397854542333      1.3845881324943812      1.7419773687501219
   143   1      17.931852830829346      2.5668211704653259     0.04996157351846487
   144   1      19.127079297085331      3.9371500340894929      1.6887009448000867
   145   1       17.93485556955326      5.0904916803192384      36.072017514522933
   146   1      19.334846173294739      6.3983180339511669      1.7153973056326095
   147   1      17.820715020568052      7.5738405342985686      36.027900492504791
   148   1      19.188731739839486      8.9909359316695845      1.6611991939949224
   149   1      17.736654638087092      10.149575142431734      35.912352913270908
   150   1      19.259083687318302         11.520342357735      1.7814245356280272
   151   1      17.764079103237776      12.715766815240109      36.055077201807741
   152   1      19.116210284835187      14.064237582304797      1.8451002057441876
   153   1      17.908718951780866      15.364976646812059      35.978123313494848
   154   1      19.297219091041104       16.56708542164332      1.8093686964518498
   155   1      17.802637669205932      18.018749376170732      36.076256741659456
   156   1      19.126240155690052      19.052046238701902      1.7815587313745138
   157   1      18.032684694152497      20.564485995028559      36.096479260076585
   158   1      19.336138570759424      21.898243921679402      1.7705498902364074
   159   1      17.896407364051566      23.041518095542738     0.17703623474418456
   160   1      19.110290829008413      24.266297706410459      1.9711883225259272
   161   1      20.403836846536507      25.424994871533464    0.027646957591866785
   162   1      21.807976010342692       1.477962467142266      1.9023909560224523
   163   1      20.555736613216226      2.5889325520969413    0.050851091332572089
   164   1      21.653998326029132      3.8215127386532175      1.8886978262972567
   165   1      20.504259067136935      5.0581205705390797      36.025433734124611
   166   1      21.805167628403339      6.3350323394622805      1.8494744965714394
   167   1      20.508765149638592       7.589896605916004     0.03534041502463197
   168   1        21.5327996958626      9.0601196238053312      1.7596101758821316
   169   1      20.235756788201183      10.253392916605888      35.966134613959333
   170   1      21.755831997311184      11.627950074747581       1.830499248861021
   171   1      20.317162093718458      12.871392642561371    0.073948758298843176
   172   1      21.576807054681673      14.229481700737685      1.6844460777071166
   173   1      20.333105664629159      15.515040339072707      36.047780403399244
   174   1      21.775968408764225      16.601129565021971      1.6055438588688045
   175   1       20.56432930658859      17.949711851305949    0.033378727094623167
   176   1      21.871134933400846      19.355029433025777      1.7691025539351708
   177   1      20.542072969983565      20.594795725494119      36.084564723689518
   178   1      21.797321357167704      21.845472587407336      1.7511815730805562
   179   1      20.297491064634727      23.091681377178141       36.04835529735054
   180   1      21.649812670810938       24.29254133142733      1.8114810916857773
   181   1      23.036952931077856    0.085183160571804278     0.13097201461683874
   182   1      24.491659752755673      1.3272955168031932      1.8468002041475757
   183   1      22.975980357846527      2.6979462204554325     0.10413843993162557
   184   1      24.212389837373053      3.8403262286775046      2.0827687832914079
   185   1      23.192755836697295      5.0765561116572382    0.034760080549779117
   186   1      24.164409233596942      6.3712140504602184      1.9666804461449041
   187   1      23.046896462788588      7.6494557610796203      36.019547130457681
   188   1      24.125741927721592      9.0205767862602482        1.78631008620264
   189   1      22.817791724270975      10.160198583065856    0.068479981019868422
   190   1      24.194321900238862      11.553966414373573      1.6932945180180372
   191   1      23.000711033150289      12.816018008364818      36.000008722169191
   192   1      24.184088943596684      14.060271573678184      1.7259122946647492
   193   1       22.91047589507151      15.372653280367443      35.761075146579238
   194   1      24.065803058136993      16.622158577469854      1.8921776387361087
   195   1      22.910180526947084        17.9528480041065    0.021057751262060283
   196   1      24.331923460262807      19.326765443174352      1.9002176682553804
   197   1      23.041049092693964      20.473620790552371       36.03949915230951
   198   1      24.348151345827485      21.807902389290881      1.7127775199344808
   199   1      23.075613515011209      23.168316386961358     0.21915866159041583
   200   1      24.252865701224227      24.403042017858894       1.823827519222561
   201   1    0.011206054361990124    0.093752190909527494      3.6209142888924486
   202   1      1.2777679460646736      1.2772767601578225      5.5764559256043897
   203   1      25.482516285389721      2.5764129131350444      3.7056964835759332
   204   1      1.1841674487853688       3.927101349457589      5.5219055956634939
   205   1      1.1210140167804641      6.4345294553217309      5.1368860727174068
   206   1      25.516800150878527      7.7990693000435902      3.7811939948248123
   207   1      1.2381991154036818       9.122927329402339      5.3517762521264514
   208   1      25.465070461501615      10.232871168845927      3.4879376034298035
   209   1      1.0121134038058255      11.509700361140162      5.5496613104512562
   210   1    0.085180374973773981      12.624163866083999      3.7039458314367124
   211   1      1.0716058178413668      14.033997276853798      5.4274519811205506
   212   1      25.449563514644638      15.215617141200825      3.4880052648301567
   213   1      1.1745457104090258      16.534824231798051      5.3695936530351389
   214   1      25.491153156500534      17.862173180101113      3.7019023619967864
   215   1        1.43649253484793      19.195485295123458      5.4858104968975363
   216   1     0.03613439457965386      20.516105706147506      3.7195805229309213
   217   1      1.2029867064940809      21.718462580088406       5.448087358485207
   218   1    0.033519691953928822       22.96841290813753      3.6228322187498674
   219   1      1.4262633494966941      24.329373048301719      5.2221135102217264
   220   1       2.722506101213797      25.524976936099222      3.4894073075650467
   221   1      4.0530713885211576      1.1801380825519308      5.4065942773293543
   222   1      2.4983695089150597      2.3381258585780356      3.8022272589187898
   223   1      3.8339686881535817      3.8618985578657825      5.3055465843624967
   224   1      2.5177235787785839      5.1158702843160553      3.6843097752404392
   225   1      3.8845466539488291      6.4120183592440521      5.3021083466218935
   226   1      2.5822468075684641      7.6111274334843184      3.6048580203354628
   227   1      3.7467334907830119       9.010633015256893      5.3438455098428257
   228   1      2.3811484529240166       10.21962567105604      3.5128647031967364
   229   1      3.5792658562181048      11.487812420801609      5.4834145341882845
   230   1      2.4525197628336555      12.854074315578663      3.6076439620205636
   231   1      3.7804937206742766      14.060085286365737      5.4641902606611934
   232   1      2.3519629562052011      15.338646216834089      3.7721776467761128
   233   1       3.753136703054917      16.639610973097398       5.508549505287756
   234   1      2.3994965539658706      17.860657343528633      3.4979852565803173
   235   1      3.9326181036571191      19.150550379326813      5.4186639287689484
   236   1      2.8021150565790953      20.503255041038109      3.4403657570600106
   237   1      3.8674747495560493      21.780552944116213      5.3121663621522295
   238   1      2.5952696071487296      23.025298970926936      3.5703451655627632
   239   1      3.8765675905132047      24.264781336487783       5.301899725278302
   240   1      5.2320311287993837      25.390455871806729      3.5368595987258811
   241   1      6.6031033280373155      1.2409116777524347      5.3221970694294933
   242   1      5.2756462162580444      2.5664652118238225      3.7048402700728564
   243   1      6.4623276494259887      3.6921584262643345      5.4846584243767031
   244   1      5.1938568394904321      4.9514293910382179      3.3275175110111932
   245   1      6.3920690621690852      6.3571157789533785      5.2869158743059455
   246   1      5.0782054017775602      7.6076862682118342      3.4536287442384617
   247   1      6.2906347974244534      8.9470904919823671      5.3844538699849682
   248   1      5.0215962602983391      10.225937608768154      3.5914338577066465
   249   1      6.3619862779176284      11.428798340862592      5.3577121244300292
   250   1      4.8889124812614382      12.696634243642915      3.8287876653468436
   251   1      6.3193738011057361      14.093676064573041      5.3540770596320693
   252   1      4.9824416497430297      15.423594086753928       3.804431114127901
   253   1      6.2980518683426929      16.653175845945704      5.4525458699310843
   254   1       5.061345234905275      18.024169921369428      3.6391362941704024
   255   1      6.4108758844358684      19.140078081589678      5.4340747997655194
   256   1      5.2326536275414215      20.454282548680879       3.594928828570553
   257   1      6.5343348198718036      21.538496832909789      5.4520899621888361
   258   1      5.1338235378672383      22.843245880406155      3.5817741902059326
   259   1      6.5307499861123732      24.102854585770668       5.319457744438064
   260   1      7.7196618805617181      25.286448318651708      3.6003995613029711
   261   1      9.1092981134310218      1.2577868892784168      5.3425753504965829
   262   1      7.8369755862611532      2.4534797211431831      3.6304711094796276
   263   1      8.9046445095559754      3.8712990256290261      5.4028899110936752
   264   1       7.538216754337931      5.0767735608667852      3.6270835189945063
   265   1      8.8527622093625151      6.3889773616001539      5.4199552313078065
   266   1      7.6117327318945565      7.6795349359522831      3.6169885281141849
   267   1      8.8817416835291976      8.9311483110126524      5.4059011365914555
   268   1      7.5039909476149917      10.182954827381556      3.6081094654197394
   269   1       8.945036229607684      11.459833288403368      5.4634108243646233
   270   1      7.6776998924636839       12.76037158345374      3.7492896007016325
   271   1      8.9751364258064328      14.075520935573472      5.6046228962022315
   272   1      7.6864289582890457      15.402034364778928      3.7998610704120983
   273   1      8.8814284252604594      16.599781189264949      5.5700615976215371
   274   1       7.540763594754984       17.94607104484361      3.6341839623965462
   275   1      9.0276018682108852      19.274945037415158      5.3873247071906967
   276   1      7.7821978091583448      20.320665763303712      3.5007704760186034
   277   1      9.1379192210463032      21.741075300949301      5.4729474825311319
   278   1      7.7743671424343352      22.740781860820658      3.5847964049019416
   279   1      9.0121119342498659      24.234276707921381      5.3558701854099677
   280   1      10.157295385629048    0.062643021423767445      3.4343720230562775
   281   1      11.538761586518099      1.3927263148476141      5.3982188184026452
   282   1      10.443477185733343      2.5900731592644686      3.5402292493670076
   283   1      11.546192303496284      3.8944962013224953      5.5583034378529419
   284   1      10.312966250968227      5.1028989643749165      3.6223974928484974
   285   1      11.524914249534673      6.4628742132897576      5.4853323213216827
   286   1      10.397420085911033      7.6199769831446131      3.5266893300701088
   287   1      11.639150751264522      8.7895068829842025      5.4585470932020179
   288   1      10.184011848737224      10.324593911205547      3.4593109289333017
   289   1      11.437067271254945      11.554799588616659        5.42340594022708
   290   1      10.169034867269438      12.784313207634309       3.539974146243638
   291   1      11.574813925299624      14.187093719212639      5.4795249248383335
   292   1      10.210612340268554      15.196003206485694      3.6672019830497837
   293   1      11.536548450477055      16.617212670298418      5.4605372245449146
   294   1       10.01391312047077      17.916305911306893      3.5597352328355902
   295   1      11.458361927455941      19.254012033448369      5.4896698552106411
   296   1      10.350266317971672       20.45862596697232       3.664162219067749
   297   1      11.586262835336866      21.775110316051872      5.6634708263602782
   298   1      10.105386662944818      23.048377512367054      3.5569004029141764
   299   1      11.427213435264223      24.314713405945277      5.3350423455450287
   300   1      12.780216380256936      25.499148601143023      3.5142254925388459
   301   1      14.025224595383554      1.2555493613602937       5.492108482637061
   302   1       12.89125698452467       2.750420136688041      3.5787870522112377
   303   1      14.142642630744097      3.8434276392060833      5.3491897673945132
   304   1      12.869729187271631      5.2301614892826995      3.6334023533224173
   305   1      14.089586416384199      6.3833218133496965      5.5063457081967568
   306   1      12.782968872247578      7.6897973591291837      3.3828585710938355
   307   1      14.105305339780369      8.8961934620135903      5.3139485295700801
   308   1      12.756381289381141      10.210837285311111      3.6475743895217163
   309   1       14.15227762852216      11.489129559852916      5.3806886209962226
   310   1      12.789826545724988       12.78706792080925      3.6511407917295453
   311   1      14.175085324507526      14.139310589589734      5.4634736731145539
   312   1      12.862213288053614      15.348195862135821      3.7736386057542233
   313   1      14.136381137640008      16.750021912225343      5.5158723860541663
   314   1      12.745520912447398       17.76779546759883      3.7198091890390002
   315   1      14.131314903955309      19.202564876215529      5.4209075155396507
   316   1      12.911884265297736      20.462045859856133      3.6922331591775306
   317   1      14.144005379891892      21.656427281698338      5.4252202363913282
   318   1      12.766678776218916      22.968921390303869      3.7339140370113708
   319   1      14.152543465013098      24.351067066725381      5.2782413393215357
   320   1      15.246117378368993    0.043023695740690669       3.558952420362846
   321   1       16.69416575616971      1.2446381903500146      5.4856133199455481
   322   1      15.495400891333642      2.4889800648441103      3.6824386849865647
   323   1      16.683905030635515      3.7525820845075919      5.4531434327230128
   324   1      15.302587270214932       5.167940110457411      3.5197948640921921
   325   1      16.776149416846057      6.3043613703494241      5.4066969286540552
   326   1      15.348667773734336      7.6785788256906606      3.7261750249877221
   327   1      16.759892237275142      8.8987325166757092      5.3052620136739881
   328   1      15.240780359315329      10.247932266682662      3.4785096248056009
   329   1      16.627288464222872      11.488026039185023       5.331893611142962
   330   1      15.504770444116668      12.763640266719909      3.4903937516351795
   331   1      16.672475163462146      14.069971497993848      5.3774614353437586
   332   1      15.319962533849353      15.294321667954032      3.8166804537442682
   333   1      16.595021081469401      16.486916579350936      5.5263688314437758
   334   1      15.203290149401539      17.904197801978469      3.6255265750796761
   335   1       16.67862905802583      19.172330539733345       5.400356010433951
   336   1       15.40055901336566       20.58048042004997      3.6112477883488006
   337   1       16.63237562433617      21.772487723894663      5.3006696022924489
   338   1      15.394716301403029      22.984892146861196      3.6591862179200962
   339   1      16.577022150426746       24.40571715759436      5.3797207506064915
   340   1      17.906169223379251    0.094109191700203057      3.6823708291670298
   341   1      19.269606520996767      1.3972980763030038      5.4429664678261016
   342   1      18.093264541042643      2.8007439657004278      3.5986778989670949
   343   1      19.228469260808794      3.9285157756548714       5.443023950903001
   344   1      17.998938200710786       5.087300539649668      3.5896096328997369
   345   1       19.17170692100364      6.4140865598430432      5.3681708853559478
   346   1      17.870566494717913      7.5909745833308735      3.4876925502456158
   347   1      19.159413505867768      8.9020266994003183      5.4446466524106389
   348   1      17.989796088907607      10.229459222028174      3.5329722434392226
   349   1      19.171622168392403      11.571548060022808      5.5817505786115875
   350   1      18.116400832136407      12.499389702215375      3.6628552353652966
   351   1      19.218967032493296      13.985200427046392      5.5329642948068267
   352   1      17.921810375336111      15.417671515237652      3.7418968531912888
   353   1       19.15401116537911      16.420587402333691      5.5059848605252562
   354   1      17.820373674131393      17.800404834663496      3.6032455454482606
   355   1      19.300644773548189      18.971861706862533      5.4335237200461668
   356   1      18.041411085815135      20.530971333924565      3.5575201913373236
   357   1       19.20494771911606      21.736263726409042      5.4765009885853511
   358   1      17.831403784520941      23.033363331505242      3.6925269142146875
   359   1      19.094495956823923      24.237148552877056      5.5393925107768354