dump/Cu_400_5/steps_61 (written by ASE) 

1995 	 atoms 
1  atom types
0.0      25.526554800834361  xlo xhi
0.0              25.5265548  ylo yhi
0.0      36.100000000000001  zlo zhi


Atoms 

     1   1      25.350008358314863      25.425179199632449     0.10412670179765667
     2   1       1.068148803862651      1.2696164204282119      1.6848604459560319
     3   1      25.478252653059322       2.611401689773408       36.03982353384044
     4   1      1.1853683545109825      3.9654877486340787      1.7928065373829216
     5   1      25.252773030757801      5.1152946940837376      36.049508972696906
     6   1       1.143708769811882      6.3994155144981715      1.8360441111498622
     7   1   0.0027666340806435704      7.5196180485601811      35.988342337498395
     8   1      1.2411463123939044      8.9300164235033037      1.8636453553675205
     9   1    0.045621011497011942      10.202758341530851      36.070246045173185
    10   1      1.2384395541321178      11.489677658354802      1.8791025854765608
    11   1     0.16160859783790887       12.76104791455348    0.076718588871256183
    12   1      1.2257022727631752      13.945347702780063      1.9951007516250667
    13   1     0.06755241791343336      15.399098435301624    0.073940305997598529
    14   1      1.2564460517187395       16.59273656163451      1.9615725947614797
    15   1    0.096473200949605209      17.760606683850032    0.089022160756110219
    16   1      1.3114315528735316      19.191940466694064      1.7382527044452443
    17   1      25.444304417333868       20.43650948314248    0.086678095426009447
    18   1      1.2297885899220102      21.757080545006232       1.876388663087982
    19   1      25.373973494527622      22.847193831197345    0.098930682809611897
    20   1      1.1210292590109503      24.136819006194173       1.788058367430893
    21   1      2.4998459266644173      25.368632072200771    0.014329651404875691
    22   1      3.7647057461295952      1.2538296776694873      1.7055536575315944
    23   1      2.4941327014336303      2.6360249707114063      35.921541773816898
    24   1      3.7774880399676709      3.7415444563053932      1.8651426840338112
    25   1      2.4121727936298907      5.1212630213466062      36.030609510376912
    26   1      3.6742679006538186      6.2375787407835093       1.715283178384573
    27   1      2.6014636638391724      7.5608868588852811      36.064555449220101
    28   1      3.8913744112326909      8.7689578749077306      1.7493228941019523
    29   1      2.5352378723333349      10.140159745254005      36.016687777695417
    30   1      3.8169193895699349      11.433681802534347      1.7717385508612773
    31   1       2.743610811651132      12.822835227790984     0.10237991812488195
    32   1      3.9212569473340224       14.21218013928015      1.8972223190832229
    33   1      2.7210154325685254      15.294657887873417     0.14795315795789762
    34   1      3.7443679394310085       16.65319268867076      1.8856265058396955
    35   1        2.60958289533195      17.716213674010909       36.07703341431192
    36   1      3.9117847562239194      19.094243720978834      1.7706741569831814
    37   1      2.6227000666262308      20.428241667083928     0.10452002764641276
    38   1      3.8522630402421414      21.707144650387352      1.9345982110816393
    39   1      2.4075769164837277      22.839197918896208      36.013782067919905
    40   1      3.6937867290580737      24.149838006762845      1.8437041874798872
    41   1      5.0751144676819333      25.501403340464872      36.092477375843352
    42   1      6.3890747484889214      1.3039957277749843      1.7610793327568433
    43   1        5.10109134543751      2.6310216523221954    0.026643937468452363
    44   1      6.3254374458613007      3.9625560517665197      1.8751918277341126
    45   1      5.1150693830094838      5.1338405977403472      35.977233033905335
    46   1      6.5235197608200757      6.4130511519889186      1.8089812549147368
    47   1      5.2869187475112023      7.6377911077441141      36.089393010401317
    48   1      6.4395552988276625      9.0408290796601669      1.9084361852122691
    49   1      5.0874056549326729      10.201445757600968    0.017738572204723357
    50   1      6.3709336515713231       11.48986530899896      1.7950413949080364
    51   1      5.1001453365646245      12.718790984707859      36.016820014054687
    52   1      6.2928462040626245      13.983645180838572      2.0437744550684918
    53   1      5.1774706515791298      15.270544041966977    0.070464796784267605
    54   1      6.5134351541116446      16.547843287337042      1.9517152078254072
    55   1      5.2145223495199815       17.70285862966756     0.11097190095703113
    56   1      6.3606674574165938      19.208200327038039      1.9045874142490458
    57   1      5.0242196492756088      20.382172231926823    0.062575786418562998
    58   1       6.399131915349467      21.617571619832184      1.9017160784204306
    59   1       4.950878268997104      23.057090723580412      35.876463392194339
    60   1      6.3526761212444347      24.111276860946401      1.7379932426048854
    61   1      7.5204075067847445      25.424761574302686      36.081133503647401
    62   1      8.8382545990566008      1.1573942058866606      1.8354626131477048
    63   1      7.4984863479208963      2.3947408823404919      36.089949568494248
    64   1      8.8756152348902759      3.6341339702134481      1.7651217968988475
    65   1      7.4980722681430558      4.9919971475691423      36.027646921015254
    66   1      8.9622017565952046      6.2490845591476853      2.0313917571461948
    67   1      7.7779185925318783      7.6747115348515065    0.097449057313087908
    68   1      8.9917470139441686      8.9125643454742676      1.8912594820187665
    69   1      7.5834685791104439       10.19395917932324     0.02827327125904729
    70   1      8.9249905378832022       11.44754688895658      1.9049195678829067
    71   1      7.6365255374733358      12.738788301861206   0.0091171389666669534
    72   1      8.9411562501937212      13.910923300232978      1.9799728506953997
    73   1      7.7079810951071659      15.306379995887513    0.041677575408254973
    74   1      9.0281106904984405       16.53143876527955      1.8144851459755278
    75   1      7.5969661382145048      17.770100875277141      36.058883883425366
    76   1      8.9069927203013854      19.095477310485812      1.8503083126376834
    77   1      7.7647161811166896      20.446427006670898      36.044833375681741
    78   1      9.0265047871577462      21.653108156537336      1.7152048305409706
    79   1      7.6420276315373536      23.007595848697505      35.995447198289568
    80   1      8.8680788446502081      24.143614439577551      1.8735359074858025
    81   1      10.093394448396326      25.412417457724686      36.048342941751393
    82   1      11.433774384346137      1.4188805030580938      1.6793045056153113
    83   1      10.153750002472966       2.653622095794606      36.062324456625753
    84   1      11.310780586562664      3.8932345553436036      1.7828260645794893
    85   1      10.351915662014147      5.1303531495001726    0.034980641920071769
    86   1      11.601416164435411      6.3762791337526563      1.7334717669854869
    87   1      10.168888555750005      7.6510941339155156      36.063363747112099
    88   1      11.446023530670534       8.792841813355615      1.8408575634651698
    89   1      10.165433223885543      10.164986912925986    0.048345326336072914
    90   1      11.389259110899745      11.437979383340535      1.8211663325032545
    91   1      10.201649571998589      12.692978476859379     0.02043648367798595
    92   1       11.49789397265099      13.999261178904796      1.6928074930163808
    93   1      10.345736213210357      15.233456254666304      36.021787012570705
    94   1      11.492447880728248      16.567278321369223      1.8410770214700842
    95   1      10.267513943813748      17.940539705275139  0.00033358910669676337
    96   1       11.45704350366575      19.173046135041727      1.9455846828261876
    97   1      10.220529376438535      20.336523043429256    0.021891393388557376
    98   1      11.575372714317602      21.707541780082323      1.8766000276003509
    99   1      10.143274431839773      22.766142768740821      36.087800210062561
   100   1      11.425445720798079      24.176046926798875      1.7915491822092791
   101   1      12.616980209482536   0.0041220202619781411     0.00790436022215317
   102   1      13.971954276546779      1.3635905818251983      1.9837741042720716
   103   1      12.710864604695427      2.5312038781687316      36.037081830626619
   104   1      13.955174008246182      3.8355884891222165      1.9358674634516553
   105   1      12.991298261004239      5.1278697015105292      36.028484169073351
   106   1      14.141350233299706      6.3598537781897093      1.8714376660068197
   107   1      12.760507799837486      7.5161314065135452      35.968175030705808
   108   1      14.010994475994993      8.7268171781527801      1.7052444320391826
   109   1      12.661075832082938      10.019891543098453    0.060834565148650196
   110   1      13.960767017452987       11.30107968117578      1.8597006214614129
   111   1      12.732513215985735      12.547280436829883    0.012467287523679715
   112   1      14.098579177052155      14.047225327079724      1.8734383653610962
   113   1      12.738132722767633      14.956965162006073      36.039261579289622
   114   1      14.039717018374182      16.517970853626672      1.7918703570775272
   115   1      12.624364898935792      17.853057270666859      36.075934375542793
   116   1      13.991362320355352      19.085968719128889      1.7881554523019743
   117   1      12.793658213168239      20.461837709007945      36.090715671961554
   118   1       13.99939744152651      21.601122542753082      1.7005619167574979
   119   1      12.628690784903757      22.908497169365059      36.059677723826674
   120   1      13.897382847624927      24.178299814767126      1.7387565852558071
   121   1      15.283374117446593      25.466947624298044       36.09276278665854
   122   1      16.534096951337165      1.3439977388762003      1.8856978918743825
   123   1      15.308268022456392      2.4363391630939666   0.0078281264716793149
   124   1      16.588659052947371       3.777610238514109      1.8056224999887616
   125   1      15.424721734220666      5.0030228200413323      36.027916285628109
   126   1      16.520178365077534      6.3257176048057451      1.8159443100441663
   127   1      15.433777348623135       7.541547853895092   0.0087961764771193971
   128   1       16.40768951047415      8.8787692422040738       1.714258585525761
   129   1      15.190025234663654      10.130642568881651      36.054018146308437
   130   1       16.44112079454051      11.448675378951096      1.7050198150023688
   131   1      15.283772804009855      12.694931842732791    0.015371372691197396
   132   1      16.538829004120426      14.082226611295861      1.7675217090688748
   133   1      15.245763486401795      15.268239221953332   0.0060548327430183417
   134   1      16.603804035943259       16.56355450556153      1.8712086725889874
   135   1      15.300637053964628       17.73404182130783   0.0067517053179244673
   136   1      16.662249229142727      19.229016018444856      1.7628501736444955
   137   1      15.232647969118478      20.441506441064053        35.9168899795812
   138   1      16.559497564523625       21.71473073485085      1.7625970604366539
   139   1      15.176939721673783      22.862231926017845      36.099328411918229
   140   1      16.538352414324883       24.30995784821318      1.9211153494844997
   141   1      17.780087120031315     0.10170491232460505     0.15985423498235612
   142   1      19.133914333678593      1.2217436745052586      1.7883691412751668
   143   1      17.805235243018362      2.5030535237167166       36.03421923362253
   144   1      19.136771158220796      3.9335595767932712      1.9668657070791478
   145   1        17.8069579279253      5.0733616461658277    0.073083785422033976
   146   1      18.959230994766024      6.3429190776684869      1.7718711946689263
   147   1       17.84665638294706      7.6012114288279085    0.069400375589316332
   148   1      19.034911199697206      8.9213579476937106       1.591744838522527
   149   1      17.685862746220369      10.307274463866763      35.885148246403979
   150   1      19.060122186001269      11.606867234710002       1.653352336672423
   151   1      17.763268330158198      12.790255793339535      35.991569716839486
   152   1      19.034629408770396      14.108460955288139      1.5811849028719058
   153   1      17.924486538470816      15.392350470221416      35.912862769276238
   154   1      19.118150843490156      16.554435532134416      1.6678471177368586
   155   1      17.720605685812622      17.980851336009003     0.10614135459011308
   156   1      19.051427737915816      19.054588115928048      1.8416263428433564
   157   1      17.755787375869843      20.594605789606124    0.049499311500562762
   158   1      18.997868847917086      21.691441031778403      1.7834693639665928
   159   1      17.839180454341935      23.055743170544034      35.959546576274647
   160   1      19.000994039024082      24.221423523191234      1.9059510212820914
   161   1      20.327426041310556      25.372876775175847      0.0175651995896942
   162   1      21.585129660206245      1.3336140669432535      1.8165382773247867
   163   1      20.382840073443255      2.5624900497779315      36.064073886520383
   164   1      21.558824647488649      3.8308585772329087      1.7512441478698626
   165   1      20.324963571768375      5.1418745109515029    0.050199555655046864
   166   1      21.472699574888026      6.3516125941022805      1.8700395202659377
   167   1      20.425214327464168      7.7096486198083038     0.11945034498215826
   168   1      21.662897340101363      8.7810452534510581      1.8014342480228267
   169   1      20.407315750958645       10.18860763649854    0.056412342983526313
   170   1      21.699655854472745      11.640202764239476       1.754403230443369
   171   1      20.448913684473595      12.835411043416658      36.085304344932858
   172   1      21.653602538681263      14.022576671627426       1.737573674467809
   173   1      20.442561056159764       15.41088117323662      36.024999329725723
   174   1       21.76823272226418      16.556100602655114      1.7072127291091306
   175   1      20.432930474103937       17.93171836259781    0.029861656513128311
   176   1       21.63790462659232      19.045482991897629      1.8854489823718736
   177   1      20.283134712189884      20.394053020547279    0.035271524624351978
   178   1      21.590607447205056      21.767174829679025      1.7221611378243649
   179   1      20.238522032512584      22.821441751546548      36.012610671235656
   180   1      21.584224756655761      24.195434615870067      1.7535341179918207
   181   1       22.77871980504457     0.06329874456116022      36.098516855376886
   182   1      24.231556170996932      1.2852409181842956      1.8246755676864159
   183   1      22.943271113059332      2.5116123642639168     0.11937427626965019
   184   1      24.214372700708548      3.9211329089689566      1.7746234127645706
   185   1      22.835134150348132      4.9627209681903928      36.043691715947197
   186   1      24.072191673213357      6.3091485000040137      1.7454863492003263
   187   1      22.913805629198617      7.5606927332215372      35.957940379460304
   188   1      24.211590700434154      8.8309438436333583      1.8522343966666637
   189   1       22.92581852891804      10.130739536705308   0.0024624456434139568
   190   1      24.261310374011703       11.60248726434865      1.6593747474642893
   191   1      22.891035694052558      12.704263780982217     0.13664260697157704
   192   1      24.319394951343121      14.221153985324785      1.8640984701213812
   193   1       23.19040832124718      15.447301416170401    0.028764774546391429
   194   1      24.257071655944728       16.67026332446525       1.973048228912069
   195   1      23.064161171984644      17.941648201493628    0.085022986938929512
   196   1      24.300621734589946       19.14698970827687      1.9415526852218241
   197   1      22.887521384615308      20.526245802608091    0.030984205172990179
   198   1      24.135019900218708       21.61894861256274      1.9077936193254124
   199   1      22.999615833659455      22.957893415840211      36.071716304629405
   200   1      24.060395726612512      24.198059965243292      1.8026332773108833
   201   1       25.48097883999144      25.444261473203113      3.4764803115091909
   202   1      1.1179136761095865      1.4464016913756326      5.3478493385982597
   203   1    0.020039227477238134      2.4420328932977853      3.4735281722872631
   204   1      1.1302189866218892      3.8697475000832569       5.267434649696499
   205   1      1.3055838325528206      6.3613488962294493      5.3916698701241002
   206   1       25.37284622291984      7.5183189948991105      3.5818149515136382
   207   1       1.356368255450662      8.8993849675122796      5.3310140817189522
   208   1    0.073871979220766437      10.164745693655078      3.4862407918847889
   209   1      1.2594110741292435      11.380791585191572      5.2895287431431974
   210   1      25.401804815710555      12.639937272429743      3.5340896055122939
   211   1      1.3291174188503265      14.032501548797933       5.290975278308693
   212   1      25.467394374516186      15.291481636120478      3.6558363894455463
   213   1      1.2533014684069053       16.50918273349323      5.3184469665698888
   214   1      25.463720868472176      17.935831912619776      3.6941390149315509
   215   1       1.173766402616724      19.042292681679694      5.5606838123891666
   216   1    0.057111976912721088      20.296407460073965      3.7854881018457154
   217   1      1.3015392656903937      21.869570320325305      5.4165435842767859
   218   1      25.414607365624938      22.935166405748905      3.5549892028653174
   219   1      1.1655438343500144        24.4080847922028      5.2559736670208439
   220   1      2.4911651267457877      25.456486948027489      3.4678236776220492
   221   1      3.8505402489785689      1.2406040264064682      5.4378545194068808
   222   1      2.5293637131950129      2.5350871381599815      3.6235287330372761
   223   1      3.8606835900113814      3.7077878721961319       5.402975431795161
   224   1      2.6576073879708337      5.1208527430756714      3.6170379345376151
   225   1      3.9030520181627293      6.4582534573431714        5.34369119194095
   226   1       2.449400780473082      7.6664227725696037      3.5918566792623094
   227   1      3.7905509194775266      8.9766387757187047      5.4359401388651101
   228   1      2.6749371255023573      10.241644065649814      3.3897332326718002
   229   1      3.7267423993726485      11.458585052258902      5.4573125006886292
   230   1      2.4455247753588933      12.654298353081519      3.6480713070869557
   231   1      3.8205075867134068      13.881333752592647      5.3707518235555529
   232   1      2.6499067393177547      15.335429626606514      3.6954212500310333
   233   1      3.7428676696494709      16.732048327498518      5.4478746920062218
   234   1      2.3507290713089155      17.849715865209106      3.6206378605968106
   235   1      3.7521799002868561      19.183998048405524      5.5397958702879242
   236   1      2.4950968506931623        20.4376159074775      3.5975471074543637
   237   1      3.7505031688855697      21.624557422690565      5.3993317333400785
   238   1      2.4136962375518669      23.072818017920138      3.4820677243433473
   239   1      3.8067980223588669      24.300249072774314       5.296953515993148
   240   1      4.9968783484155912    0.079137381293500897      3.4661846492658479
   241   1      6.2123749636881049      1.3302372326649998      5.4270867237469052
   242   1      5.1260851436685506      2.4007857014549594      3.4462176018385193
   243   1      6.2970754805935387      3.8282935248477354      5.2586159641224048
   244   1      5.0563866708375773      5.2263295361111748      3.6560795040851737
   245   1      6.6075208008904172      6.5020569836861215      5.5550832619534276
   246   1       5.117309215525168      7.6661756396890706      3.4858588747219978
   247   1      6.4848883065943808      8.9654727153284135      5.5649742650994494
   248   1      4.9996819443912868      10.270074805216982      3.5905734679587353
   249   1       6.300049507235598      11.508020436617185      5.3681446283585545
   250   1      5.0590532982391041      12.770381772793927      3.5341024327827419
   251   1      6.5833295712206947      13.956185109080998      5.5018623916590972
   252   1      5.1003177453555759      15.307170362289719       3.800082332257003
   253   1      6.3582618118192968      16.615953796443282      5.4776338185650628
   254   1      5.1854683783652256      17.762138828514704      3.6266435593667228
   255   1      6.2398555565655913      19.152105595843928      5.4350856124979519
   256   1      4.9728717671814699      20.320500744026898       3.682076476503902
   257   1      6.3136777205246499       21.65211469872078      5.4441728754887064
   258   1      5.1035289559825721      22.951020791212311      3.7226272667634817
   259   1      6.2471585883390457      24.126452286540946      5.4037422974995835
   260   1      7.5010282701895772       25.41788302648408      3.6214854863142434
   261   1      8.9738984478214405      1.2031718143634633      5.2476607446004371
   262   1      7.5406687155624113      2.4939520437346729      3.5833991926497437
   263   1      9.0987402364439625      3.7938695790226604      5.3359137756938653
   264   1       7.700213713124743      4.9966434052493982      3.7272479829256726
   265   1      9.1716281849697872      6.2388638741628313      5.4152695211114175
   266   1      7.7021983972481758      7.4798196823084542      3.6587257828154049
   267   1      8.8785558854505595       8.730636719708075      5.5528802307111498
   268   1      7.7058115111537129       10.05194309537514       3.841922654688446
   269   1      8.8724073758882902      11.169199009028787       5.497529170640278
   270   1      7.5858073444600826      12.681773624517046      3.7110212745521407
   271   1      8.9031556498989701      13.618080428191428      5.4605736474016542
   272   1      7.7312320976191398      15.372497800314939      3.6776301640818621
   273   1      9.0227473420860864      16.449212137074664      5.4869837152458487
   274   1      7.5700816243974591      17.933015740134412      3.6746019640395771
   275   1      8.8648980259151351      19.113806780511045       5.466489055268319
   276   1      7.5886242165270845      20.350150672361547      3.5492652548274908
   277   1      8.8327696929609232      21.536028798994543      5.4150725742965689
   278   1       7.477653278702741      22.910319256245661      3.5588905085449132
   279   1      8.7558860969825041      24.133046162777248      5.3484636342157694
   280   1      10.232834343329767      25.363798402825434       3.485710564476233
   281   1      11.389404895914899       1.176797739679476      5.2682226003933703
   282   1      10.211139547407145      2.5558766770696026      3.5587461957778159
   283   1      11.422257788633804      3.8837108510388947      5.5413742086029263
   284   1      10.249450410390297       5.046791105113499      3.5429939160523745
   285   1      11.578133748359111      6.3751221303582133      5.4013257452277843
   286   1      10.279896634919519      7.6849999169454852      3.6649481837603028
   287   1      11.433184137908297      8.8598184640772342      5.3085679343954864
   288   1      10.263992886092746      10.165437341730049      3.7277851697996907
   289   1      11.599348135799232      11.416784917526758      5.4162068076099201
   290   1      10.219550807347023      12.548738162748183      3.6808947300147983
   291   1      11.413235498239002      13.949654372502026      5.4916743336113427
   292   1      10.241635074649652      15.154372746585384      3.6044810396846505
   293   1      11.456880606750341      16.502700407792048       5.334732362592665
   294   1      10.160698669268106      17.766344228018053      3.6504852385084283
   295   1      11.288209046789724      19.011001005763639      5.4402934453897585
   296   1       10.12084650495359      20.367734374408979      3.6645548135175767
   297   1      11.468460734962459      21.787216347060124      5.1900479660730481
   298   1       9.990112447556049      22.838894105628576      3.6475320998860394
   299   1      11.412994619411414      24.285040233255522      5.4754299825261725
   300   1      12.688329601124048    0.015980649173853129      3.5857711546534241
   301   1      13.993121156335027      1.2838632486560693      5.4872248776537571
   302   1      12.550131978679913      2.6460437273878417       3.594607148184525
   303   1      13.976018127931201      3.9463119897987085      5.3647689284539997
   304   1       12.87833396644316      5.1708834415184093      3.6106616386588373
   305   1       14.31280500377836      6.3824745607017466      5.4342834725539202
   306   1      12.781168859465492       7.758031811601942      3.6288619609736172
   307   1      14.095588618899081      8.9044670824637535      5.4948025271664767
   308   1      12.621102158319799      10.301336551021366      3.5902235030662708
   309   1      14.047835010396932      11.452558757519409      5.4220183965656856
   310   1       12.70677876926541      12.765694896366501      3.4540167477574877
   311   1      14.130887145600232      13.995073012743083      5.4109735922007323
   312   1       12.80942687929849      15.345014463452713      3.5653613410458762
   313   1      14.172988968375629      16.455989376534689      5.3793785151405045
   314   1      12.786416311321513      17.799013404088079      3.5636421139280285
   315   1      14.044426035716763      19.110618573579469      5.4060816103863587
   316   1      12.876710430882142      20.449840806033517      3.5601631371608624
   317   1      13.978189171497093      21.751803079013261      5.3238755580953088
   318   1      12.657539416740796      23.030393842946857       3.622178313253035
   319   1      13.968091658813988       24.14873561163407      5.4735707812727634
   320   1       15.44932666076526        25.3408356167084      3.8125347994468348
   321   1      16.527382082222655      1.2333841636948775      5.7138613025538181
   322   1      15.304977151595933      2.4581413213917132      3.7372287569942975
   323   1      16.492609718044218      3.6716912086647029      5.3762753102902385
   324   1      15.390651039256085      4.9574525430990946      3.6181939223321393
   325   1      16.642574890853044      6.2791202169312728      5.4061516975776511
   326   1      15.394246761981302      7.5216339876140141      3.6828914108692175
   327   1      16.588630141803435       8.909069431236869      5.4501580149596771
   328   1      15.402298187274637      10.171823516143991      3.5890148057989344
   329   1      16.642476165749546      11.439111092444485      5.5328827448909434
   330   1      15.373220798263768      12.705312736781424      3.5834715911974619
   331   1      16.675208473166556      14.052438688611174      5.5361137224931101
   332   1      15.310644943786217      15.152685121398084      3.5901262445181046
   333   1      16.654909711024619       16.46086472170979       5.370405225970325
   334   1      15.247556908901339       17.67762069599441       3.662277940965839
   335   1      16.532679892537132      19.065362206928988      5.5205586015344217
   336   1      15.330140694948939      20.396312321849496      3.5487649523567018
   337   1       16.59590917632115      21.657689564725761      5.5190003419493872
   338   1      15.268217790060106      22.906549725351756      3.5538303236251849
   339   1      16.637999746668505      24.235140804594511      5.3992700270264873
   340   1      17.890250325430831    0.036398463597629702      3.6013668131645669
   341   1      19.000432135494638      1.2120126694275373      5.4068730779518717
   342   1       17.84134159061573      2.4403749736570086      3.6451688205259338
   343   1      18.985518496777214      3.7682783075459043      5.4299412524083301
   344   1       17.78110470904414      4.9196261380679003       3.606853532696642
   345   1       19.08128062573644      6.4007325583627921      5.3652519991397458
   346   1      17.809889508435933      7.6996868285914832      3.4674803123439228
   347   1      19.204381613160926      8.9500083038655855      5.2322810385405516
   348   1      17.712586396396812      10.206922320997906      3.6419069260303973
   349   1      19.150327613251832      11.494843050906844      5.3575676030107484
   350   1      17.823742652483741      12.745378833747928      3.4739217889029304
   351   1      19.210270078319283       14.11743798063794      5.5006179328524656
   352   1      17.897025618459619      15.295823224482584      3.5307085938337406
   353   1       19.13580619223621      16.567999778755834      5.3539965205096163
   354   1        17.7006062761272      17.918082177568838      3.5585120962216599
   355   1       19.12910123319973      19.091937856120008      5.4998788963584859
   356   1       17.87106723763452      20.404432608947918      3.6310616933280424
   357   1      19.120032102533667      21.551409251337503      5.3556409341072424
   358   1      17.732314854023393      22.879568670589421      3.5958249462985932
   359   1      19.190525766098368      24.061695135737828      5.4982414981815797