dump/Cu_400_5/steps_11 (written by ASE) 

1995 	 atoms 
1  atom types
0.0      25.526554800834361  xlo xhi
0.0              25.5265548  ylo yhi
0.0      36.100000000000001  zlo zhi


Atoms 

     1   1      25.385929298143694     0.13067970707483245    0.015145222097783073
     2   1      1.2530329976242669      1.3872957687401353      1.7805657139234188
     3   1      25.400237465899561      2.5329700832379793      35.877059712180163
     4   1      1.2971952884991114      3.9036769341621795      1.8718868477983843
     5   1      25.282433942134414      4.9511426301704411      35.924385962326305
     6   1      1.2344806360578318      6.3142544810712282      1.7758075170397667
     7   1    0.025097225943094773      7.4913230602628786      36.060989405271052
     8   1      1.3632115927442801      8.7605748484176633       1.869582148925486
     9   1    0.068637219659849244      9.8987335571339017     0.13547337401947751
    10   1        1.21499394556541      11.533743924591491      1.7830571387816108
    11   1    0.019654995782173987      12.654471810455449      36.069318328598939
    12   1      1.3192909391318184      14.057077267340093      1.8339173931954054
    13   1     0.13420085660012929      15.292856491416416      36.052204000717268
    14   1      1.2776426357621193      16.633487577766246      1.8865314860732612
    15   1    0.086446317000904604      17.856095795793919    0.042809381371148404
    16   1      1.1733828494721783      19.138749554141381      1.8958537690126822
    17   1      25.434739757832961      20.349911447147345     0.12945233660549307
    18   1      1.2362206427458886      21.764687229399225      1.8359773449552006
    19   1    0.018437532186383217      23.024831898279928      36.040574786063942
    20   1       1.262447943721869      24.434351678122191      1.7095886650503869
    21   1      2.4674892594671149    0.061258363927058933    0.039298780345222946
    22   1      3.7206482146228188       1.436851069856024      1.7701901939112528
    23   1      2.4862299522045248      2.5034431818483713      36.074431435550785
    24   1      3.6136036343464926      3.7839098590044071       1.829102717416593
    25   1      2.4571443847966141      5.0848284944830713      35.963788631409535
    26   1      3.7809582232835122      6.2775729816673662       1.773075525840113
    27   1      2.5695878493182875      7.5301400666798806    0.056169940896859429
    28   1      4.0141121874717198      8.9727453798857209      1.9009801558632822
    29   1      2.4955649124343759      10.151483743495531     0.14686946504577914
    30   1      3.9736030159571132      11.422999684592112      1.7551764891989359
    31   1      2.8113132670771104      12.858341503465615     0.10838068332135445
    32   1      3.7411519046757369      13.979011380853036      1.8840244932629155
    33   1      2.5509542698171543      15.412200670584625   0.0073911575716692742
    34   1      3.6823595811479439      16.530709369964161      1.8052753074000538
    35   1      2.5903596969344824      17.895414419472434     0.11109125449077042
    36   1      3.7086240024554842      19.184384114275563       1.835968681018098
    37   1      2.4186989158629668      20.546222296958682     0.11171942883963774
    38   1      3.8145281094669565      21.778599757228623      1.8888207301972562
    39   1      2.5257238714728696       23.03701117559859    0.077106397966997461
    40   1      3.9630688741373525      24.349150464703559       1.717048164111965
    41   1      5.1293652286492826      25.459433774047803       36.06159653647692
    42   1      6.4496985865559218       1.298024786856752      1.7049735964387074
    43   1      5.1097443435521637      2.5400390102635382      36.050399140051745
    44   1      6.3720324163145365      3.7677306259123626      1.8456606592407858
    45   1      4.9737096468568289      5.0713218177277222  0.00027681229119025375
    46   1      6.2510965518785602      6.4083456346698409      1.6923844107727164
    47   1      5.2407360291149327      7.7821287333464699      36.072602017746483
    48   1      6.3981741751375987       9.071147857800721      1.7390081423057968
    49   1      5.1394128241774188      10.208754261932805   0.0079945034764705089
    50   1      6.4989905068279263      11.615397304284373      1.7454514287706275
    51   1      5.2541620665289033      12.804043900040657      36.092634367918023
    52   1      6.3171571359136003      13.899204553562814      1.7506513673005786
    53   1      5.0886318556423724       15.20125460410558    0.019563792866142644
    54   1      6.3356998288975985      16.727000264991183      1.7078477786089481
    55   1      4.9792008256104046      17.703530117398518   0.0036192057218613584
    56   1      6.3701346240217056      19.120357026632785      1.7822760361035064
    57   1      4.9048027460749202      20.441816921779314    0.097291281112109079
    58   1       6.181723442660636      21.796080466366959      1.8615607325433885
    59   1      5.0722610022984433      22.901998408651274      35.891006327904549
    60   1      6.4848943875149514      24.308405895447489       1.761467049966007
    61   1      7.7311483612854444     0.11394396262856889      35.980715970167772
    62   1      9.0077438783021151      1.4322048699233374      1.6828031497877431
    63   1      7.7547943357029654      2.7584743118201724      36.062527921165959
    64   1      8.8309425946924431      4.0135955233266056      1.6938738014834487
    65   1      7.6606386593174376      5.3265693394952223    0.032636837823815767
    66   1      8.9532640630246902      6.4527770160637896      1.6696104424467761
    67   1       7.658270421785395      7.7153942776261086      36.014760625397223
    68   1      8.9105074618397975      9.0457917666261007      1.8542385260305203
    69   1      7.8156217372783727      10.278332130053704    0.011289046157276062
    70   1      8.9727856259046419      11.596916445722412      1.7642718839323948
    71   1      7.6628470045281452      12.954788436117934      35.978637928070924
    72   1      8.9380238422755074      14.266131765325598      1.7685014235315735
    73   1       7.625811824658963      15.430103332989926     0.14701238784624587
    74   1      8.7330302959355901      16.682697691914953      1.8810653003824302
    75   1      7.6778108051406182      17.991010397085944      35.989952191061228
    76   1      8.7442125324078184      19.193005239355379      1.8461712469015776
    77   1      7.4735179293581737      20.514431840733426    0.053665752599204079
    78   1      9.0960989943465052      21.749371125900929      1.6445098705323076
    79   1      7.6280481259718389      23.061609453711803      35.969757668376161
    80   1      9.1222433202037418      24.382967936718686      1.6382195346532158
    81   1      10.320295090796543      25.516817181728182      35.991817563055157
    82   1      11.668101805122692      1.3723627065924808      1.8285707439496153
    83   1      10.329761569210584       2.669184328075751    0.076977783777181161
    84   1      11.612055949283661      3.8985258684000179      1.8067894528740343
    85   1      10.294911209445564      5.3330883019505384    0.017951100892844359
    86   1      11.708552000695423      6.4885668833943102      1.7168023533405961
    87   1      10.241453087773291      7.7986901180228632     0.20210471264109617
    88   1      11.441005215118665      9.2437284290149524      2.0165825155044659
    89   1      10.243672429995369      10.304407431608297      36.027210181874786
    90   1      11.560482620394099      11.631482382740327      1.9177250173819402
    91   1      10.255547964119282      12.831968679401259       35.97958834711681
    92   1      11.434034515352568      14.156452365648459      1.7867063200570434
    93   1      10.047459820632849      15.439699238687343      36.062496520539327
    94   1      11.610580777464264      16.618305607288594      1.8947188025232906
    95   1       9.921981534332744      18.011183078739528     0.12227561483736056
    96   1       11.48307274891101       19.11850581110372       1.843811337758485
    97   1      10.137480317497893      20.321292470397388    0.018072298691890872
    98   1      11.547899267290822      21.626854837748386      1.7494414321315277
    99   1      10.154016603585838      22.980375088985877      36.006605419965972
   100   1      11.496857608646522      24.310193128571626       1.694043465441381
   101   1      12.782815044569297    0.060797499977152704       36.01942609009992
   102   1      14.227683222238145      1.3218689009977616      1.7954161918192324
   103   1      12.968113752308085      2.6716253682001572     0.13048019139067712
   104   1      14.201754027002279      3.8459162416653419      1.8890273122325296
   105   1      12.947577044760251      5.2581895384470023   0.0087175152078998557
   106   1      14.177324273475962      6.3324153238638621      1.7448541420488497
   107   1      12.830397579323179      7.8492138366391755    0.086644219656716259
   108   1      14.007898622413171      8.8446869576804552      1.8359447182179238
   109   1      12.760115354215785       10.34027092785619    0.038163503077350829
   110   1      14.183105100112586      11.539434784658276      1.7927628666454443
   111   1      12.811821426969086      12.783304983401731    0.092188913525819899
   112   1      14.079788965710524       14.06178078534397       1.712382071135961
   113   1      12.944096297387377      15.480945059049546    0.099559821981927185
   114   1      13.947475046054599      16.629263765857047      1.9358030244265121
   115   1      12.592397159875281      17.829074939894554    0.018026121234845493
   116   1      14.005991534820609      19.277225320862104      1.9342136773531815
   117   1      12.772620697831741      20.370183558010257      36.086845309260973
   118   1      13.910020859442815       21.75465427267919      1.9043030988557672
   119   1      12.685859586724813       22.85006197237497       36.09220283878026
   120   1      14.091778428237621      24.267024194962243       1.928048285084607
   121   1      15.446195836646224      25.341519461465445    0.065962953677114744
   122   1       16.69801695622688      1.4302521216954862       1.730833640128548
   123   1      15.318356764791529      2.5815332959487529      36.088062904474747
   124   1      16.562658658315431      3.9357633972319466      1.7988127625399453
   125   1      15.449480467226767      4.9386728932410122    0.027066918853984143
   126   1      16.657647862565529      6.3255038653262954      1.7223885793731268
   127   1      15.387021985970392      7.5607740848557778      36.046505087237307
   128   1       16.57458037483126      8.9267545013043286      1.7107769114817981
   129   1      15.256537519446578      10.261055009802064      36.024873730399875
   130   1      16.619828310684735      11.376504626303175      1.8595709949883925
   131   1      15.393633972368912      12.804592071435819    0.044720875125449311
   132   1      16.531361147062363      13.923184965388815      1.8649001497049982
   133   1      15.406401946701209      15.395390050150523     0.19056551502885669
   134   1       16.52645914648204      16.642815924064589      1.8220176162866319
   135   1      15.143521507010147      17.943824903824151     0.22184095578030563
   136   1      16.669801076549458      19.212507218591423      1.8761144071841154
   137   1      15.348619093936723      20.291051428172366      35.941756559296479
   138   1      16.482036158625924      21.689900515348416      1.7889636549626615
   139   1      15.261254223744301      22.788884279009775      36.094946556150447
   140   1      16.592825463459462      24.281508309581955      1.9960464581625177
   141   1      18.044340147616239      25.457536703431202     0.07197701125289778
   142   1      19.210586765549291      1.1785931149716731      1.8968569494666654
   143   1      17.857626474792855      2.5675983510759064      36.047847044084527
   144   1      19.054433143321031      3.8677032604529833      1.7496529805935332
   145   1       18.04304716677321      5.1636891510018348      36.019636304610032
   146   1      19.360884873799758      6.3346287795086882      1.9178704824598531
   147   1       17.90756554037808      7.7687556775451148      36.037086537563745
   148   1      19.173551549018725      9.0262035015940008      1.6606228564446832
   149   1      17.979566205855335      10.314361958644024      35.977286934386491
   150   1      19.229937741076288      11.460154542516717      1.7886389303601828
   151   1      17.905664417163322      12.804607902810972    0.075275135700394513
   152   1      19.240649310770998       14.06105963660889       1.866748430889549
   153   1      17.867511247938523      15.296542230823492    0.036470388451721028
   154   1      19.167748511525186      16.657058766541258      1.7333883259683955
   155   1      17.643189628442439      17.828272393493169     0.13102454453552351
   156   1      19.137713845940013      19.289812465741353      2.0641467473747297
   157   1      17.792038640783137      20.351499442139215    0.070070335812647433
   158   1      19.096449803572995      21.757102418046149      1.7700832697846973
   159   1       17.71816798552511      23.022819527749057    0.091220605680621361
   160   1      19.169793089306282      24.303920322401702       1.803286711091231
   161   1      20.350898407024712    0.068121054915313103      35.985095191471935
   162   1      21.694283431820132      1.3638196193470387      1.5832326703949324
   163   1      20.376211642916864      2.6205865870018665      36.046334657551725
   164   1      21.738842007634187      3.8552349060638198        1.91638708615311
   165   1       20.61344631881536      5.1684531739998762      36.097468016365028
   166   1      22.000066817641166      6.3753579725299891      1.7169868740808185
   167   1      20.503451175140857      7.5503711037103418    0.063072300625128544
   168   1      21.658098506134252      8.8670196571641711      1.9574442318446712
   169   1      20.464699517047819      10.316400627536996      36.066732839417803
   170   1       21.68383786013775      11.472747325335668      1.6941694468584603
   171   1       20.48138854633001      12.752578540584626    0.073726329081114109
   172   1      21.771499140484767      13.952823081986532      1.8603405362261232
   173   1      20.383548479942164        15.3586138913483     0.21797594078096852
   174   1      21.766752366606557      16.577937586588636      1.9491784466403019
   175   1      20.419651940057069      17.982474058733654     0.11489859175601384
   176   1      21.529839484849184      19.232445083445768       1.913934805560529
   177   1      20.246352149942606        20.4805570560594   0.0002997499500338563
   178   1      21.646941925931863      21.840195283475545      1.8529852188610549
   179   1      20.477942890648432      23.114376193374468      36.056431713633081
   180   1      21.776973955798574      24.332043058699128      1.8278758319623765
   181   1      22.993689726177916    0.079188825689926884      36.035218474046964
   182   1      24.096761616747798      1.2712048511429659       1.767993419004495
   183   1      22.919428105369967      2.5895462475935203      35.976988097907416
   184   1      24.256800591400182      3.6664742997225845      1.7324436809591808
   185   1      22.968393711337317      5.1400726391646812      35.983665004192552
   186   1      24.466440767838442      6.2439148133802789      1.7941643808262697
   187   1      23.048765102392565      7.7569154894731867     0.10069451912368081
   188   1      24.225109955147801      8.8114266533607868      1.9059084257230652
   189   1      22.904505657367974      10.170061783464995     0.02224146192172613
   190   1      24.246771799541627      11.318086688337736      1.7106578478161727
   191   1      23.072599521171945      12.735417327104511     0.11073978791821461
   192   1      24.374821176534116      13.902288524870791      1.8746657127845434
   193   1      22.875048322379008       15.19620167358253    0.060885296369792806
   194   1      24.235215254250338      16.528562976495493      1.8264266067843211
   195   1      22.935275332629239       17.87361701875064    0.082335552103484311
   196   1      24.193659899298236      19.115826929289202      1.8687350742443192
   197   1      22.786591390969079      20.332289819712404      36.089940254846098
   198   1      24.094930935013799      21.835231969040684      1.8125108568655486
   199   1       22.94692795998267      23.126862842544266      0.1468640202252344
   200   1      24.200751622994069      24.302901501258162       1.876884427985329
   201   1    0.049717533902593085    0.068948236146241015      3.5425217308215333
   202   1      1.1995807935954457       1.235928409726003      5.4165035323946968
   203   1    0.031625365478182614      2.5470537637567192      3.6435206485213856
   204   1      1.2181418920088034      3.8644349919076886      5.4033868378151366
   205   1      1.3733262704174574      6.3630787783008129      5.6421039950138736
   206   1     0.14949680213166225      7.6248335679339547       3.584511199531597
   207   1      1.3619270818046472      8.8718371739832413      5.4625040198978398
   208   1   0.0017060607572335004      10.262043955064232       3.638132239404682
   209   1      1.4212384501425432      11.464955509951178      5.3629067246407063
   210   1        25.4745912493633      12.677706433951689      3.5434720125218298
   211   1      1.3971574677686678       14.02419612938179       5.436652817462523
   212   1    0.090291419836786929      15.298196764757789      3.6762487312206766
   213   1      1.2447048062979571      16.545928521039915       5.398393142309919
   214   1    0.086699969067092306      17.855291474108515      3.6647421137601337
   215   1      1.2986375135142232      19.187154520723713      5.2974039058906843
   216   1      25.478562725158127      20.410554082030242      3.7366486357682036
   217   1      1.1761208070179676      21.916732142479272       5.395141765398737
   218   1      25.395015244437097      23.081706805894232      3.5516870869434451
   219   1      1.3840434224808151      24.297104957305191      5.4062718043564324
   220   1      2.5407385393718211    0.070670774889325189      3.4818348464079563
   221   1      3.6203238950383896      1.4251039871610729      5.3878844100113836
   222   1      2.4784543267846928      2.5646573838603386      3.6461892472523942
   223   1      3.8555367058787668      3.8279755843485357      5.3962006612713402
   224   1      2.5232309944461631      5.0983056782832188      3.5399806887535989
   225   1      3.8138437557948119      6.3139065308837266      5.4245051762369521
   226   1      2.8902723567631892      7.5700951299082364       3.501435517476057
   227   1      3.8926751520779241      8.8955425000187685      5.3355002098324418
   228   1      2.5851249216793732       10.07338092736663      3.6327546064549363
   229   1      3.9062263202659766      11.429996736767563      5.4441383227448501
   230   1      2.5869916992488124      12.708271233148698      3.7064619046882075
   231   1      3.8730451459278932      14.116522805067877      5.3722746670347252
   232   1      2.5087853144971048      15.193119757633823      3.6626836583491871
   233   1      3.7197069429797653      16.566109316447761      5.4107958929545044
   234   1      2.5015398099675834      17.894385338399111      3.7989912440532665
   235   1      3.9372369127226214      19.259050857158567      5.3777299850988651
   236   1      2.4036292835405053      20.598294209516869      3.6147773318778387
   237   1      3.6729253488974041      21.961768954640135      5.3192403260492567
   238   1      2.3937700282202554      23.110407869421532      3.4685912256855982
   239   1      3.8281687312815613      24.378223438176946      5.4257257949640803
   240   1       5.098005929207047    0.082536480754727179      3.6995968835059241
   241   1      6.3119767956669772      1.3797652184998934      5.3645486933797688
   242   1       4.951189756889141      2.5017139919032583      3.6397293223068949
   243   1      6.4170897443780266      3.9160647462593698      5.4178609724999465
   244   1      5.1012556119268906      5.2140090121482645      3.6308447501441865
   245   1      6.3500864829172823      6.6012958601367071      5.3911557296715555
   246   1      5.4085145215897557       7.587898600092978      3.6120156754680299
   247   1       6.405740156404133      9.1441978065693199      5.4223999402065779
   248   1      5.3066446552227271      10.241194912205216      3.4195460821973813
   249   1      6.3728049718124815      11.515467003929269      5.5466928699616194
   250   1      5.0807343738764761      12.844659238373314      3.8165990082119325
   251   1      6.4371010616371525      14.126007415873159      5.4394851592353888
   252   1      5.1204460571582411      15.315309026638763      3.4772385155871226
   253   1      6.2686473552321864      16.692189155886375      5.3793844713435837
   254   1      5.0034041768439348      17.906970393968187      3.4862464942495976
   255   1      6.3736744016537958      19.307655217941608      5.2493149679286377
   256   1      5.0137460024960632      20.416349385593257      3.5389455834569485
   257   1      6.3467943971437784      21.861904645123342      5.4767286632877221
   258   1      5.0648538548975575      23.125141706147819      3.5063628566748792
   259   1      6.3935923180596266      24.149731761153259      5.4067521170083541
   260   1      7.6757021888322194     0.16335854348550563       3.518009083022946
   261   1      8.8699955143997578      1.2906077015562758      5.2789060322592825
   262   1      7.7979821907246238      2.5870889518689308      3.5798148752102072
   263   1      8.9885873512378556      3.9395374651443822      5.4952188113874678
   264   1      7.5413704819479781      5.1695566910953508      3.7258976869619755
   265   1      9.0041355730570416      6.3271359700489143       5.488385187162705
   266   1      7.8524359344802939      7.6311589637122754       3.623153728721535
   267   1      9.0231025083157945      9.0264533179586088      5.4034070726689762
   268   1      7.6812240717364793      10.375483556068396      3.6667613435622526
   269   1      8.9795996942220384      11.517894392090993      5.3623387516338363
   270   1      7.4888297687601657      12.800289781865885      3.6658575658736527
   271   1      8.9874904078078153      14.027854118144838      5.3566766348136277
   272   1      7.7938536927063184      15.410747416037985       3.498196912503944
   273   1      8.8911216363376617      16.732471225792285      5.2602565461288817
   274   1      7.5631854895908548      18.071321575857969      3.6379255547916518
   275   1      9.0679742897092517      19.188708318190084      5.3822799387245368
   276   1      7.7645580621379295      20.468382229052324      3.5039928808191689
   277   1      8.7771533983767984      21.624883566683625      5.3038150866946525
   278   1      7.6922369603170466       23.01569043005226      3.4584542270921821
   279   1      8.9658250995064517      24.208663162439482      5.3532452887470994
   280   1      10.237047871051265      25.418952509251355      3.5722604593025848
   281   1      11.516498945100649      1.2683883525967614      5.3573365076273918
   282   1      10.204742714657611      2.5227787670592972      3.6294814403461144
   283   1      11.470835253429028       3.649902299411325      5.3782234160672253
   284   1      10.028566064055521      5.1582103499979235      3.6032042609997919
   285   1      11.538597213158452      6.2787400092710346      5.4058166278817747
   286   1      10.286836006365641      7.5106837117718657      3.5014562298043868
   287   1      11.463595421887039      9.1103457189385288      5.2245443244611769
   288   1      10.162203507529139      10.445790860980562      3.6795150332431881
   289   1      11.522145383639522      11.604607954699992      5.3688821311645762
   290   1      10.098415153006462      13.005597597855433      3.5056359265137522
   291   1      11.550313014001112      14.140702134824496      5.3094044982845663
   292   1      10.114623231764389      15.413420327200505      3.5754566130320637
   293   1      11.322137947066846      16.702990187309776      5.2626304459671154
   294   1      10.061414850960336      17.956449514397217      3.5822348447442791
   295   1      11.400589457774787      19.191052900528966      5.4722107917489797
   296   1      10.211982466910246      20.467140456084245      3.6357079109237942
   297   1      11.455768881102758      21.680169463463795      5.4549885670641451
   298   1      10.188535133691266      22.764097647838454      3.5212851104205112
   299   1       11.38588376652817      24.252001151139826      5.3811687458119382
   300   1      12.842120155725846    0.024829910592590949      3.6778167452664601
   301   1      14.045934013882055      1.3552773616594189      5.3110585640647878
   302   1      12.884911018681462      2.5718334843016355      3.5699083364071824
   303   1      14.138029883602451      3.9513022963121989      5.2843329172774505
   304   1      12.712628603624516      5.1885817997496355      3.6279289764119729
   305   1      14.054184880818569      6.3929017860688635      5.3403999600211209
   306   1      12.782653198799382      7.7046603667358351      3.5193232799922263
   307   1      14.087757251197642      8.8586677262655211      5.3620868365959913
   308   1      12.942793892809341      10.342243265717126      3.6082848119648494
   309   1      14.128126362163814      11.534032963979104      5.4341126545860838
   310   1      12.738173812700543      12.906498262291974      3.5002004356068017
   311   1      14.068756437195935      14.094760899283635      5.5558083755067695
   312   1      12.765257641661135      15.471630622190979      3.6787712079395196
   313   1      14.109356058390386      16.677707669652701      5.4814855685511921
   314   1      12.620899415454165      17.949942729712301      3.7413419945486313
   315   1      14.148532407891377      19.119006419322442      5.3534715826103554
   316   1      12.694267543761939      20.447096320918217      3.6368457601047681
   317   1      13.904472623084249      21.675568510977882      5.2484539083103741
   318   1      12.809572830896139      22.990755323338508      3.6250438407368337
   319   1      14.070701929911133      24.325066586234737      5.3645444982232808
   320   1      15.467631180745585     0.14179318213719605      3.5419640831098969
   321   1      16.597899924254754      1.3581020581333556      5.3714583428587588
   322   1      15.405237637968959      2.7645018732275415      3.4629000879488996
   323   1      16.721942686085054      3.9648201991509278      5.2966752755549447
   324   1      15.536885874015629      5.3615790104105479      3.7394017451747534
   325   1      16.847509702293987      6.3968765301639312      5.4168604912968004
   326   1      15.440414989379034      7.7418699979241143      3.5125166194489816
   327   1       16.62976545409154      8.8739265762802901      5.3279888868262573
   328   1      15.377334010791014      10.218410237336817      3.7156022558899857
   329   1      16.879793524653969      11.409923484755689      5.2201186629045004
   330   1      15.233246021523831      12.920461366957841      3.6952025702445837
   331   1      16.658681991513941      14.025629395648854      5.4563231759994419
   332   1      15.359873070227426      15.516982136022289      3.5619470738293666
   333   1      16.561758892423143      16.623424622893488      5.3169915669330079
   334   1      15.272148708127339      18.010020146514258      3.7262567048884794
   335   1      16.533044774202601      19.202469194027465      5.4339167798428658
   336   1      15.250201577435291      20.555942079037866      3.6581375735757491
   337   1      16.582028565941496      21.787235646411496       5.437522010891966
   338   1      15.343066724113449      22.970691078773644      3.5688327117228016
   339   1      16.573276802686912      24.358809330822936      5.3683298500412331
   340   1      17.867640865485331    0.095806491169533492      3.5423130592068914
   341   1       19.20471404397091      1.3145540238066142      5.4364412002117719
   342   1      17.908350066536997      2.5968746968253282      3.5622331448395017
   343   1      19.100118388901802      3.6598917733239591      5.6423365659465352
   344   1      18.060472229426633      5.1492478812529177      3.6266622421544903
   345   1      19.261219232438116      6.2407403789241176      5.4895332079610837
   346   1      17.971712884475153       7.650905924006012       3.341182748290032
   347   1      19.079196219426048      8.6973029804951612      5.4570774033408229
   348   1      17.917051284717857      10.085771597629961      3.4333338368197377
   349   1      19.325591891439046       11.43086673455708      5.4798675747111627
   350   1      17.884850974451457      12.811448349714038      3.4989730579361784
   351   1      19.124731101938352      13.858847581135764      5.3594351063883705
   352   1      17.868389868850105      15.463011958897313      3.4841637005015187
   353   1      19.248726915289275      16.718520214601469      5.4279096573542214
   354   1      17.769974164256389      17.989242193052618      3.6299252677960183
   355   1      19.252710549705427      19.136121760820835      5.3017607113409033
   356   1      17.859686541732625      20.679915523503404      3.7369852559541323
   357   1      19.060422400875325      21.890963244158375       5.320823944122214
   358   1      17.909966949717756      23.103960769662617      3.5805060842409389
   359   1      19.107399394750416      24.383482464026422      5.5816215734369488