dump/Cu_400_5/steps_31 (written by ASE) 

1995 	 atoms 
1  atom types
0.0      25.526554800834361  xlo xhi
0.0              25.5265548  ylo yhi
0.0      36.100000000000001  zlo zhi


Atoms 

     1   1     0.06260144691427029    0.010598844729546831       36.05903941726384
     2   1      1.3813894318381603      1.3044085972250199      1.9122302375143032
     3   1    0.019418529754486772      2.5378240449113498      35.999506206887425
     4   1      1.3663134867662057      3.9080669296991157      1.7572125064809134
     5   1    0.072761346574678171      5.0981008026378678       35.91160873881136
     6   1      1.1793866769312744      6.4576738530125803      1.6759222398690208
     7   1    0.018738946856768496      7.7002958742732783      35.987118509071557
     8   1      1.3988612450232787      8.9866787594627731      1.6990336626243676
     9   1    0.032671956395999922      10.182513283076947      36.063009893187576
    10   1      1.4296039166035661      11.519044061069327       1.813738218050027
    11   1    0.015979960928160224      12.677965389387946     0.11204923356458509
    12   1      1.3149329667892129      13.959974826147047      1.7570543243644363
    13   1      25.424230905638687      15.338162306917862      36.025986300691862
    14   1      1.2290556732445808      16.393989361491993      1.6723539265484191
    15   1    0.027940804342938934      18.075964634061013      36.097567440978537
    16   1      1.1063349238559248      19.204990971617203      1.8258192051473316
    17   1       25.48164697891966      20.583574500129508      36.031994705078105
    18   1      1.3012563556785939       21.92628595804635      1.8587775697039661
    19   1      25.454230680801647       23.02210362048368    0.044980617763872119
    20   1      1.2789496551766886      24.306747787084579      1.8832411130050681
    21   1      2.6364018403185687      25.432462532468971     0.21309767456428963
    22   1      3.7240128836182262      1.3575586993686242      1.9209690507171795
    23   1      2.5604634180977852      2.6687115647649344      36.041720921112812
    24   1      3.7794130055972723      3.7707428068310205      1.7490583201189804
    25   1      2.5110603343609248      5.1109641066594476      35.963669218992294
    26   1      3.7455292700125193       6.362453768687681      1.9162561319233313
    27   1      2.5754050367953254      7.5927438149190234      35.991828310140512
    28   1      3.7946749740997978      8.8325829938746629      1.8122800649717985
    29   1      2.4762046288880697      10.327581248499142    0.019591723492897006
    30   1      3.9165310534866862      11.373155562115464      1.8091944938616185
    31   1      2.7255206198161246      12.895063055937831    0.028830753637225821
    32   1      3.8134247117001214      14.028917804151392      1.8706413147777414
    33   1      2.5222166554117527      15.251842423724217      35.963574361392965
    34   1      3.8323886475652786      16.529289541161795      1.7205107728706255
    35   1      2.4531321405604523      17.849868388826806    0.014456748355974032
    36   1      3.8458193525399409      19.108921327197034      1.7333558780629448
    37   1      2.4523116465921864      20.239930147904882    0.019955659475249372
    38   1      3.8078756596206373      21.599064541689621      1.8473767972269681
    39   1      2.3980253908498468       23.02062312684313      36.091482913855529
    40   1       3.689280882300201      23.967005129042608      1.9038219511395489
    41   1      5.1265739924711164      25.465933138342418    0.047892566972200311
    42   1        6.36715159046949      1.1892263044584772      1.8767004895792316
    43   1      5.1933694408077971      2.4801543211433299      36.091890182061405
    44   1      6.2217556949292616      3.6038444375832945      1.8529508744369634
    45   1      5.0345678959782116      5.1018527488409502    0.099345096273338956
    46   1      6.3738389222394281      6.4982229103181144      1.7746641165985346
    47   1      4.9953095538041277      7.6357039981665515    0.064194620366788635
    48   1      6.2434065430430064      8.9919867654761187      1.8716905161257602
    49   1      4.9699700920600716      10.210350135263084    0.017988720327161908
    50   1      6.5009938084990209      11.411189050612503      1.7338333097347023
    51   1      5.1125369596616732      12.701685243710232     0.22274943846482512
    52   1      6.1836852256669284      13.885083454827518      1.9574713698845234
    53   1      5.0735122352885575      15.227986064915134     0.06844257702180144
    54   1      6.3480395812401698      16.480852231781157      1.8420863746838108
    55   1      5.1337036298824996      17.868422115520712     0.12222819382316183
    56   1      6.4096807958301776      19.008055963956924      1.9281526136912939
    57   1      5.0632553071055852      20.443649780914651    0.021243378433416626
    58   1      6.3159218539581685       21.67018177186392      1.7356093840327627
    59   1      5.0947654723267535      23.043756700321271    0.039109548736155235
    60   1      6.4359257051456495      24.164051103615922      1.9162617998547826
    61   1      7.5839127174846048      25.394487297201579    0.021793158312061699
    62   1      8.8978837802303801      1.1516244483220017      1.8248159180894852
    63   1      7.6046472827371057      2.3152083929664578      36.095796169827835
    64   1       8.827938675255961      3.7033396901110232       1.861052066161246
    65   1      7.5203843749994936      5.0782851585205044      36.076543982874256
    66   1      8.7917694645301907      6.2363791872168353      1.6736416463602397
    67   1      7.5867468184241087      7.5682619286376802       36.07015399517487
    68   1       8.999719110128952      8.9178545205244752       1.768052371864441
    69   1      7.5809030212432207      10.088464957113978      36.076797219590723
    70   1      8.9720737032673874      11.516132261853748      2.0725604201769658
    71   1      7.5978114902425107      12.740749129320731    0.052920246980602451
    72   1      8.8175849600924145      14.061699855009484      1.8391214080559981
    73   1      7.5248949764458049       15.20495064240804    0.079718818005073952
    74   1      8.8985589773722467       16.55269770181177      1.8999690969877419
    75   1       7.727551739286862      17.715269439888139      36.099210683901546
    76   1      8.9276445400817668      19.034705357014857      1.8017006105416027
    77   1      7.7426866510228827      20.257734054645375     0.12952293492894584
    78   1      8.9382643355186495      21.786731811546776       1.913296610194037
    79   1      7.6278641705476096      22.865646680895232     0.08580597119266721
    80   1       8.948674911053379      24.140113760697677      1.8184180737017739
    81   1      9.9826266882463557      25.332260893174823    0.037839784864593259
    82   1      11.434811075197921       1.305387564907865      1.6595211679016089
    83   1      10.191806337016507      2.4088745197546491      36.023435904103103
    84   1      11.391890331338898      3.7658241724808885      1.9552350392150848
    85   1      10.208997034827524      4.9353719504939324      36.075356131841602
    86   1      11.317606461047973      6.2823792974824348      1.6470518351597203
    87   1      10.168652709315133      7.3767106138676652      35.963229525281115
    88   1      11.309833562047789      8.8936404079428488      1.8213839541719716
    89   1      10.072296821465295      10.064103913623265      35.970426304039819
    90   1      11.386998643900009      11.523956248868798       1.741341159597265
    91   1      10.224268882733584      12.602164028939701    0.005364780110778628
    92   1      11.375145245629975      13.960551600774599      1.7584748004032698
    93   1      9.9976122049480871      15.245059895253373    0.044878541217667607
    94   1      11.442668662746961      16.463344234565486      1.7036881700074009
    95   1        10.1699661930553      17.809466821573839       36.08479020974584
    96   1      11.366355745390777      18.981784254097871      1.8197830977022946
    97   1      10.263333412219497      20.579743694416155     0.17536278365776087
    98   1      11.651147294929881      21.589454309631829      1.8709205410277494
    99   1       10.09491450089482      22.898647570560904    0.039284088005808862
   100   1      11.504841457488611      24.067901973151006       1.735470751850041
   101   1      12.608550059610142     0.11476604667598629       36.00619974758812
   102   1      13.997316007469877      1.2425340642126923      1.7871183067694902
   103   1      12.867702421822681       2.754579012833779    0.049228888911568285
   104   1      13.937610668593349       3.960292450611532      1.8243577796937065
   105   1       12.64076557260165      5.1501652628326182      35.964850455701537
   106   1      13.965503844435039      6.2683621634833422      1.7329259503368351
   107   1      12.644229249962223      7.6276630595884178    0.034747450899703845
   108   1      13.987943344273059       9.014743987962758      1.7051040022218786
   109   1       12.57002997283324      10.205431566484419      35.989896592283053
   110   1      13.972335042828112      11.389522259172578      1.7613711359562427
   111   1      12.787699764557054      12.854315219070616    0.084950242054855962
   112   1      13.941224281059512      14.037816305849043      1.7409393034407337
   113   1      12.556098423878646      15.257755191254981      36.042576883761306
   114   1      13.950914435181266      16.580487407863934      1.6733190924709807
   115   1      12.710847949560707      17.814028948278725      35.949438859252872
   116   1      13.977059492266735       19.22680789399481      1.8009952922402126
   117   1      12.860117338180254      20.362858566867441      36.038885817593972
   118   1      14.117282392696554      21.789795104712525      1.6713964530867771
   119   1      12.641736190513706      22.876735359336806      36.094503470883005
   120   1      14.102041873101788      24.259628659888204      1.6942651450379813
   121   1      15.202882692588917     0.11846925419919851      35.977837484170756
   122   1      16.696754719623229      1.3719131946858163      1.7921921624948043
   123   1       15.27846535918863      2.7810151539045251     0.16516944416116516
   124   1      16.713682409235943      3.8025305295701459      1.8990765150933595
   125   1      15.385269120689127      5.2154956076794532     0.10805123987577203
   126   1      16.728142002429326      6.4105463615236173      1.7919761214156102
   127   1      15.326539361957812      7.6723199548408667     0.16580522895061456
   128   1      16.520734364655297      9.0355082726299667       1.859108801328297
   129   1      15.342613778097279       10.20478947280442     0.17092533002290775
   130   1      16.524038155022662      11.531032016343795      1.9574189051552817
   131   1      15.287633785506641      12.766208561201534    0.064439254169940299
   132   1      16.524400674444639      14.159978889735015      1.6653173313624383
   133   1      15.175207704161494      15.217658122010231      35.828082885895867
   134   1      16.407579742158905      16.568720791826642       1.789510487871381
   135   1       15.33111950086667      17.933975906109463      36.047356616113127
   136   1      16.456849763176926      19.103301751785139      1.7267282474858237
   137   1      15.344979744486483       20.45930500747999   0.0048174795322438397
   138   1       16.61771823512661      21.952387049248216        1.75626146699234
   139   1      15.447313889698584      23.187682730071518    0.035567139588022205
   140   1      16.586745300040192      24.396938153336606      1.7798457271397174
   141   1      17.885243042631828     0.11572969063925441      36.068344811617003
   142   1      19.269915017638308      1.3995734003230513       1.791966827647695
   143   1      17.957670556853728      2.5756792282923104    0.098927554061117612
   144   1      19.191583881643343      3.8559514446897274      1.8332254342644674
   145   1      17.840317595416678       5.111698752388607    0.057806174581992463
   146   1      19.206861928269305      6.3223736417715584      1.7643457242814644
   147   1      17.795445282733468      7.7518794561405597     0.17530778022984353
   148   1      19.087768859492982       8.830022191552068      1.8685596086353153
   149   1      17.763076567982917      10.276253212219641   0.0095375748653509767
   150   1      19.022327208547097      11.567749468454807      1.9607952195659548
   151   1      17.915546876590398      12.640591214786635    0.059366485664497905
   152   1      19.164464164325295      14.130397095930036      1.7783454147390205
   153   1      17.785765250689124      15.383431736557542       36.05530761247212
   154   1      18.962766670553993      16.583445864046741      1.7492587055579298
   155   1      17.721516027918593      17.934045636966378       36.03369166176649
   156   1      19.064680511379294      19.049181108824936      1.7715399658682147
   157   1       17.93188584040459      20.535935713118342    0.046441034365318511
   158   1        19.1920919720265      21.594556980158163      1.6865298257639545
   159   1       18.01689355312385      23.262182054871477    0.080160225212784986
   160   1      19.087596762020546      24.305033230250579      1.9244499600943965
   161   1      20.445978010351901       25.44153846690682    0.016281305241614051
   162   1      21.679727949822603      1.5019660149788874      1.9555243234359874
   163   1      20.469191950274094      2.6079054248658529      36.025715289813711
   164   1      21.808247309507898      3.9470530279004361       1.700321410266054
   165   1      20.427826336318116      5.1761543420905509      36.082261002666456
   166   1      21.678529865497282      6.3337063701679313      1.7705459606025344
   167   1      20.488157088117894      7.5956243179255996    0.029225859029713787
   168   1      21.472107344776934      8.8920450845507926      1.7973590920854359
   169   1      20.450292983708309      10.138863573970763    0.027414229180965328
   170   1       21.67527365960731      11.545714461783767      1.7546252157622015
   171   1      20.211959271198289      12.766531450654192    0.044183283000779575
   172   1      21.670065831353565      14.035481184893214       1.598417357177323
   173   1      20.394688859723626      15.336274718760331     0.12651714940476491
   174   1      21.630468385843351      16.559745878315479      1.7608271684608798
   175   1      20.354433179200772      17.877309669570554      36.078690066907235
   176   1      21.578299479210898      19.266765983988758      1.7006106444990805
   177   1      20.425789649136554      20.409610413275804    0.019246914751261109
   178   1      21.661688384477834      21.772368495029252      1.9574331443615836
   179   1      20.484887313745144      23.088710859700942    0.029251277146022402
   180   1      21.771460435802648      24.441540127861465      2.0589978499004578
   181   1      22.882834989928131     0.17213186208834083    0.048318263852604626
   182   1       24.17497744879903       1.443666186413721      1.8226403595759859
   183   1      23.064356327048966      2.6496855072183059    0.003713478064958059
   184   1       24.42274781158304      4.0210616916651327      1.9610308839272885
   185   1      23.138759214679013      5.3209796307449411      35.924495993092592
   186   1      24.068248478181314      6.3236024694104467      1.7193979064599842
   187   1      23.001092786125859      7.8016370997720887      35.994916463202422
   188   1      24.399905301622269      8.6710987868846736      1.8013753674195756
   189   1      22.949310000290271      10.185799064658953      36.052449350309445
   190   1      24.316592473117474      11.434942455724743      1.7050959642495305
   191   1      23.024955635800399       12.70949601097692     0.10039256529934167
   192   1      24.259465887679671      14.104552421230643      1.7871123506526017
   193   1      23.000690939245413      15.419589996407272      35.980161281463367
   194   1      24.269366817077326      16.668138117711415      1.6726666312297771
   195   1      22.936735349734786      17.994263766621305     0.10145003824120527
   196   1      24.196809405880522      19.089762144813534      1.7761265150796934
   197   1      22.931640251753663      20.456122770292087    0.058854944536289984
   198   1      24.255413214135253      21.676795984716662      1.9107227922706451
   199   1      22.937311789624427      23.064463581893492    0.015201619177810238
   200   1      24.360337073324715      24.280865816817247      1.7990407701377757
   201   1    0.043978798914039309    0.084326524666424152      3.4690996432077457
   202   1      1.3868903584316059      1.2532098561692742      5.4771841455461656
   203   1     0.16372629437632602      2.6013361234479397      3.6595739296626184
   204   1       1.239835817489753      3.9632597438804118      5.5869502250818099
   205   1      1.3454931431004225      6.4490806819919362      5.3336024893670624
   206   1      25.481587811710583      7.3533217283603163      3.6416379548504598
   207   1      1.0717354065245459      8.8390995646279524      5.3338434694135808
   208   1      25.379863323930376      10.258288865744341      3.7301379157007917
   209   1      1.0160591618294954      11.416613787844723      5.5136537645909067
   210   1      25.340495858597865      12.913490897125859      3.5498933121932419
   211   1      1.2795672094895301      13.989767568963929      5.5702029410924414
   212   1    0.013100673925686352      15.361886414773545      3.5322276093990363
   213   1      1.3414881526096589       16.41075580286287      5.3919542063333603
   214   1      25.408410117667163      17.809839304195599      3.4844417219534409
   215   1      1.2446739040196522      19.037275745856221      5.1957647645765839
   216   1      25.506389102061323      20.444310320225867      3.6770218723939041
   217   1      1.3624168384009412       21.60189682225613      5.5044712630341088
   218   1      25.437745041235253      22.934361575752035      3.6839834375070741
   219   1      1.2423532371774377      24.295446942390662      5.5816392833818789
   220   1      2.6778541850016269      25.475688584537522      3.6772901962308788
   221   1      3.8133685604407788      1.2280901076365769      5.4260753326530855
   222   1      2.6192782979898483      2.7420565118808136      3.6349171674683616
   223   1      3.7800386700194215      3.9330753751907728      5.5742459113842777
   224   1       2.484698301178581      5.0929050306001145      3.5961885772276778
   225   1      3.9567095960579977      6.2657782220449638      5.3952893658084626
   226   1       2.600255185692971      7.6681558911335763      3.6647178869024848
   227   1      3.8023908385574381       8.939380109793797      5.4835774887350244
   228   1      2.5580808660485399      10.112582617220825      3.6761711481012722
   229   1       3.700024930675105      11.445286269872971       5.635527927414274
   230   1      2.3281435045290304      12.751544590514705      3.7556114535748333
   231   1      3.8003801471719818      14.115488668829597      5.3530454902306204
   232   1        2.57715529713313      15.319013599098508      3.5668571714836173
   233   1      3.9581705291555114      16.570525804936828        5.38564659654892
   234   1      2.5582335373884679      17.871700048498536      3.4521927207351166
   235   1      3.6586653359569934      19.085157976448148      5.1739999547784077
   236   1      2.3993740471870888      20.316377470016889      3.5661509703955305
   237   1      4.0595465190576059      21.609645023008351      5.5214144364429716
   238   1      2.7231032020830526       22.90591918441093      3.8193902146750673
   239   1      3.8359109882955207      24.303358006597843      5.4445238878446629
   240   1      5.1679702836527044    0.031731764578174476      3.5810966171698526
   241   1      6.2945666381177174      1.3487294682218842       5.351401802479157
   242   1      5.0336450322544639      2.6013510393302601      3.6145945990619004
   243   1      6.2414869299381204      3.8244550278203913      5.4372869938982111
   244   1      5.1478265364370044      5.0497142869945684      3.5562733342987491
   245   1      6.4861579904510096      6.4217255584058028      5.5716047333954624
   246   1      4.9375778568520694        7.68866837156075      3.7744586055411089
   247   1      6.3878279510361313      8.8522709147329746      5.4008555609770923
   248   1      5.0976443274254049      10.201634248264771       3.826520253714627
   249   1      6.3198341177321895       11.42689849783347      5.5308772042356091
   250   1      5.0105427393426343      12.694287499843494      3.6797533122248574
   251   1      6.4819736442907088      13.980546000548721       5.405657994306666
   252   1      5.1230659893901622      15.157329701958448      3.5375112230723729
   253   1      6.4156134187043836      16.605797645246763      5.4908009915617422
   254   1      5.1307000028374663       17.81583116569481      3.6079896526131625
   255   1      6.4860718357339886      19.138007020279446      5.5682195556871967
   256   1      5.1321837150680647      20.366250468302308      3.6495201366877312
   257   1      6.5421148262272171      21.551019627339546      5.2994651905907215
   258   1      5.1688642978310853      22.890541363681098        3.65096368504897
   259   1       6.446498783578023      24.160206506439131      5.4269248590220176
   260   1      7.8113670567223892      25.422892040010602      3.6698525216704088
   261   1      9.1475487641393922      1.1583827499282258      5.6492791463254735
   262   1      7.5959336726854483      2.3177148450663814       3.567548669405689
   263   1      8.8709633048810961      3.7218024631028355      5.3659366628574139
   264   1      7.6872175763700374      5.1956303891459505      3.6010734057401583
   265   1      8.9425091602820288      6.2902330447038173      5.5527012192216558
   266   1      7.6703223668769418      7.7447603388815827      3.6332655471458595
   267   1      8.8758673265360475      8.9071828725292228      5.5524796702502002
   268   1       7.714425851587583      10.227184025465405      3.6850877287439867
   269   1      9.0715432937505813      11.392054083024082      5.4700732548628963
   270   1      7.8866590508355676      12.692152816145907       3.747418167956913
   271   1       8.884986698113746      14.067230959788915      5.4936173532656838
   272   1      7.7561569470825305      15.233731816610824      3.5139755089659861
   273   1       8.881547105537118      16.598716172824137      5.3235217291483288
   274   1      7.6656125354240396      17.796433371511505       3.596073852690199
   275   1      9.0066427696388622       19.05182212691145      5.3838047308156476
   276   1      7.6273801135911379      20.307568253645282      3.4635102533654387
   277   1      8.9744808629831319      21.609042195611973      5.3126762408142207
   278   1      7.6889781675371998      22.982246231828569      3.6440034141867175
   279   1      9.0494804011594177      24.234375863320953       5.414449837302886
   280   1      10.243977611214765      25.419283794625873      3.5784428101137671
   281   1      11.531630827758164      1.1775938153214507      5.3318583281165024
   282   1      10.082067834783979      2.2930793990195695      3.6730004519366353
   283   1      11.481701411567151      3.8118573243225189      5.3492599032480275
   284   1      10.196242434573691      5.0017000613215368      3.6178643387768741
   285   1      11.362058174547156       6.377765148247458      5.5433306111154081
   286   1      10.137913637689739      7.4845029566654357      3.5486039928268744
   287   1      11.465113272691234      8.7880735771943446      5.3982263710206091
   288   1      10.256970513589518      10.150045632739516      3.4890501007017396
   289   1      11.628957769898804      11.325216480932193      5.4338133279447094
   290   1       10.22434443247198      12.730353747703766      3.7782111148572177
   291   1      11.597613745610651      13.909323162771056      5.4476790782834374
   292   1      10.282214196998202      15.055515669116277      3.7501902198829686
   293   1      11.340631639926793      16.523964746293824      5.5782080335235111
   294   1      10.138178378053688      17.656082917433636      3.5704086550440035
   295   1      11.514272162683328      19.024952716573765      5.2718028356087956
   296   1      10.298399364508015      20.344241589278333      3.6057850629352521
   297   1      11.537558969141349      21.595538361853873      5.3423075355550633
   298   1      10.199998968073166      22.824248631143774      3.7315160098808415
   299   1       11.48112989877864      24.129419081675799      5.3374273964100549
   300   1      12.704838600562464    0.056340190605563008      3.5565794481115969
   301   1       14.00010091530593      1.3781571971392623      5.4519307322600286
   302   1      12.821520796883517      2.5906174824358188      3.5585044088621323
   303   1      14.116320732037952      3.7786636132481251      5.4505552187676471
   304   1      12.798685013304851      5.1219156479274277      3.7942836936288549
   305   1       13.93882968075474      6.2891261150870843      5.5073389403125468
   306   1      12.780459019054534      7.6614730227491226      3.5398615851592359
   307   1       13.96979935793731      8.9612339996412498      5.3287974215369243
   308   1      12.622047941919437      10.220018852534716      3.4107933888226305
   309   1      13.840323795932065      11.593425600216953      5.4225553162179745
   310   1      12.815544453711142      12.731728770136533       3.489389749344411
   311   1      14.057675602709146      14.177427872051949      5.4454372305039209
   312   1      12.807849906208686      15.228215680432053      3.6167818910594387
   313   1      14.069367244919819      16.644672249847901      5.3160982988339853
   314   1      12.619240279507334      17.655802747158909      3.5695289299818689
   315   1      14.057649901338825      19.176457323717795      5.3491130686418975
   316   1      12.820669288432727      20.200204396829381      3.5154267728531532
   317   1      14.016151562820543      21.788019932856642      5.3769957585055295
   318   1      12.986607838033688      23.012619364164671      3.6572826505970601
   319   1      14.068919635615179      24.455129783284704      5.3748356711121881
   320   1       15.22117792591469     0.11784709009935461      3.4943552633477681
   321   1      16.591995044284857      1.3607341515185334      5.4542354816830532
   322   1      15.340912879021252      2.7139794368339945      3.5225393037174073
   323   1      16.564577920976589      3.8091209846864955      5.5112528431870276
   324   1      15.423363343233264      5.2361954518180651      3.4958788685182198
   325   1      16.376082030737923      6.3257600542861327      5.5104431299157248
   326   1      15.180159439698421      7.6591923948888603      3.3837273632084703
   327   1      16.585944572102196      8.9497269544541247       5.341157547413685
   328   1      15.116435635943882      10.211408327247598      3.5196975776731176
   329   1      16.582579926343357      11.609093389469674      5.4671298734961908
   330   1      15.305388799664312      12.767941336396945      3.4651274831461154
   331   1      16.510233896187081        13.9445747968558      5.4211169344401791
   332   1      15.319100021779256      15.359659831844972      3.4822704776275049
   333   1      16.585502089790751      16.536908461827274      5.4695641210325663
   334   1      15.123698727036022      17.817815183755087      3.5576435967946511
   335   1      16.560453101552437      19.141849794007122      5.3392841504040325
   336   1      15.348383772589946      20.616852478429735      3.5010117012191353
   337   1      16.525745193678034      21.916877337328206      5.5218720428823813
   338   1      15.455371629494248      23.143250405516753      3.7343470869933086
   339   1      16.551037896677631       24.41174933911417      5.4858954390940298
   340   1      17.749369364902623    0.055743461977239547      3.6658273708823104
   341   1      18.952384513810014       1.133668593082942      5.4923172050316618
   342   1      17.885547754934869      2.6496269398362973      3.6218028255118684
   343   1      19.039814797861375      3.8428137125306376      5.4400910640966869
   344   1      17.881474142883604      5.1349354996740697      3.6588822815758246
   345   1      19.205803010732918      6.3047064183556483      5.2907882872316971
   346   1      17.881026741631533      7.6341588928122643      3.7033751457421644
   347   1      19.205922354257684      8.9992822176665452      5.3544419014825486
   348   1      17.775954139024524      10.246939208653073      3.5199384370346367
   349   1      19.136449199934827       11.44203316392637      5.4546962186029138
   350   1      17.664545080818915      12.912453024365908      3.5613103620028723
   351   1      19.096262150755219       13.85374770146583      5.4398136555256551
   352   1      17.694825551073347      15.437359314010314      3.5175028450665549
   353   1      19.140187517377125      16.732485161402597      5.4248772039183519
   354   1      17.555920760581717      17.912604576326459      3.4627163038444553
   355   1      19.104013316375841      19.296899360006666      5.4055362469446839
   356   1      17.683063017566788      20.340320874757385      3.6448912947624619
   357   1      19.167286167793662      21.709536646979085      5.4016188776244869
   358   1      17.956796908106085      22.964696309860742       3.668639417647654
   359   1      19.038198314450209      24.254854650822384      5.2714582783250297