dump/S5_s00_n130_r1024_720_0/steps_1 (written by ASE) 

1534 	 atoms 
1  atom types
0.0           114.158223526  xlo xhi
0.0      7.2199999999999998  ylo yhi
0.0      22.831644699999995  zlo zhi


Atoms 

     1   1      2.1155073011919665      1.9458687634200951      3.8369333549774267
     2   1       2.018674446370289      6.1071306786745874      3.8830641445655005
     3   1      7.7315403563067431      1.7541469545223682      3.8599286812513358
     4   1      7.8775599815577708      5.5902559224436956      3.7989666489365272
     5   1      13.446507582072188      1.9620195188412288      3.8916227132406207
     6   1      13.609602558324424      5.6650737119822603      3.6977639900912793
     7   1      19.174560927876225      2.0446151802913937      3.8157169010470087
     8   1      19.453501946417894      5.4652705675768702      3.6682769205723624
     9   1      25.166481330738673      1.7365099967230695      4.1269710280348191
    10   1      25.158129057121201       5.437215110393069      3.9214680191361819
    11   1      30.837187752291033      2.0997431487682681      4.0089997492281482
    12   1      30.756874879816696      5.4489710887597749      4.0795656622368828
    13   1      36.590470460554606      1.8014168573740241      3.9244472006596691
    14   1      36.706340752787071      5.6199903360920214      3.9005868253518434
    15   1      42.208405309965293      1.7963138879714748       4.259886041288472
    16   1      42.285208111458346      5.3109579711587145      4.0573194644883763
    17   1      47.795866916946167      1.6502119489921223      4.2759151345573079
    18   1      47.840067954484354      5.3487977071025004      4.0236123650147819
    19   1      53.696542073290445      1.3430493991335057       3.853512723506185
    20   1      53.412612891309962      5.2372835113232012      3.7395786975076741
    21   1      1.5388712584657811      1.8488378213140724      9.6142567172767794
    22   1      1.1663456570184099      6.0978928378362021      9.5780590051481251
    23   1      7.5338916816179253      1.9637686678064639      10.039637157249715
    24   1      7.7053603144619736      5.4272135645154727      9.5829409834203734
    25   1      13.288706941595049      1.7146563297371387      9.9275200767713763
    26   1      13.583315419431127      5.5812834141259753      9.7720031987716407
    27   1      19.121791928511243      1.7172587780526973      9.6997273208344641
    28   1      19.445058906876163      5.1193911184538612      9.4806583299754035
    29   1      25.032034685917171      2.1029892837357735      9.5731036031543528
    30   1      24.943935190696148      5.3902025976946124       9.715940114714634
    31   1        30.7044950745811      1.7408102383857338      9.5266542388464277
    32   1      30.775346767652277      5.6056701125662061      9.5652240116778415
    33   1      36.958485598032787      1.6424269756946239      9.3852825520193441
    34   1      36.391399600145739      5.4170380136171294      9.5514028755690674
    35   1       42.41025982467454      1.5968251432648781      9.7977186458653076
    36   1      42.332682420182927      5.4304015809830624      9.6710944218944146
    37   1      48.121592504690966       1.515378563571667      9.8671900834697954
    38   1      48.050149166238619      5.3151336213758569      9.7045777185389426
    39   1       53.83603917139942      1.7645774464774786      9.9469855754021008
    40   1      54.165445827225746      5.2513152139405053      9.5774103252397644
    41   1       3.746174023981014      1.7268457619631725      14.112785592734868
    42   1     0.43655418909740518      2.0090465677026943      17.567897779362692
    43   1      7.6875399576673313      1.6733058600771167      15.470193600080156
    44   1      7.7051400430482184      5.3905723040129745      15.421231814880551
    45   1      13.723058987210278      1.7138261322225841      15.579088862636933
    46   1      13.749683702897427      5.6225816788278973       15.32946469231309
    47   1      19.647818285279961      1.7466262152689549      15.286277443086099
    48   1      19.837746659775046      5.6438441132853159      15.369981483632255
    49   1      25.333447621373917      1.9031340106304708      15.490220215193725
    50   1       25.18527606288335      5.2787569235807341       15.36186166486266
    51   1      31.212080338057277      2.1215387230854446      15.338004674658176
    52   1      30.868635406851354       5.639430364746314      15.038060996550486
    53   1      36.587484728893891      1.7478726787231931      15.362801402253583
    54   1      36.571858124936909      5.4931041225275887      15.418668373810219
    55   1      42.281182640198338       1.657866412915814      15.297730645346128
    56   1      42.384651103576871      5.4466617653443778      15.295533784839858
    57   1      48.356573903086179      1.7602293242733329      15.495990336326736
    58   1      48.163757211890896      5.2725054629520516      15.573077575782023
    59   1      53.522804096650802      1.5802659066061526      15.312974476271339
    60   1      53.452417286510361      5.3005031141192367      15.412220847359457
    61   1      1.8736836055514283      1.4418099682313874      20.735060942056968
    62   1      1.6498661013886275      5.4627796758389557      20.317769209059001
    63   1      8.1692324651378527      5.5167881922070121      21.068864165896297
    64   1      13.804204859694549      1.8512260226637023      21.040019658751891
    65   1      13.804362331784095      5.4354877536748498       21.15511055722726
    66   1      19.435529800128773      1.9027262754130749      20.986706723326389
    67   1      19.489996414582805      5.3355503310044954        20.9541000305836
    68   1      25.135503612335029      1.9789982847999803      21.011739570454498
    69   1      25.261621124798907      5.5728240527538597      20.891185668650515
    70   1       31.01183506425523      2.0974927943714605      21.166610302258022
    71   1      30.967421773990079        5.69086667160955      21.066839035890695
    72   1      36.833173137459696      1.8433004001809252       21.29237838398857
    73   1      36.784377959183963      5.4442664802293699      21.113763301173108
    74   1      42.304807703207537      1.7053397199553271      21.109725370010626
    75   1      42.262356554743469      5.3521934840190406      21.220804387739179
    76   1      47.953600065163243      1.6644718510392165       21.28036012099361
    77   1      47.918918234275196      5.1891445733608421      21.117413679308086
    78   1      53.842805501770748      1.7149823696486595      21.005042395971678
    79   1      53.554976986128061      5.2343429821538345      21.229809240093697
    80   1      114.09562810015167      2.1194585012808513      22.265659747065897
    81   1      113.74388138895846      4.8808243811780034      21.834155965710902
    82   1      5.8338392700436774      1.8901393974976723      22.148839740906158
    83   1      5.3425287585412624      5.3606451894517591      22.404879954125697
    84   1      11.340133716073796      1.7553464462466974      22.075631297143502
    85   1      11.501162909179124      5.5295324598333915      21.851426110592481
    86   1      17.209187036768256      1.9708183030101396      22.198896798318476
    87   1      17.204657029094616      5.5331456208087992      21.953095455475538
    88   1      22.985715821879701      1.7556255085290902      21.796841304809337
    89   1      23.024391916204213      5.4152296620725613      22.119345738105761
    90   1      28.704838371628608      1.8555682570488494      22.104821865343741
    91   1      28.428610775683445      5.5878505064025905      22.161275463197398
    92   1      34.369605382401112      1.9943749250616118      22.297468489073648
    93   1      34.506439324196478      5.2938295199437055      22.166958423972883
    94   1      40.125362162674648      1.7905550123341052      22.192027101995606
    95   1      40.120941058237712       5.344290091677065       22.16188443505289
    96   1      45.839925962502363      1.5992497354666924      22.142066521128008
    97   1      45.908035928175764       5.296313454805829      22.259660214766622
    98   1      51.109396608494997      1.6870205877647628      22.235856447937458
    99   1      51.359645251256751      4.8799446023349899      22.323595163177046
   100   1     0.01943175648430135       1.832591171472846      4.9871931627699837
   101   1      113.96487864622792      6.1324181299657123      4.9219788916590437
   102   1      5.6288603192261251      1.7712037722889742      5.2331970023314414
   103   1      5.6240919673543255      5.3356682466497265       5.201438975803292
   104   1      11.140888163490466      2.2370119470491785      5.1038504560442659
   105   1      11.383083925619859      5.3567749525187018      5.1578795737092573
   106   1      17.003149619007207      2.2639230859683934      5.0968083827268327
   107   1      17.036199475739529      5.5917233537221804      4.9074983750517154
   108   1      22.699452674809422       1.734555110907541      5.0531109550482665
   109   1      22.802422871558893      5.4422734706043236        4.89058576344675
   110   1      28.362458704225165      2.1501320771919015      5.0374071373240774
   111   1      28.477130580331973      5.6634318496467859      5.2052354505458327
   112   1      34.476135602950201      2.0234584491072298      5.0034755230065997
   113   1      34.476926035085803      5.4795680007225576      4.9312366243815298
   114   1      40.105936985585025      1.9314522823036553      5.3707202726257774
   115   1      40.140694950105178      5.3198636717549013      5.2385020570805514
   116   1      45.597692561496459      1.7415198788916191       5.109939161142858
   117   1      45.548584816897609      5.0925454197315609      5.1799575414789452
   118   1      51.491770089087083      1.7670670567199844      5.0769114483925515
   119   1      51.324707924662803      5.1983912006862401      5.0532266734822535
   120   1     0.03587397359522039      2.3643838085166169      11.721545718064533
   121   1      111.79162871553251      5.7511463475334681      10.789352663936608
   122   1      5.1402305051271497      2.2213174982054187      11.030855434834088
   123   1      5.0402366376195182      5.5085846331031263      11.075511691382262
   124   1      11.011929853391456      1.9198661404425275       11.06196357029933
   125   1      16.828562247510103      1.7333722455321701      10.764543680980715
   126   1      16.988999494683068      5.4152944269308207      10.845308459642551
   127   1       22.96973720321251      1.9000455276789514      10.800869730467218
   128   1       22.66483468377983      5.3199098749676033      10.699743093931469
   129   1       28.64572881540267      1.9065460390139921      10.694525987806013
   130   1       28.79088665726827      5.6411364352080868      10.823058005122181
   131   1      34.340736464456789       1.720434789126835      10.667595457293904
   132   1      34.322806474279901      5.5630092233901234      10.742455966742993
   133   1      39.962678626751128      5.2685662322973013      10.550869270156502
   134   1      45.795339753428934      1.7686132779359927      10.922581037109634
   135   1      45.785199885321369      5.2093355872898321      10.917154856821574
   136   1       51.65149996962846      1.5347408342737583      10.929220764693062
   137   1      51.689675010716911      5.4255654566702569      10.860043695124618
   138   1      112.16143689165243      1.9042041893468029      16.289525101157164
   139   1      5.4277057019102939      1.7530315692719487      16.450904120153023
   140   1      5.1934709533071928      5.5232261444279223      16.699711399161664
   141   1       10.76081563613066      7.1418365482784614      18.023136075917769
   142   1       11.14279964611686      5.3118936312471048      16.397245632687905
   143   1      17.023265687843633      1.8078765113417394      16.301769833038133
   144   1      17.101574024824252      5.3880109773233116      16.369819564353797
   145   1      22.766619959797797      1.7131634366928337      16.199996116562509
   146   1      22.890150700489556      5.4961286597784822      16.258898751936016
   147   1      28.962773039666711      2.0752130000643669      16.409503509663612
   148   1      28.958324191194375      5.5243146867861155      16.768208182606298
   149   1      34.560777413761592      1.6486762729334399       16.33963373780993
   150   1        34.3009409533094      5.7221233837912306      16.403231353173119
   151   1      40.146255567931611      1.7907317037779533      16.528503973970228
   152   1      39.926483425629947      5.3467735594111083      16.392763519253972
   153   1      45.579891597637548      1.6614773122961022       16.96230321873233
   154   1      45.667891990097701      5.4797278654990516      16.549580597454256
   155   1      51.404324976626185      1.9886826468946395      16.645647503696651
   156   1      51.487763693521693      5.2014590791437021      16.766951496591876
   157   1     0.82591952770693988      2.4614276018470482      1.8150262461768887
   158   1     0.65428383393444078      5.3496999179150242      1.1811330377322542
   159   1       6.747852336638493      2.0273958436761301      1.5697454517187959
   160   1      6.6080223449896964      5.3484522795495444      1.7704164693768714
   161   1      12.374984146883792      1.6615702739751674      1.4561646041494163
   162   1       12.51854064598654      5.5280201469608805      1.6323186761689346
   163   1      18.158059026513349      1.8035323279933657       1.575509653823487
   164   1      18.180842282784216      5.7057676962556458      1.4180531846541546
   165   1      23.931475756296539      1.7773366300072755      1.4914681472973972
   166   1       23.77405957504137      5.3522690892749942      1.5955103404342359
   167   1      29.632861560673572      2.0405927843827172      1.6978939238791337
   168   1      29.523415327460491      5.4270099419101605      1.7450951001031787
   169   1      35.292343991021333      2.0027782245958701      1.6932255315776641
   170   1      35.306198186706673      5.5581703631596495      1.9524646506398882
   171   1       41.09635517828449      1.6386349091063444      1.7228521526603475
   172   1      41.178436294726389      5.0649654796674888      1.6455552358142302
   173   1      46.788576104893167      1.5558496855895012      1.8203129200033445
   174   1      47.028307274392652      5.4757887191760615      1.5364877211646193
   175   1      52.370297641683919       1.518062492585871       1.691324767379262
   176   1      52.492881948551599      5.1885838887741498      1.6488475658096573
   177   1     0.90401204059550178      2.5573583761363743       7.095502538256671
   178   1     0.70272205357705841      5.2759054364024145      7.1099162968324281
   179   1      6.5898382031384477      2.0670728899515449      7.4800049121324204
   180   1      6.4227062596929425      5.4840547026968567      7.5005958173354257
   181   1      12.183254878125938      1.7766557793417339      7.4621781672366847
   182   1      12.422046500314202      5.5389725819636855      7.3570134644734191
   183   1       18.25705036067998      1.8863367926395642      7.3919476389604029
   184   1      18.146558203713656      5.5500497256331682      7.3372027368118706
   185   1      23.909503818093224      1.9692254345282187      7.4610571577601279
   186   1      23.925974842369037      5.4032702819853835      7.2279805418010712
   187   1      29.588616546026646      2.0627177726600228      7.2084499768715418
   188   1      29.649916594788728      5.7810456465598827      7.3368315945874389
   189   1       35.39851840222957      1.7537788482543357      7.2482338427326916
   190   1      35.447337277417532      5.4335873032329056      7.2861578213727807
   191   1      41.351132883978487      1.6845823353533151      7.4642929450430531
   192   1      41.249839507908945      5.4052449188180818      7.3176016634683512
   193   1       46.96567765099693      1.7189485592044489      7.5207317149138939
   194   1      46.870554553334657      5.3389348789730811       7.535412440277975
   195   1      52.690857384163095      1.7706786025288654      7.6683352365846646
   196   1      52.633674971930283      5.1920670740755295      7.3460338730526473
   197   1      2.0568346174690149      7.0592861103430771      13.988912302093878
   198   1      1.2235428647454885     0.17760446418637119      11.690435930502236
   199   1      6.0918919216552663      1.6467133287498497      13.433728702847024
   200   1      6.3789012055118706      5.5744813245569365      13.153819571333409
   201   1      12.429372458462945      1.8193826126130388      13.276102709418428
   202   1      12.457508037821611      5.1884945326425465      13.226079698307027
   203   1      18.541380543151003      1.7811978256243228      12.834918640961098
   204   1      18.235122628561239      5.3470011242271802       13.09072910816548
   205   1      23.925735614492222      1.9658554351908788      13.098012874510029
   206   1      23.984050999550966      5.3724981523575535      12.679176083022874
   207   1      29.966849958209952      1.7195473664572452      13.143834194147825
   208   1      29.705341408520201      5.5152789915049114      13.028700750460862
   209   1      35.581842076880854      1.7080313492503936      12.839722404161751
   210   1      35.587091878622985      5.2979169642354629      13.091837135315782
   211   1      41.310698563406049      1.7913687142783141       12.88580706739004
   212   1      41.101239705387073      5.2243256039489667      12.767443715872449
   213   1        46.9611833700178      1.6993285783586234      13.182434904504033
   214   1      47.646428704415399      3.4312742544522865      11.468497563521311
   215   1      52.845907819721283      1.6240712356215996      12.855870762713726
   216   1      52.856318726137019      5.1418413482591641      13.142607340717944
   217   1      3.0897360196617987      7.1110435905248544      19.675192707640608
   218   1      112.61269054344447       7.172040881983742      17.991781591947596
   219   1      6.8221520900312891      1.8108274152910411      18.689849014782286
   220   1      6.4722227704963844      5.3146142751580516      18.810491643349106
   221   1      12.647346424220103      1.9168539844971879      18.679959616517554
   222   1      12.499156551445134      5.4687946697180063      18.540928223041949
   223   1      18.357398485610801      1.8524308630988846      18.524598379342368
   224   1      18.352705757259475      5.4257064361374914      18.733839524037123
   225   1      24.101910837861315      1.7935494506040526      18.464308439613283
   226   1      24.329443265240343      5.5705884920996152      18.686803912612294
   227   1      30.281817707372571      5.6200832413414288       18.70982806241927
   228   1      35.549236605223946      1.8022486545867675      18.901414756796832
   229   1      35.383478694067747      5.6833510972946417      18.877265368893934
   230   1      40.997299302925839      1.7541338600835539      18.823563255761808
   231   1      41.366238916497139      5.5083027500738906      18.812532750540225
   232   1      47.161500473449451      1.5783039385109252      18.827923221042994
   233   1      46.882187076031528       5.174060362106589        19.0146801884006
   234   1      52.546413023791949      1.7171647822394076      18.968082819783277
   235   1      52.852637302982515      5.3247223553240897      18.987567368177903
   236   1      2.8332723904728558      1.8046616788998582      0.4955960118449636
   237   1      2.9458074015990499      5.2158224263385335      0.4384942230308615
   238   1      9.2470439938228726       1.914717750385404     0.53453600654557831
   239   1      9.0997378565318332      5.4279799573953422     0.38543085548349698
   240   1      14.902700150986005      2.0358982521947784     0.56286134603009885
   241   1       14.85328135518818       5.720921408042976     0.42041020648313099
   242   1      20.666021601514835      1.6618281755141779     0.35367121983201094
   243   1      20.768303364021115      5.5278209909347309     0.51469248200415363
   244   1      26.400718298721934      1.9614562488356695     0.59439853577918844
   245   1      26.278315206929015      5.3981458445576731     0.55831598817638739
   246   1      32.084776914205491      1.9518282443979265     0.67316505861671561
   247   1      32.022880106188815      5.5079249384202136     0.66778765544392493
   248   1      37.610738080736084      1.7892203503730486     0.73722257334676711
   249   1      37.789879458395504      5.3564116833943016      0.8878628763765668
   250   1      43.445435519634309      1.5677498363271425      0.5787308695522283
   251   1      43.423223102187798      5.1957154019380898      0.8053271407742465
   252   1      49.123023440764001      1.5442921485618695     0.61615632429220024
   253   1      49.182739906082929      5.2029173312923138     0.80126959468757764
   254   1      54.606656556627783      1.5421876531917582      0.6352616330285219
   255   1      54.702430921170979      4.9189491935472152     0.57617936162005368
   256   1      3.2604306025250498      1.9172740182930734      6.2383221656124084
   257   1      2.9244005424042343      5.5382599504377996      6.2607100976052692
   258   1      8.9391443819001513      1.7803915038432141      6.0125104625799324
   259   1      8.9673063031331086      5.4502524137975534      6.4370014728118576
   260   1      14.837707939705341      1.7535168668920917      6.3144762302646544
   261   1      14.799830638881964      5.6847143805925819      6.1215753160161492
   262   1      20.552162257905941      1.9345924474870224      6.2054879635299125
   263   1      20.251523599056842      5.5462914310634881      6.2098130668884162
   264   1      26.162031630321749      1.9264913626136757      6.1439889152666742
   265   1      25.977474243716422       5.499260799496315      6.0488735268326375
   266   1      31.979116035674348      2.0576491352436932      6.1004416536077821
   267   1       32.52522107740041      3.8431326389457432      4.6299000847505454
   268   1      37.697017417009867      1.7152513230529625      6.0131147908132689
   269   1      43.386683859242673      1.6963937903090289      6.3338689542465829
   270   1      43.624501239627449      5.4192518939208654      6.4458799008522245
   271   1      49.263746021956841      1.6961423143247623      6.3836143194585446
   272   1      49.534597091450223      5.3142264574814746      6.4356699346337027
   273   1      54.561560032791739      5.6518146650697538      5.7745910594126819
   274   1      2.6181394935450633      1.9032701765829867      12.036427798983013
   275   1       2.812577160744826      5.7119344760177277      12.127046330661592
   276   1      8.8477815305539487      1.6592745259550035      12.164664656045137
   277   1      8.7024494123383338      5.3353436502033569      12.021781208503143
   278   1      14.744197701193112      1.9039680858226988      12.031301672435655
   279   1      14.704514631942381      5.5269236652254765      11.923576097742309
   280   1      20.709309766911584      1.8817633112181957      11.656356410811457
   281   1      20.459860335863254      5.4193720254727902      11.776453004766006
   282   1      26.116398992951229      2.0078057332172712      12.021647490189006
   283   1      26.269354956650485       5.679613004055728      11.743945760323211
   284   1      32.018415133855548      2.0090230423046362      11.739318184328194
   285   1      31.908969489752884       5.627085992234881      11.670094988104086
   286   1      37.610083096899587       1.802518296015484       11.54263650764098
   287   1      37.745508605897435      5.4344976523858834      11.796529339818116
   288   1      43.655249157205979      1.6944619995181163      12.037665443895243
   289   1      43.407014581568554      5.4273119220499533      12.277942455899693
   290   1      48.960577870487946      1.7341774630843989      12.107704326475856
   291   1      49.207887986047425      5.5648467697778026      12.126365398447494
   292   1      55.621904504956717      1.9356437611904915      12.483913527879164
   293   1      3.0080046212276215      1.7643653178253342      17.779997934358846
   294   1       3.186364156768521      3.5983331743815663      16.051328078693366
   295   1      8.3345131533999517      7.2007425386455459      19.391280099452025
   296   1      8.9383335043934977      5.4568209428094203      17.632684846942908
   297   1      14.956306940802552      1.7549877185174794      17.696821574359582
   298   1        15.0234241616189      5.5107210849043051      17.611640552572727
   299   1       20.55958945370481      2.0290594542758535      17.542178674600873
   300   1      20.703402503881666      5.5439613283310871      17.707428213025107
   301   1      26.312813645894312      1.8310963022888096      17.693742566950977
   302   1      26.467798737514247      5.6382527483096068      17.476375493490611
   303   1      32.567181273434883       2.031919939109998      17.597820838253522
   304   1      37.834970170411751      1.7005684557970406      17.536061263285148
   305   1      37.711744091266745      5.3768017638982348      17.580137464654765
   306   1      43.595948101144785      5.2870114869175326       17.53341653063757
   307   1      49.338428849230247      1.3299320634737861      17.823273332339873
   308   1      49.039067532949531      5.4460469436762828      17.859160983276833
   309   1      54.692918714879298      1.8239488804893478       17.56678452425712
   310   1      54.587841935426326      5.6101388053414087      17.425808992240643
   311   1      4.3602544019463956       2.023281219703549      2.6998486325683144
   312   1      4.2080840162955893      5.6010283005562247      2.9768429758551838
   313   1      10.128135465647148      1.9224795103241037      2.9394964678767157
   314   1      10.351466648396633      5.5511435857162921      2.8682150101297483
   315   1      16.017898885488329      1.9955777596573823      2.8258997804918273
   316   1      16.028075213745346      5.5618697459883064      2.6589245232398979
   317   1      21.756147915146613      1.7330273450878184      2.7631258553169653
   318   1      21.716939423360746      5.6612425819708374      2.7670992942777941
   319   1      27.035356579158677      1.9049936405344117      2.7740518712173463
   320   1      27.371338100627259      5.6654589639962678      2.7809418789091649
   321   1      32.916024020363793       1.931891303121394      2.9997544040133635
   322   1      33.054374247419545        5.52622269691987      2.9662678889534195
   323   1      38.885212611251362      1.5355866973686703      2.9492655561606758
   324   1      39.130782206282262      5.3277234029646214      3.0668093386464563
   325   1      44.447650855418161      1.3829313946013349      2.9372286127223148
   326   1      44.657364169620976      5.2002751115012122      2.7708606276439594
   327   1      50.087269536121603      1.5554720271818969      3.0276756213996907
   328   1      50.210778454445936      5.1673670812587069      2.9508804823258106
   329   1      56.480735516465806    0.023197369297713783      4.7538997778294751
   330   1      55.899279171807791      5.1827380309580837      3.6242567653374103
   331   1      4.3790116508892343      1.8561021876363564      8.7350985065514788
   332   1      4.1235157312981539       5.486255411276745      8.7611625204085612
   333   1      9.9814844823249391      1.8604164073445248      8.5604819044140275
   334   1      10.187139867323705      5.6197318135796532      8.4927481897147175
   335   1      16.128268010379188      1.9442472824965027      8.4805315482493278
   336   1      15.754263942543879      5.3695841713358154      8.5382308205401642
   337   1      21.542776258116064      1.7113912708055492      8.4260064787731128
   338   1       21.65315229814999      5.4636250837725111      8.3096216643682759
   339   1      27.413774074527389      1.9161253377351881      8.2527346276007378
   340   1      27.345413752173581      5.3880517396127159      8.5949599048632912
   341   1      33.062617179860837      2.0490284916630332      8.4268181984120947
   342   1      33.336331433899225      5.5239530492232793      8.4744227720631002
   343   1      38.914506714724894      1.7512302242216677      8.3036241441461218
   344   1      38.874445137030641       5.305600510876749      8.3979503873847037
   345   1      44.534089374760967      1.6273072212282307      8.7663875903615978
   346   1      44.653135611303014      5.3405162733128311      8.7487554216718486
   347   1      50.402719870689907      1.9056984692271406      8.6456812375028083
   348   1      50.402649066280006      5.1746309202885312      8.8309766401821204
   349   1      55.990861446761166      3.4268765647750934      5.2267867725404535
   350   1      57.661178630100991      5.4919395632833998      10.418373549097961
   351   1      3.7861076706597849      5.4902355646228713      14.506436010915161
   352   1       10.24635002201917      1.4709761252946776      14.387936211575683
   353   1      10.065808114067252      5.3157669440720232      14.188678361072135
   354   1      16.071316591390634      1.7412962433211776       14.19644939887427
   355   1      16.127734046568278      5.6645740720026687      14.163022252554098
   356   1      21.633603910715294      1.6986483119134461      13.942310619639194
   357   1      21.789392767338182      5.3219010324089062      13.982125143423472
   358   1       27.46344322579851      1.8004904854038584       14.01570611633599