dump/S5_s00_n130_r1024_720_0/steps_11 (written by ASE) 

1534 	 atoms 
1  atom types
0.0           114.158223526  xlo xhi
0.0      7.2199999999999998  ylo yhi
0.0      22.831644699999995  zlo zhi


Atoms 

     1   1      2.0883772250736743       1.694441742429933      2.3029180543325793
     2   1      2.3217923310500974      6.8853203951747677      3.7828710170444837
     3   1      8.0274402311322781      1.8335485013084001      4.9470850595700764
     4   1      8.0042921401468146      5.3308193947106099      4.7261526064104533
     5   1      13.547734917918557      1.6612390800379191      4.5599993386591269
     6   1      13.371668525004022      5.0870496958063764      4.7250789819409338
     7   1      19.383158996412824      1.9272664537023028      4.8273195261279653
     8   1      19.460193205105547      5.3960035090103986      4.7855853134193866
     9   1      25.112092288689574      1.5756682885950681      4.8457166638439135
    10   1      25.151859602119544      5.3088301392856154      5.0295275135939397
    11   1      30.812114762439446       1.944445998376537      4.7722913109862102
    12   1      30.751803186082331      5.4348231426745652      4.5907268174784619
    13   1      36.730530318439094      1.9143239235522529      4.6877060756664068
    14   1      36.182983335469771      7.2089507583262877      6.4293197724399258
    15   1      40.304957481828765      1.8036780878191618      5.8781516093443305
    16   1      39.979591521182797       5.366217794092826      5.9604036868711212
    17   1       47.98123019069898      3.6431409416254463      3.3027840569128819
    18   1      47.453121739580936      5.5472950634932277      1.7026794861270251
    19   1      54.360750010122985       1.975307574259433      5.0422878404821905
    20   1      53.902044362011047      3.7748921137304627      3.2417109106164621
    21   1      1.2711908450060472      1.7632081669771393      11.007185825016315
    22   1     0.25422072591554762      3.4537287823406806      9.4387824749918092
    23   1      7.9046331506630301      1.7057350513668836      10.597234417365765
    24   1      7.7380831111610462      5.2730229985622232      10.495328071794344
    25   1      13.527703432059452      2.1330290095088125      10.415441217590569
    26   1      13.670812104128091      5.3780718656968638      10.414149916651036
    27   1      19.397778860246653      1.8101352300898621      10.579726939189568
    28   1        19.3989243668406      5.2916597092150353       10.26176896182549
    29   1      25.154860918185662      1.7399650182177924      10.344100452247138
    30   1      25.264769931924739      5.3537356480935099      10.391796419037146
    31   1       31.06442221903373      1.7431498657274287       10.55929873192623
    32   1        31.1021569834923      5.4590142642172257      10.394715581808557
    33   1      38.757114436710694      3.6299831815771242         10.726369431696
    34   1      39.138856519829581      5.6972191817133613       9.184239457513236
    35   1      43.941135706574059      3.4904091342603656      9.9154069341891855
    36   1       44.37634333423766       6.769685114508901      10.157648878331189
    37   1      48.441584040316471      1.6706158362095602      10.701021281977956
    38   1      48.383210362228532      5.5585317943669503      10.757296282097295
    39   1      54.227339625538733       5.252782563544228      10.706340398460112
    40   1      53.852786819176316    0.057507038695637398      9.0881015480336931
    41   1      4.4874133898685127      1.9713621648004385       14.85646674640976
    42   1      113.38283399018755       1.728597807194701      19.211436041010053
    43   1      7.8232710953408873       1.662232438133814       15.87800183542493
    44   1      7.5929359334505024      5.3449721434921456      16.316799414742366
    45   1      13.459415727844263       1.664569084737092      16.170176514274232
    46   1       14.15366810362011       7.113060230431798      14.365872173082623
    47   1      19.337154100383902       1.854066004226363      16.214783444294675
    48   1      19.314887088006294      5.3508980912916426       16.22824950708986
    49   1      25.735739142888519      3.6343557165273137      14.173192046430641
    50   1      23.364613194734268     0.13536498559704765      15.432249868136157
    51   1      30.954938025264322      1.8406302618553765       16.00541473170917
    52   1      30.767373974798719      5.4784871604378971      16.310760128327711
    53   1      36.551071468105754      1.7073554971819429      16.127411382579204
    54   1      34.733545959934311      3.4830511312815182       15.96419499892901
    55   1      42.504721775046669      1.3880953426089271      16.420440547592619
    56   1       42.55324870720203      5.2792777865890832      16.272236812085985
    57   1      48.265369325069912      1.5133974227122831      16.407939534656016
    58   1      46.821792532948066      7.0277269084091643      17.255926578150703
    59   1      55.475168066477238       1.729210008448322      13.986446734042367
    60   1      56.699095708931793      1.9142360050506313      12.027520568592736
    61   1      2.9029355365363205      5.6321016867735736     0.27588004412728762
    62   1        1.31238079959009      3.5441795216547107      18.636338731069074
    63   1       7.564180460961877      5.1036651725200022       22.24917929495059
    64   1      13.442725778184748      1.7800855880521191      21.796323551646498
    65   1      13.802257575878281      3.5211427445030345      20.247015663562909
    66   1      19.459143329178293      2.0281221768548039      21.943619622326491
    67   1      19.376239346783379      5.3011232637421335      21.655498013012501
    68   1      25.128920665372785      1.7607847868918212      21.941430608394185
    69   1      24.962243507516714      5.5604559473725228       21.70805980820797
    70   1      30.832399313807013      1.9305772771631833      22.035633704671042
    71   1      30.962545632107087      5.3585388801956695      21.830408034151326
    72   1      36.749077090460993      1.8996641827312251      21.936763273176819
    73   1      36.632767215833248      5.2668391722025367      21.695779003203043
    74   1      42.590957181738375      7.0215868904711281      1.1933427591175945
    75   1      42.407951462644043       5.300264545104481      21.977992292531606
    76   1      48.024534945838312     0.23809215859272087      20.468981026832648
    77   1      48.426282011491971      5.4631307006992724      22.258246861855163
    78   1      56.208551931458778    0.055688505585373096      21.577793923373786
    79   1      54.749416380091276       3.824889412902035      18.369473412408968
    80   1      1.0114042310800517       7.008838819697023      1.2410204958342688
    81   1      112.31580354156284      5.3405316094903288      21.313412530655281
    82   1      5.3432900087639439      1.4339995771770933     0.43701211107083582
    83   1      5.3204384347620417      5.1634575957355935     0.45905075277891627
    84   1      11.152612665724305       1.374494697016065     0.21516172692435556
    85   1      11.086747920818164      5.2638456112509839      0.3706733605097608
    86   1      16.972625905600939      1.7593263334783957     0.18763281660824935
    87   1      17.030078089577891      5.3593940599987375    0.035631200672979493
    88   1      22.738316485629806      1.5619916640281939        0.22547146197543
    89   1      22.723586148056523      5.3567287237038324    0.010784362438077677
    90   1      28.528392399380131      1.9264330923902815     0.16108025741757204
    91   1      28.640814850676083      5.3655333974844162    0.091427361675896837
    92   1      34.458370844736613      1.6708576038261473     0.12113488712343071
    93   1      34.405956830448432      5.5054504382745799      22.770641693448553
    94   1      40.266550258996517      1.7541033464043478     0.46377945065264853
    95   1      40.358647239682419      5.2443662032945015     0.30052862545948822
    96   1      46.211391874516295      1.7911927258708329      21.030935795541296
    97   1      44.539460644383396      5.3721880074108226      1.0000490120511167
    98   1      52.153571276361632      1.5405468211720601      21.294385378457196
    99   1      52.082758579942364      5.4582761462032714      20.998378471257773
   100   1      112.57462881089735      5.4353131917522317      4.4417870178136365
   101   1      1.0299429640782496      3.3391590366020534      7.1266867183982034
   102   1      5.6269691488914333      1.5846075618772433      5.8806832661241195
   103   1      5.7464666429922735      5.4867697459654519      5.8308597439054122
   104   1       11.24103789250808      2.0012326047569831      5.7952794590215184
   105   1      11.267946926016828      5.4029650056968128      5.8522207396860715
   106   1      17.003170292238067      1.8385185456037174      6.0777123127611885
   107   1      17.060532599108644      5.3919096096111225       5.817325561259211
   108   1      22.758232402331053      1.7607008175069918      6.0356143129273327
   109   1      22.712830060647704      5.2398565308146487      5.8856847278289539
   110   1      28.512539986680306      1.9155611345380883      6.0056996362633122
   111   1      28.300740609302913      5.4340730447273247      5.7705350709593244
   112   1      36.987404583731212      5.2151813479389926       10.55241275712563
   113   1      35.027308487882507      3.7602746620797167      4.1492286204367455
   114   1      36.185321987771793       3.516472828237641      6.3647703941656246
   115   1      39.676137885494676   0.0077317688429365131      7.3617274596113136
   116   1      46.101414896509922      1.7531898198258484      3.7895253221699789
   117   1      45.973596817058521      5.4516211864824049      3.8584183639893488
   118   1      50.667556343303097       1.853786329020394      6.1958216840087168
   119   1      51.153460457047196      7.0585586574651442      2.2120393968663667
   120   1      1.3118796914818021      6.7594400609626399       12.85023368287729
   121   1      1.4136681657262171      5.2576390813078611      10.766231470130053
   122   1      5.2898701003034674      2.0363367309280798      11.732963923414735
   123   1      5.6401176130407924      5.1775114117896539      11.477999817522685
   124   1       11.30279223343805      1.8300794931339777      11.627125220190001
   125   1      17.080457864784126      1.6810921830382177      11.366618097205734
   126   1      16.932145290724499      5.3827388305475923      11.454567051044522
   127   1       22.73566285903911      1.4234344232363692      11.475181505386411
   128   1      22.976757987003325      5.4730028242825695      11.654413557816683
   129   1      28.805479761041404      1.7562508160002626      11.466894662775156
   130   1      28.632657480930092      5.4633355001603521      11.545343322180855
   131   1      36.157598516669395      3.5283392115261853       12.21128048630746
   132   1       35.11681703674347      7.0804882907590319      9.5791333214797483
   133   1      40.366472564967076       5.446081229793502      11.395816032556777
   134   1      45.948066007202947      1.9345629841638874      9.7102407950038305
   135   1      45.854181767074387      5.0718448843306296      9.9026833202466538
   136   1      50.568280301213484      1.7183902201424381      11.749283014169691
   137   1       52.13700776139892      5.3414543792841442      9.5813568120223742
   138   1      112.55203645720104      1.8045977950635363      15.457690053275678
   139   1      5.2727946676429269      2.2541127171327493      17.293448589259654
   140   1      5.1601265387805917      5.1027908777983466      17.674666141850167
   141   1      11.765335610071858      3.4866519515564636      15.487801253579221
   142   1      10.719774560361595      6.9230137823846913      19.296112418692037
   143   1      16.802717594073243      1.6169134114503774      17.291521061553585
   144   1      16.685120282300122      5.3720983880499533      17.378963960848772
   145   1      21.320457706788638      3.7573964509097184      16.778046132730761
   146   1      21.075416636783679    0.009388707215388618      16.929430017555422
   147   1      28.502826845520126      1.8587541714491271      17.419422090303549
   148   1      28.393461497303022      5.4469378567061622      17.282534030142362
   149   1      34.268303808362639      1.6643104347925781      17.268594519582699
   150   1      34.688800226216415      5.5524352083991877      17.181124579239178
   151   1      40.141663688401003      1.5916925430822759      17.394261474035567
   152   1      40.471247058600767       5.225950638251228      17.526173172546532
   153   1      45.891457770473259      1.6313305031789744      15.772356323607323
   154   1      45.868322963193322      5.2857111400486101      15.562170551487251
   155   1      51.856072240540207      1.6110112892511603      15.457783663734332
   156   1      51.786679495628853       5.493366084742588      15.251567879105954
   157   1      111.69819051767035      6.9899093771714647      2.6479570572981057
   158   1      113.41692488667101      5.4125915103480926      2.0505848218786764
   159   1      6.5091435797382227      1.8811618035941098      2.8421598611957233
   160   1      6.3976125108369928      5.0587354005775547      2.5603586683287038
   161   1      12.456410604322739      1.6419000911714527      2.3218769639608507
   162   1      12.409565800876056      5.2376391960983888      2.5961742118929108
   163   1       18.33305700789747      1.7636520931461097      2.5395625933458921
   164   1       18.06738261553015       5.464347011087991      2.4474929300811956
   165   1      24.024423046588492      1.9782277640896442      2.3866586252667092
   166   1      23.904038924896302      5.2965870308844432      2.4924406851374998
   167   1      29.830907454083764      1.7733730485463013      2.3806204564694897
   168   1      29.747474284718287      5.3416903160572362      2.5176441406116279
   169   1      35.369109420925788      1.8752469317263114       2.301557381378692
   170   1      35.395004038212413      5.4084944261285379      2.4756662094454591
   171   1      41.034557436481826      7.1747214675063864      4.4249770432660975
   172   1      38.985796067159505      5.0752363656281707      3.7808125132818917
   173   1      47.361349395323984      1.8262824082858891      1.7464569811539454
   174   1      46.750132946870217      3.3945417479539057    0.026545145006547668
   175   1      53.125668589907171      1.7318540033523611      1.4100221445891186
   176   1      52.794458469130802      5.4411899335008851      1.7887659051507749
   177   1      113.92747161851656       5.351807473883504      7.3513251985205672
   178   1      113.79044262837542      1.5896979788901229       7.682216404231772
   179   1        6.53879200649975      1.8066873481228465      8.1626641763148857
   180   1      6.6518514593582747      5.3127382444210545      8.4123458230273815
   181   1      12.637800317603364       1.793290298185356      8.1635859522673222
   182   1      12.326087881973168      5.5683107858075971      8.0578881103673385
   183   1      17.992543911224701      1.6354838174755471      8.1774907270636561
   184   1      18.086087806200023      5.4673193286150692      8.0468134514778757
   185   1      23.874991276674209      1.5968475941862759      8.3703948267912871
   186   1      23.884483873266742      5.2593949584818569      8.1558161428549081
   187   1        29.9378965752739      1.7636849590331003      8.0247170841850561
   188   1       29.67245538196638      5.3758937021329638      7.8215265760272867
   189   1      35.496070392679236      1.8174164664544636      8.3168396169814827
   190   1      33.207043646197469      1.8275231603225084      9.4450144485474201
   191   1      42.947977683954342       1.554060795019959      10.455599114780535
   192   1       41.42260576735945      5.5324787845764902      7.9305337291734075
   193   1      47.249543041904467      1.8895635878555044      7.4312410658442092
   194   1      47.201346023110787      5.3849152516006491      7.4273707796434563
   195   1      53.375735060523454      1.8097338326045089      7.3714877544540336
   196   1      52.992620175495844        5.24319194670377      7.3353043962411659
   197   1      1.2883127825562899       1.596405415602451      14.654046213862815
   198   1      113.38131581191422       5.225161850975649      13.522696535045334
   199   1      6.6332564332849264      1.7228560831376765      13.670632551661534
   200   1       6.738809515159951      5.2817184552502576      13.863245469167079
   201   1       10.09238423956535      1.5608330117740545      15.089237000980546
   202   1      11.555443373201237      6.7179919333328622      15.205887921191517
   203   1      18.151143477957806      1.7301614538786509      13.854781810619679
   204   1      18.283851072041728      5.3940140590876071      13.806564674079468
   205   1       25.15737294283521       1.936092567955618      15.887061904661248
   206   1      22.986019338702583      5.4065835195421545      17.259875224925249
   207   1      29.682547818690328      1.8020660367938481      13.834960397399403
   208   1      29.925983303550854      5.5499530458871416       13.56168109999348
   209   1      35.839810894349192      1.7167239752949655      13.860839771554422
   210   1      33.385377534786535      5.4055086544272353      15.247791607619337
   211   1      41.257092408850703      1.3012520390949296      14.053564285270614
   212   1      43.519772171323638      1.9002025727567793      14.079101844725262
   213   1      48.960523008684262      7.1457735989652553      12.395161417696054
   214   1      47.138276364351633      1.6742474694244582      13.167925948248408
   215   1      53.287064333223086      1.8182807399660152      13.085261791147435
   216   1      53.184874931400202      5.4604613334756866      12.986226241992316
   217   1      2.6022058704705335      7.0683656999249402      20.585366447365029
   218   1      109.68065768188352      3.3012895804147262      18.481623623729664
   219   1      6.2883690237553278      1.8585830839005288      19.545053326739747
   220   1      6.2137129813700733      5.2649568319245201      19.817338695759862
   221   1      12.274171824548322      1.5358516171224574      19.564948442714716
   222   1      12.457073619136503      5.1863927717282188      19.738308420139425
   223   1      18.086575988050733       1.760308534131984      19.657279088321076
   224   1      18.109319147305651      5.1220720779428595      19.513151891176381
   225   1      24.047875404892228      1.8325625675159807      19.575466038819336
   226   1      23.992472053523333      5.5680948189805148      19.410456970932437
   227   1      29.671926280483792      5.3642799212566192      19.619806341283141
   228   1      35.725471242595837      1.5349116040513131      19.596498825941623
   229   1       35.37031169358854      5.2362837447784347      19.483262579643288
   230   1      41.360223998040972      1.6852555886063112      19.868561168901316
   231   1      41.492375794850176      5.1735892529964946      19.788591551335795
   232   1      47.294606325919432      1.8463903157036892      18.769828908856908
   233   1      47.309071892100924      5.1214112553176063      19.063987564278776
   234   1      53.111992237005339       1.768299151108615      18.639825067092779
   235   1      53.023983707833906      5.3593450036307981      18.437691579622122
   236   1      2.7998824505019488      1.0502515498261926    0.050886432514944346
   237   1      1.9220425318032235      4.8360110073588842      2.5303017970493458
   238   1      8.7219908643060062      1.5768595670004166       1.215535784347582
   239   1      8.9624213424259302      5.1982851852153118      1.5119141664166418
   240   1      14.718265880555258      1.7663207021742893      1.1503001585626378
   241   1      14.711194500197051      5.4129383662959567      1.5584230998049791
   242   1       20.68436453725527      1.5683366927709566      1.4375632005887926
   243   1      20.371860049344896       5.423879791568571       1.229287748284247
   244   1      26.035746561548219      1.5127757410545908      1.0146392197083862
   245   1      26.202634757934469      5.2859872616058627      1.2339025732468438
   246   1       32.30902288070731      1.7318663159701411      1.3602348468497438
   247   1      31.919957692716249      5.4729372335712618      1.1856424006484059
   248   1      37.890309493724033      1.9198790896702551      1.4323902951541334
   249   1       37.99410016729253      5.1520796067257706      1.0886283399134511
   250   1      41.500171167000154      1.8590175203006916      2.4900271313962752
   251   1      41.339541990176841      5.5342684808381204      2.8065295900277021
   252   1      48.877000554113209      1.8708656809164663       22.37916005347299
   253   1      48.968686320746848      7.1914689786873645       1.152586212520573
   254   1      55.012967520819032      7.0165426694017796     0.95946603849250145
   255   1      54.319566214255445      5.3844157812047211      22.152198536655614
   256   1      3.3039435104593773      2.1371451100944947      6.7071894466090658
   257   1      2.9454851406120213      4.9524434574264777      6.3521513630346984
   258   1       9.034508831465665      1.7995607938570877       7.136090710296858
   259   1      9.0601164451909373       5.766050507898453      7.1436763394593505
   260   1      14.834087890469757      1.5514377939334352      6.8129398044327321
   261   1      14.572567345779561      5.3220234570212215      6.8808882618861444
   262   1      20.413934313546324      1.7577433530627711      7.1123766094925607
   263   1      20.385495942461628       5.293353990124273      7.1683692004525543
   264   1      26.148182281364988      1.7123390032801662       7.148464510475403
   265   1      26.068630236137835      5.2879443085137918       7.293005987953646
   266   1      31.546228772283659      7.2047447337134845      8.6155470395467315
   267   1        31.3751636182898      3.6166075470642478      8.6214164029753775
   268   1      37.326434083660104      0.1205692415894221      8.6046654320598552
   269   1      41.261158392691421      1.8415364580805298      8.1823059306013217
   270   1      44.794517664029456      5.3783530690945565      6.1126617276069748
   271   1      48.226827547299045      1.9040683368297566      5.4071192766453526
   272   1      48.539692696807542      5.3918414447031768       5.239663090196494
   273   1      56.173797383914007      3.4390540585282383       4.457480822983749
   274   1      3.1612520887483861      1.8863003416435102      12.771784756521214
   275   1      3.1174056252906897      5.3434416659590687      12.555949056008245
   276   1      8.9865277921401692      1.7215448885871052      12.871494232426292
   277   1      9.1084705812217397      5.4691471813170542      12.557041449689999
   278   1      14.535680612510895      2.0281521516105379      12.707109278922065
   279   1      14.734976499188674      5.2727577091115734      12.539522036086305
   280   1      20.349889840926675       1.783149117587425      12.894627240546962
   281   1      20.448023819964295      5.4031969504890833      12.880301769307403
   282   1      26.186995998695227      1.7987258115622253       12.68337839778652
   283   1       26.49766474221477      5.3940841812761366       12.42635770771145
   284   1      32.262175294819571      2.0172345914015382      12.769403164369507
   285   1      32.396953930670882      5.3660119879645904      12.690057762347188
   286   1      37.669352665896412      6.9925408540223479      14.376448626455286
   287   1      39.920675627026917      3.3337916721780765      13.242643171623744
   288   1      44.656781635023485      5.0053557113704628      12.161851871117459
   289   1      46.441853924370221    0.020601474440186309      11.462825421117882
   290   1      51.031706013545033     0.12501055821009213      13.789706173829435
   291   1      50.780486250699077      5.4684736340770748      12.062919845159071
   292   1      56.590912969273553       1.789430766839514      17.623207570182618
   293   1       2.792946091041888      1.3773248390827588      18.804885055801741
   294   1      2.8805345463643852      2.0374323917706487      16.561817017372867
   295   1      8.1040159809908197      7.0938494637525267      20.265377885789579
   296   1      8.6579334437292221      5.5209472418431522      18.538386150823094
   297   1      14.568246835490488      1.4790072062537647      18.570663208448387
   298   1      14.500635179573047      5.2552389110042208      18.636805142475946
   299   1      20.465762224337706      2.0312442864619835      18.370173818527771
   300   1      22.223870973003699      3.6895571178896911       19.09079374619547
   301   1      26.057855102157852      1.9893586056572394      18.429720885935673
   302   1      26.283724845910776      5.3515096399539441       18.21219666244464
   303   1      31.979201932962955      1.9927829579513725      18.232424987386306
   304   1      37.870610813762518      1.6456742454057838      18.362018862685421
   305   1      37.919165620553812      5.3071722651434117      18.641393624977649
   306   1      44.424552811875706      7.1232372316359953      17.172848623313797
   307   1      50.765467855909222      1.6647484487625808      17.688143172087297
   308   1      50.526305976885574      5.3483992682525523      17.647683438664121
   309   1      55.918195743050767      3.6579955413975003      15.990704909979879
   310   1      54.407734260816625      1.6027128629131739      22.282906277931435
   311   1      3.9571396922927753      1.6638316134833371      3.9184953688579562
   312   1      4.1916519359928763      5.0938974744213743      3.8961485945420424
   313   1      10.263512239280805      1.6903500058082055      3.5594706371801546
   314   1      10.149031630503369      5.3318520880840703       3.504959742145628
   315   1      15.892678940130962      1.7505307694799761      3.5390110731310589
   316   1      15.838909995866539      4.9797471794690118      3.7365330947859086
   317   1      21.703989792103584      1.7835233134013935      3.6831093399210086
   318   1      21.616533852856801      5.1753777607869589      3.4186111252442122
   319   1      27.285002349451155      1.8406389028390988      3.5364191485977297
   320   1      27.393555307684895      5.2964468698172187      3.5365263163207925
   321   1      33.262967797889779      2.0501620701163628      3.6080946509558336
   322   1      33.067310459231301      5.3018376934369522      3.5274357059711154
   323   1      39.171302236243648      1.6535252111644296      3.3280655990280859
   324   1      36.707678511970116      5.2297646578906987      4.8037760719867579
   325   1      44.713319084864047      1.8225224423859685     0.69255835423250689
   326   1      43.074983058945683      3.5192967610247101      6.8871918862902834
   327   1      50.160425226352643     0.15817858601442597      4.4536676462261751
   328   1       52.05252568955563       5.475544975469818      4.0453100537548332
   329   1       55.03780745412525     0.23621218778349229      6.6970785851137364
   330   1      56.900725130702803      1.5945685756361687      6.1610814261010747
   331   1       4.294609648966583      1.9658984292041604      9.4899783862588887
   332   1      4.0908086514089819      5.2740307449243193      9.5668121175838561
   333   1       10.29262547401815      1.7307961213791663      9.3414934077179712
   334   1      10.261285147948167      5.4652331262733984      9.2233666377315782
   335   1      15.771550080153759      1.8401821457355378      9.1607957589745208
   336   1      15.977703819216346      5.5637655999211937      9.2459694064024038
   337   1      21.633890409356479      1.5283702124234686      9.4466077386303287
   338   1      21.675309578237915      5.1801700545053357      9.2578586828059102
   339   1      27.712604024627154      1.7437264191604438      9.3777793899217095
   340   1      27.519284792222255      5.4703908897441336      9.3679783362585667
   341   1      32.175966973048148      1.9552731771549954      7.0631100160527023
   342   1      36.744791082118539      1.8216300984223688       10.56211515275746
   343   1      41.248274117766677      3.3500262541672825       9.832809731247627
   344   1      37.362827365542799      3.6259550071324584      8.7781586036705246
   345   1      45.728148074620243      7.1871098534451656        7.92648465100139
   346   1      45.449133891411442      3.7737635874105027      7.7347079654936524
   347   1      49.810545090542718      1.7842158403883113      8.6317004579202639
   348   1       49.59747650001443      5.3245058863650954      8.5519703632382758
   349   1      56.070263252763112      7.1577637210087737      4.3307125989957385
   350   1      57.905278101303878      5.3466032902026077      9.4093824902902661
   351   1      4.3101926056450877      5.3873669368121897      15.213466287982087
   352   1      11.084130970504374      1.5385204453700385      17.296030447184343
   353   1      10.695237681241185       7.219038221603892      13.207495149066862
   354   1      15.614401558971535      1.7620476650944608      15.196013715117964
   355   1      15.881514565585228      5.3920688155285346      15.106907137297172
   356   1      22.091536072856851      3.5982467081072991      13.055100364370565
   357   1      20.296640262638167      5.4754791680081301      18.515522164807617
   358   1      27.469205309046028       1.961561768618949      14.854182348330742