dump/Cu_720_5/steps_71 (written by ASE) 

1995 	 atoms 
1  atom types
0.0      25.526554800834361  xlo xhi
0.0              25.5265548  ylo yhi
0.0      36.100000000000001  zlo zhi


Atoms 

     1   1      25.500846203889989     0.25299980631663221      36.093506879430173
     2   1      1.3860643803169046      1.2604440207945178       1.865399176635423
     3   1      25.504531157843008      2.6320561064985433      35.986727661751345
     4   1      1.5079468330457404      3.7007620492306836       1.789188117706032
     5   1     0.11890905658252386      5.0603262975585048      36.049516747715799
     6   1      1.2818260558952033       6.293664459643602      1.9981527893993203
     7   1      25.417436912059706       7.685818742082045    0.022915075220396389
     8   1      1.2525539724423802      8.7801090316100208      1.6261687048552189
     9   1       25.34005321694449      10.154344594347634      36.094063313544545
    10   1       1.236720533669039      11.377690444430204      1.6387836904660837
    11   1      25.496235348935009      12.907928766000392      35.988531592919422
    12   1      1.4048523059532776      13.963149389421565      1.7872263867117566
    13   1     0.01343733515727856      15.388676779098912      36.078097713641931
    14   1       1.373495153925735      16.584876250797382      1.7534168864269633
    15   1     0.32732267883760741       17.93416289612605      36.016662370360564
    16   1      1.4070401578696641      19.294107361772049      1.6848024943926236
    17   1      25.514012212829275      20.585769414114839    0.040589292755544362
    18   1      1.3156041123472568      21.676899015305764      1.6469358166873249
    19   1      25.463718024357664      23.171379822811364   0.0092201210567736929
    20   1      1.3102716725106074      24.235973342172134      1.6939242255048848
    21   1      2.6793104778088486     0.25864931318672518      35.639199401908449
    22   1      3.7547651282895642      1.3502237594781625      1.6665134590554445
    23   1      2.6044648562697956      2.5266411074591559      36.037102238517299
    24   1       3.891921933091893      3.7818687364248804      1.8842711557283576
    25   1      2.6115978851510979      5.0457587865869815      36.018157432860598
    26   1      3.6499338244198554      6.3333079929846079      1.8675683999408978
    27   1      2.5969459365690617      7.5269776562356778     0.17643128419575776
    28   1      3.8463934901508239      8.9371422049828002      1.8464053681478736
    29   1      2.3376791362024982      10.264702048363519     0.03766572373019695
    30   1      3.7061708837985541      11.566016568367512      1.7359153820239486
    31   1      2.7083528063978379      12.930799618543778      35.980738908185721
    32   1      3.9687845060591798      13.865139222729281      1.8462854809792033
    33   1      2.5352361946562767      15.213570498628929   0.0074376859206154123
    34   1      3.8142713124875995      16.667962824020769      1.9194860615735816
    35   1      2.6832064210583741        17.7349760974719       35.97944889341742
    36   1      3.8954157908674238      19.186789646345243         1.6830981425378
    37   1      2.5882114817346435      20.323287054746377    0.045587204532830695
    38   1      3.5443170670551969      21.652812914100004      1.7121701120264341
    39   1      2.3107678557715796      22.940568456881433      35.950714373560508
    40   1      3.5621217803177778      24.511831543584144      1.6331371055148227
    41   1      5.0913398148351767    0.022215502355012264    0.010256910288160255
    42   1      6.4963438360854084      1.4138897668289081      1.7509482485047345
    43   1      5.0960840773953313      2.6427115379027106      36.034110936780898
    44   1      6.3624416500713457      3.9465267217648274      1.7193464912791212
    45   1      5.1721121263983241      5.0715201297979657  0.00047610787544272122
    46   1      6.2020210816866683      6.4308132934556284      1.9093181135495134
    47   1      4.9489388017039948      7.5971114369226731     0.11717335541859487
    48   1      6.2968249645196632      8.9562124359743063      1.7771933636046024
    49   1      5.1454788786102004      10.155310813720337      36.073806814254304
    50   1      6.2243207118719974      11.631417948134784      1.8563639454575769
    51   1      5.2160632032156133      12.802889225493079   0.0050452110681362648
    52   1      6.5401301401797474       14.20834896655243      1.9412705861095352
    53   1      5.0826359039330802       15.34060737309108      36.050672445514962
    54   1       6.332499604419688      16.791176163094296      1.7368340218548151
    55   1      5.2339115391171562      18.068280534740595      36.072867865131592
    56   1      6.4842942224728999      19.356263603130948      1.6798553414529351
    57   1      5.1246784067450921      20.507293683474892      36.096119872190577
    58   1      6.4003078024864566      21.809946467031256      1.7356982316612757
    59   1      5.2270034358435096      23.097998690065314    0.074396021848792612
    60   1      6.3950731746372211      24.193817499850518      1.7446854462427823
    61   1      7.4382356914506786      25.509057247842041    0.061550682866709498
    62   1      8.9490122194645103      1.2263564855611195      1.9018237547619028
    63   1      7.6367647690632827      2.4481361876053689    0.033989734445697188
    64   1      8.8100054156886376      3.8984370202536738      1.7723805945020683
    65   1      7.6792316482588108      5.0376180958409744      35.943166045320375
    66   1      8.8939974808147326      6.5828516107450596      1.9458160900304633
    67   1      7.6221479613011134      7.4309641837837797      36.097673604132027
    68   1      8.9106608368850431      9.0433113798550124      1.9132089486407275
    69   1       7.591192593362698      10.053506994195462     0.23578824952168126
    70   1      8.6686698161531801      11.549798069345897      1.9878544185436675
    71   1      7.6009756442922827      12.822232378777345     0.12309413903391278
    72   1      9.0437504079599478       14.08014175013242      1.8817225640548383
    73   1      7.5109579228070906      15.263729440166143    0.002756226146459539
    74   1      8.9607539145031243      16.802408590922624      1.9018307481189947
    75   1      7.7542855165756972      17.616938182083899    0.072795267341246181
    76   1      8.9933821694264307      19.160933345235662      1.7973968150004003
    77   1      7.6662202846340879       20.55905465777456     0.12335896382633101
    78   1      9.0507905792021592      21.725371406095785      1.6021036727666462
    79   1      7.6169320371638145      23.036949168599044      35.890807390066037
    80   1      8.9925994157685043      24.207376734944852      1.7565009348153569
    81   1      10.082224994388278    0.069395394329783949      36.040708813505603
    82   1      11.473211702284585      1.1312077530789724      1.7305279610870898
    83   1      10.156279698922283      2.7276896118745597     0.35143830853729696
    84   1      11.316929056816926      3.9109258874388142      1.8815836334387555
    85   1      10.127042618587803      5.2972413980721873    0.089644252992377438
    86   1       11.14314538580367      6.4673123407291309      1.9413186338272226
    87   1      9.9587165074883774       7.855771689112049    0.057949111960203845
    88   1       11.55982944289417      8.9176929115343437      1.8195780236592094
    89   1      10.224361575336944      10.339013709973839    0.084076186766913155
    90   1      11.184751160862159      11.431534986607982      1.7400388510087634
    91   1      10.033589325940298      12.762412628319735    0.050320371067368905
    92   1      11.649237663310478      13.935004136691852       1.817197644690544
    93   1      10.188583040834127      15.217541648555752    0.010981695177349595
    94   1      11.457797231839645      16.918094728565933      1.8616788045899293
    95   1      10.361261497561546      17.866967073768489      36.093520329712476
    96   1      11.413700672631224      19.166609272660875      1.7273251309925974
    97   1      10.063828162174101      20.286845037552073    0.020153222368116973
    98   1      11.451999133403634      21.641643159061491       1.707581256904644
    99   1      10.424987185983568      23.208985318640277      35.943018426663841
   100   1      11.552032362846679      24.220760510564109      1.6469818205863034
   101   1      12.742779972836026      25.468188552530659      35.937809383940269
   102   1      14.061315076923583      1.1046011592660776      1.9293173916566504
   103   1      12.635080275111472      2.6737769879347941      36.048774728059946
   104   1        13.9683708499978      3.4992008899516622       1.811690948489137
   105   1      12.610904930533552      5.1252839429814232     0.32216223662951504
   106   1      13.761452450186091      6.3909198557081091      1.9497843118806586
   107   1      12.564022117984559      7.6162078026335074     0.10101370270152772
   108   1      14.072417825305138      8.7538769654585149      1.9077160833661637
   109   1      12.954564514091174      10.101984375664392     0.11781167164657504
   110   1      13.888045934384696      11.249728417172692      2.0445223039857083
   111   1      12.690170630704937      12.747568536192224      36.094620178835129
   112   1      13.944727400569827      13.708125954112676      1.8670183885748892
   113   1      12.652952101094904      15.325063377187167     0.20638200342480095
   114   1      14.193848429137287      16.339633279310213       1.870378969580929
   115   1      12.918863829629265      17.850116781575785    0.015713847384847667
   116   1      14.092094186875038      18.831544208614261      1.8450876117094497
   117   1      12.782129364723097      20.208886539237017    0.054118082461343336
   118   1       14.16116329633191       21.45772051945697      1.9355983680079123
   119   1      12.763887786701988      22.666690659131426     0.15058152052886284
   120   1      14.123009099494221      24.194001920694134      1.6915932936517506
   121   1      15.178265478687349      25.287432479082025      36.039102533790604
   122   1      16.533097464621846      1.1182282327520974       1.949802912204849
   123   1      15.179596187126906      2.1645993792118241    0.092001468765772573
   124   1      16.603106577687058      3.7163471785254747      1.7911313590266211
   125   1      15.034687448045309      4.9212463584040664     0.21355216753476042
   126   1      16.480477880893133      6.2741498666124667      1.7995827815271486
   127   1      15.255814705440626      7.4097435787844503     0.18564458152588931
   128   1      16.574288978185844      8.8893586448287643      1.9600970062612424
   129   1       15.44097760500358      10.019531859906154     0.10700980685696777
   130   1      16.488418962119443       11.57251820130489      1.8445091415935504
   131   1       15.21636720555296      12.547458374493402   0.0047444399290156886
   132   1      16.498184784443485      13.987462210718869      1.9118135963848326
   133   1       15.09873793252684      15.062374750213079    0.058056262485047264
   134   1      16.819657912645074      16.308100048154863       1.886845326583388
   135   1      15.415928117389205      17.675543924930764      0.1576238839380609
   136   1      16.777210506809759      19.011324811750953       1.953454669928419
   137   1      15.400465148401823          20.30019210835    0.063004940498172055
   138   1      16.671127453901654      21.513935051852641      1.9296818911845781
   139   1      15.271555148969188      22.643678558701691     0.09510868280368627
   140   1      16.482340534438222      24.066577865728664      1.7997207281823862
   141   1      18.098692780704187      25.315566452663223     0.10430819607163368
   142   1      19.189179185977299       1.129769172431516      2.0182438904641913
   143   1       17.97015041426484      2.3678888206044877     0.14281649327593884
   144   1      18.956906299152866      3.7809204630170892      1.9090264348683492
   145   1      17.821705305971815      5.0285580911586694    0.042331610951509765
   146   1      19.217257759455112       6.368291424629045      1.7049969899927209
   147   1      17.814163087024031      7.5350617883029845     0.19879209512851057
   148   1      19.221524241666362      8.9928153582792607      1.9412635980426201
   149   1      17.741409641951794       10.09740356192556      36.035763257670318
   150   1      19.074895035826636      11.512152047730636      1.8249597761351886
   151   1      17.851731343321589      12.665061920035749      36.026770249662341
   152   1      19.190730862576832      14.071261749790839      1.7999586289347709
   153   1      18.024402567096658      15.274106963154875      36.093504907160195
   154   1      19.207711432195744       16.54804258825769      1.8418153848104113
   155   1      18.002525380366556      17.747383013956075      36.018514325951493
   156   1      19.261549820041971      19.123888281390563      1.9134514018274769
   157   1      17.945767439039791      20.422507164107497      36.083051970363492
   158   1      19.151595796957476      21.516639360574775       1.946628929407211
   159   1      17.949125577894392      22.944613177603724      0.0888148099130604
   160   1      19.104592028720074      24.144302902731955       1.973009501359833
   161   1      20.340503799809181      25.422420815015386     0.18663192518077948
   162   1      21.550876222403019      1.0161043647577812      2.0701319854630014
   163   1      20.256932075345293        2.41093122557099     0.40145201536703362
   164   1      21.562604889741131      3.9091094162276789      1.7970948955806878
   165   1      20.270691753592349      4.9383239045840979     0.18737130327086807
   166   1      21.658645459281981      6.5487864989541285      1.7015160034544139
   167   1      20.387245930226136      7.8539854050862816      36.058869829876002
   168   1      21.619936760208333      9.2040721765524811      1.6606024151754017
   169   1      20.116633953362214      10.327419459359511      35.907875375066908
   170   1       21.74743060265649      11.758699891507865      1.7341212820734786
   171   1      20.191956144768561      13.089818507611174      36.007635498595981
   172   1      21.749168180719931      14.038608754991246      1.9581424528773939
   173   1      20.508024645064044      15.424080394774085    0.091791768484381309
   174   1      21.996004362514928      16.672813833281552      1.9550634164958087
   175   1      20.729580738394539      17.952518648836605      35.900598319591332
   176   1      22.132963912266213      18.937672841289103      1.7507235646204207
   177   1      20.539560420641955      20.485255896377375    0.089500895966364194
   178   1      21.789795251582735      21.513600235077966      1.9105678509362414
   179   1      20.410668013758855      22.804399465245165      0.1294448245975218
   180   1      21.679409365704629      24.161240897127694      1.8200607950374312
   181   1      22.859455726604747     0.18976577027813285      36.091127757902811
   182   1       24.06778012423149      1.2122025341576801      1.6849842205397516
   183   1      22.760295302131574      2.6650153330535673    0.087845945967115036
   184   1      24.303216818228542       3.726412301637914      1.6717180303410037
   185   1      22.926357974758126      5.1723477509981155     0.25632164880556718
   186   1      24.336791883635957      6.4415608471874846      1.9428709215110183
   187   1      23.001621404735104      7.7098367254535516     0.16578999658208887
   188   1      24.311825203170631      9.1003282899249047      1.9121967611062718
   189   1      22.879193888987643      10.321963428953804       0.251723910965586
   190   1      24.498178679223077      11.513930878014481      1.9075137978051762
   191   1      22.865010088894419      12.991788619214306     0.20663024986154147
   192   1      24.184202939573716      14.222531825536089      1.6293788332410486
   193   1      22.863820230605942      15.536205334198581      35.994244306621439
   194   1      24.432582781098386      16.649948338892816      1.7567107429195283
   195   1      23.389722987545952       18.02746484454493      35.966910007158191
   196   1      24.311866429156655      19.153080647830663      1.9140397496706312
   197   1      22.981262387388593      20.396587351349254       35.99911382307824
   198   1      24.331682973932338      21.778417760261878      1.7060906872885648
   199   1      22.909616825944681      22.896629133552878      36.082875916775187
   200   1      23.995017912418479      24.299681970673049      1.8422867052797414
   201   1    0.088564918735743597      25.405789566622637       3.191423697962831
   202   1      1.5227151355416655      1.1804572155923827      5.5523760111691294
   203   1    0.047226986172594437      2.4062847968187846      3.5833215650091228
   204   1      1.3751493419057985      3.7452980269506506      5.3367072027225433
   205   1      25.518909547694584      4.8718246863156125      3.6217657757177273
   206   1      1.2801882492401211      6.2750259126253338      5.2763289714073602
   207   1    0.016182550685429221      7.6455410928173189      3.6911504224415461
   208   1       1.265458029822393      8.9990174994480387      5.4077886761970353
   209   1     0.12218587147376624      10.190542856097078      3.5695707964320258
   210   1      1.1314071914740065      11.365918264260662      5.3600647517925584
   211   1      25.426055868942214      12.964243021833793      3.5541779777111522
   212   1      1.2648484992398343       14.08214329472387      5.5072082061566379
   213   1    0.036939865783702917      15.411139255686118      3.4186464725453898
   214   1      1.3252190166992814       16.62859762657634      5.3927141582755285
   215   1     0.34015426143016614      17.914128512084982      3.3734676068618672
   216   1      1.2158837195452237      19.201438544883999      5.5730396719936657
   217   1    0.086692465668478616      20.363790102162632      3.5679677941650887
   218   1      1.3108449418418255      21.759697500724073      5.3157564506550088
   219   1      25.445818585644989      22.917005784114433      3.3806565099118187
   220   1      1.3775537016498722      24.109228655313281      5.3044702900334864
   221   1      2.5887676588123534     0.16931345551618832      3.6769209566006382
   222   1      3.9871743944941236      1.2312251047952261      5.2269446236022077
   223   1      2.4260205729499473      2.6888162478548976      3.6790020137461474
   224   1      3.8636205210269106      3.6865481887510851      5.3795810353613227
   225   1      2.7106755403960867      5.0100629360431039      3.6783883135137736
   226   1      3.7286607305507458       6.352458186659506      5.3871522548696555
   227   1      2.3536857715266222      7.8084296367463022      3.5124752858950177
   228   1      3.6389693075425478      9.0358509215716936      5.2752340887011835
   229   1      2.4247059131201651      10.290907637320943      3.6292281268543407
   230   1      3.7854499522472338      11.479537518122861       5.466240559442153
   231   1      2.5475470179377715      12.648106741914438      3.7370424370312119
   232   1      3.7239168772266025      14.122042874395596       5.266222273391298
   233   1      2.5817111194203988      15.131741999927494      3.5286996794687751
   234   1      3.8861646803740006      16.719912065762774      5.4799122063609103
   235   1      2.6976949372592069      17.849164443789121      3.5934292448765173
   236   1      4.0822625023750039      19.197583385455243      5.4214240149520379
   237   1      2.4623343366471602      20.368460600326749      3.7810364364117066
   238   1      3.8852134166124284      21.730841869401328      5.2905967730769339
   239   1      2.4461187799153317      23.151464759113626      3.5303391366946828
   240   1      3.7231827806433735      24.321582217440735      5.4364329807481466
   241   1      5.1941102493035727     0.10754294389645835      3.5989451203703209
   242   1      6.4593521329090473      1.2519857264231211      5.6049254102026769
   243   1      5.2071438133262902      2.5491357247151378      3.6756534748725849
   244   1      6.4899219579875957      3.6554498939995503       5.490992787015287
   245   1      5.2169599591509073      5.1466425642817875      3.7250909321684862
   246   1       6.384954503629829      6.5797674055070923      5.4880743310108349
   247   1      5.0243482628930076      7.4659874568106446      3.7424462276961661
   248   1      6.4076845079440483      9.0652730596522773      5.5731672634963827
   249   1      4.9753682027771564       10.22039574457837      3.5533309623095319
   250   1      6.2643568995328183      11.464230134622277      5.3004630360866969
   251   1      5.0383024956546762      12.645745254857244      3.8129786134804617
   252   1      6.1929406127707018      14.155775510566276      5.3824478962860205
   253   1      5.1629406063299772      15.338912199413381       3.548538333326007
   254   1      6.4825460765971652      16.503918485693102       5.358485744941043
   255   1       5.212556059554438      17.919670920797763      3.3934314288933729
   256   1      6.4234361015082211      19.245764981348074      5.3968819017306648
   257   1      5.1036186778237571      20.384754820660735      3.3626094574731615
   258   1      6.3768161156585741      21.805130936508839      5.0804248389119877
   259   1      4.9487271496716012       23.13970504533037      3.6050126691956512
   260   1      6.2998166869975121      24.155661608159889      5.3815945617398206
   261   1      7.5260247964480191      25.466542881940008      3.6026655540059664
   262   1       8.998935884562675      1.4137548955397066      5.5003284066417972
   263   1      7.5880783553042095       2.507759882436813       3.573205565374018
   264   1      9.0657332153235632       3.797652388303403      5.3709738031984173
   265   1      7.6874243325300888      5.3010417831780234      3.7106147451407723
   266   1      8.9864723711360917      6.3983044719573376       5.506658783736448
   267   1      7.5447468891224885      7.6945082114708248      3.6898780763022438
   268   1      8.8995370319506453      8.7087385036265772      5.6768962635444664
   269   1      7.5096919098774926      10.207723240835731      3.6787313863751412
   270   1       8.921677623714702      11.568845935501503      5.4512052479345616
   271   1      7.6694164741887567       12.71801835600616      3.8152173244674423
   272   1      9.0317868740468938       14.20678820678026      5.4086622372042195
   273   1      7.8858308146835734      15.277811422940278      3.7147693330717781
   274   1      8.8357959676420847      16.876094957493237      5.4730822231577809
   275   1      7.7489213639576784      17.826029112877364      3.6404970682124556
   276   1      8.9797081433658121      19.231183416345896      5.3577639890831774
   277   1      7.5202146357889648      20.388551787661793      3.3097641704428038
   278   1      8.7298965000938455       21.76163697393438      5.2319304034329903
   279   1      7.6698194233804315      22.803034209930495       3.352764329505316
   280   1       8.735923326024599      24.272025454590981      5.3811645722552708
   281   1      10.064224070110154      25.377653662862816      3.7057213447460331
   282   1      11.410714687458661      1.1902016194390761      5.6275725977077515
   283   1      10.318414749135092      2.3907224225005326       3.788622446995789
   284   1      10.004644909812924      4.8819007426121122      3.4735463020359352
   285   1      11.404889415088103      6.3231100651469978      5.3506493293551509
   286   1      10.176730474948485      7.6598290228880614      3.7078965847243133
   287   1       11.32436306787568      8.6980725770799285      5.4806979520507566
   288   1      10.166802165685082      10.210721447384529      3.6546125178210644
   289   1      11.394644861627778      11.492215280521062      5.5227879813610921
   290   1      10.225752153936385      12.835322255330773      3.6796430662972801
   291   1       11.63116851998676      14.182476630234682       5.449546455012765
   292   1      10.312082905003752      15.482689601618494      3.8169482013663276
   293   1      11.557765932747055      16.678499738599509      5.4435840843130086
   294   1      10.308575055272071      17.806170632450154      3.5595524198010269
   295   1      11.564591710159339      18.941323172152181      5.4187193657944883
   296   1      10.106841859604737       20.37868134746736      3.5862646793634334
   297   1      11.493390193574438      21.598267505526891      5.3052903147650756
   298   1      10.257949165786552      23.045082565751851      3.5891377183462625
   299   1      11.392821674156785      24.244646834547186      5.5374516403589915
   300   1      12.519926830865014      25.361208987992644      3.5828730063135472
   301   1      13.890532633951821      1.0298750636673373       5.275081242876551
   302   1      12.675305373755023      2.4817021172483749      3.6590235235401343
   303   1      13.971702331767094      3.8301615321247104      5.3331251150541377
   304   1      12.382849305984715      4.7745651753478056      3.8616726302028495
   305   1      13.974528102292341      6.1848973220633923        5.12218406215157
   306   1      12.814326417114664      7.6409530117980324      3.5066559399373562
   307   1      14.002643653637996      8.8059592025892712      5.4845605240424664
   308   1      12.612771359464347      10.011934177768428      4.0034063099634114
   309   1      14.107216986554302      11.222118789091626       5.628418502356638
   310   1      13.044166688988977      12.814007193834554      4.0456842385335685
   311   1      14.069203485192183      14.078918151487393      5.6725043884848159
   312   1      12.982983976578431       15.19672175331285      3.4640291611961413
   313   1      13.995234949545807      16.577068876051126      5.5493508835179188
   314   1      13.024769529264979      17.828909807583543      3.6370537981538731
   315   1      14.259197670529643      19.055296021135508       5.561103755308082
   316   1      12.900305009387498       20.19048572907003       3.656146280302043
   317   1      14.096904951910663        21.5805174816714      5.5184925983319379
   318   1      12.778356509906882       22.99198013671953      3.2286917570854934
   319   1      13.904251680270635      23.881017913653473      5.5563867959630926
   320   1      15.071503436155806      25.443566169280068      3.8277535427305498
   321   1      16.419011148396628      1.2567655981359827      5.4317044936081356
   322   1      15.172630996900006      2.4801246423158254      3.5929120665442174
   323   1      16.367759947582268      3.8553361951833613       5.187854457672838
   324   1      15.049791751258425      4.9470311598993586      3.4311418041617334
   325   1      16.753333899756186       6.425036174543977       5.535173877620891
   326   1      15.280248516546354      7.4367020935238504      3.5095645176276675
   327   1      16.505754768754432      8.9898130003428243      5.4748577532938896
   328   1      15.403721163869044      10.062138480012971       3.697160218727447
   329   1      16.555096075535936      11.592522721342595      5.3320804004092972
   330   1      15.155541848280066      12.798714222211464      3.7249939309881039
   331   1      16.588099523606179      13.915679697131544      5.4716327990952731
   332   1      15.286615176307274      15.133656015555669      3.6343694029998765
   333   1       16.63086640584477      16.705947298260853      5.5563172157301306
   334   1      15.483543411066481       17.77804538356942      3.6294686227367201
   335   1      16.838045808245067       19.39698942277359      5.6485850142558016
   336   1      15.508816324387139      20.143455984780573      3.7282140620996116
   337   1      16.701558792494644      21.823587417291737      5.3965460171339643
   338   1      15.134268370859774      22.732526621820348      3.7271759764790717
   339   1      16.615026379635776      24.402891949959166      5.6595119101716538
   340   1      17.774041468033115      25.397142508478524      3.5318015858080556
   341   1      19.006230535927834      1.1587263672639605      5.3727444647001921
   342   1      17.615998130689022      2.3735563519192056      3.5899112628330148
   343   1      18.900474374649139      3.9235248770540143      5.3202186435683823
   344   1      17.754009165544428      5.1401494026494765      3.4983980776757684
   345   1      19.218206415835532      6.4378321756541572      5.5000190980496733
   346   1      17.698787702105584      7.6045816249894047      3.7264505350824604
   347   1      19.274048364153302      9.0700193604901891      5.3279646953787365
   348   1      17.833044726416702      10.113442777256749      3.5248939259408991
   349   1      19.104519392625981      11.486015217141372      5.3945692319996956
   350   1       17.65953120473084      12.541018823668919      3.5139980940994988
   351   1      19.193484787832428      14.086835200964131      5.3384349544639962
   352   1      17.843863600049001      15.375134771513117      3.7028530133733928
   353   1      19.277611373168448      16.578480289096259      5.5636403321659662
   354   1      17.926079838260602      17.884082649954287      3.7878259524065778
   355   1      19.136723502858324      19.063518513934568      5.6449334757401539
   356   1      17.826299596634424      20.399928720250088      3.6277497160050358
   357   1      19.368199615976952      21.600432031767298      5.3885646934860922
   358   1       17.93064815872593      22.967716642297816      3.8128668608575822
   359   1        19.1134242068674      24.180964486848172      5.4910529679763371