dump/Cu_720_5/steps_11 (written by ASE) 

1995 	 atoms 
1  atom types
0.0      25.526554800834361  xlo xhi
0.0              25.5265548  ylo yhi
0.0      36.100000000000001  zlo zhi


Atoms 

     1   1     0.11417552769164205    0.026354414821717607     0.18017166036287346
     2   1      1.7057113731968991      1.2157906252026878      2.1840288200528111
     3   1    0.042611579459651577      2.4675748328813434      0.1021554638400515
     4   1      1.1193491472487307      3.7127185059344403      1.7420215894445152
     5   1      25.484071614719081      5.2371937738051804    0.013971549110158315
     6   1      1.4742454296590253      6.2590072031310164       1.977780564966598
     7   1    0.062909489175739006      7.5462415997545635    0.063912125890624463
     8   1      1.4390513021923155      8.7417289025028317      2.0025990088225991
     9   1      25.523608370895076      10.085093598194808      36.095017079200694
    10   1      1.0903205023329443       11.19273191099126      1.7596543986901332
    11   1      25.206629666089192       12.84003853060335    0.025000257371095833
    12   1      1.1252221173949926      13.812424984540302      1.8438994279803991
    13   1      25.510635514339956       15.43278032671547      35.910351433855432
    14   1      1.1971683282112022      16.783745949970292      1.6934535493127783
    15   1      25.404910816376578      18.017736503179734      36.021596112727117
    16   1      1.1396232501985433      19.340067942719596      1.7614445488022747
    17   1      25.445669737124515      20.679631504270645      35.960885218702067
    18   1      1.0578142966335358      21.693017095838137       1.877820034127855
    19   1      25.505556674659367      23.021483508202657    0.072646148617525497
    20   1      1.3666230424409427      24.264644244974804      2.0324393312329208
    21   1      2.6066298035227553    0.097988991515901444     0.10173299159621352
    22   1      3.9970136888603616      1.5870371549674054      1.8712371865348467
    23   1      2.3989543951309455      2.4097559513899141    0.009160577207171618
    24   1      4.0775659836980083      3.8171907830454548       2.083432907721702
    25   1      2.5203833337357735       4.998058999964881      36.098429747515205
    26   1      3.9372495323856072       6.295101531280169      1.9286871264151062
    27   1      2.5077247061780783      7.6331659543290478     0.18680521880839951
    28   1      3.9799133812984402      8.8341288053458893      1.6182525761452085
    29   1       2.311976785146213      10.229228850012126    0.048603447586163022
    30   1      3.6328715701235557      11.675295364250204      1.7494910908377723
    31   1      2.2943607118338569      12.707748313683044      36.097515002995671
    32   1      3.5973018363880405      14.070480250925687      1.7770591072160069
    33   1      2.4518123946155126      15.062848165515017      36.082764942957667
    34   1      3.5031349784305261       16.63067643657666       1.770025318291063
    35   1      2.5983977745230376      17.839518738387842    0.067988383026431551
    36   1      3.8433986040619965      19.406291249833192      1.7801611548305447
    37   1      2.6025703803190106      20.399418280212462     0.17037824516380623
    38   1      3.7673621496997471      21.869875726286857      1.9962867721883282
    39   1      2.7120504352961343      22.943734866858598     0.13997269637516166
    40   1      3.7890387449953002      24.496688282309957      1.8654667354005705
    41   1      5.0716924835028676     0.39622871613847188     0.21607529342701354
    42   1      6.4873806273883616      1.3653800688512168      2.0132222165195106
    43   1      5.2848871057176474        2.72649960469148     0.29395616139108832
    44   1      6.7071144623048182      3.8048370669229428      1.7894108963997486
    45   1      5.1129195165962127      5.2586476812473508    0.074194301306749991
    46   1      6.3602285132003029      6.4177125753730229      1.7893823279063674
    47   1      5.0563410402788769      7.6965565657373904    0.099916931680786636
    48   1      6.3513887721945972      9.0615065529034364       1.630340926932603
    49   1      4.8496433831913945      10.167076562847724   0.0064595603336101842
    50   1      6.5214483375333483      11.554869985902336      1.5570026157143286
    51   1      5.0127802823891239      12.781561516059332      35.962656270445791
    52   1      6.2506208887747894      14.009941902788603      1.6076508977418498
    53   1      4.8385916712471602      15.330276481447546    0.050955266179346287
    54   1       6.112777804302076      16.529262111555187      1.9078753366021497
    55   1      5.1825140381564383      17.898753441052019    0.031096024836244837
    56   1      6.4183967167825671      19.314470719332153      1.8839846885335301
    57   1      5.3823059303793626      20.422113619456788    0.051351824035623363
    58   1      6.4517334278701908      21.768294939782514      1.7586632297274587
    59   1      5.0718920906083511       23.11427588497676     0.12956079145682212
    60   1      6.5560577600093239      24.412382381628007      1.8291365523952894
    61   1      7.9592074777725861      25.496108052686424      35.980477275831191
    62   1      8.9970624645611341         1.3558574873664      1.8297164722785861
    63   1      7.6849446158732073      2.5154099359848692     0.11024015546142894
    64   1      9.1134456819231513      3.7837817797238915      2.1009966346103184
    65   1      7.7441916667374278      5.2341042024290552     0.12468196564270781
    66   1      8.7758622195223204      6.3695475568897626       1.812089454797275
    67   1      7.6426959222433695      7.7096407171131185      36.098066654751975
    68   1      8.8820793408633953      9.0269520501085481      1.8320291840149829
    69   1      7.6967665920150186       10.12651447836989      35.941010633890535
    70   1      9.0229058399630269      11.609379774738887        1.76175566079113
    71   1      7.9796142458829928      12.783133047421673      35.782852048169431
    72   1       9.015388729241856       14.09303042650051      1.7820877877616892
    73   1      7.5938418250944508      15.429198645231788      35.974193722939447
    74   1      8.6418442393298207      16.728597549940122      1.8230429706725539
    75   1      7.6566184084178577      17.903786038774822    0.050178040192292932
    76   1      9.1393674356840293      19.034374767478294      1.8623874303279997
    77   1      7.8933300843976504      20.449215639513238    0.019357369002682392
    78   1       8.877037975215643      21.802230190377742      1.6906632675391726
    79   1      7.5490535722548895      23.115477978162122      36.059664701714318
    80   1       9.097952127336054      24.151313250990828      1.8108371489407655
    81   1      10.359274807889349      25.493191980721615     0.12517902754893828
    82   1      11.486860000342922      1.2526002051494491      2.0027531282873849
    83   1       10.36255717819807      2.5642762225919555    0.071131395113684548
    84   1      11.731908007489656      3.7479679344303478      1.8153734354504667
    85   1       10.30310311358352      5.0783048726595048     0.22716810918841457
    86   1      11.783766306355815      6.4163947764254807      1.9956873790521852
    87   1      10.249497126332647      7.6606681649507742     0.27564269347441284
    88   1      11.578402139994596      8.8766066286096272      1.8946387463132728
    89   1      10.414950337151945      10.154555228773335    0.080575160261821419
    90   1      11.631184048520259      11.728727705768929      1.5611642623642306
    91   1      10.408793551568188      12.716301638373292       36.03425902555329
    92   1        11.4992372466074      14.167811916476396      1.7007724944040767
    93   1      10.048857236373392       15.56067364375247     0.06566884240454543
    94   1      11.194342589950052      16.882914547651339      1.6777284554891467
    95   1      10.275431142437867      18.037269554979609      35.779761006579903
    96   1      11.597844603644731      19.209793262956332      1.7333849872831366
    97   1      10.342596548557651      20.532726657947663    0.078688365676703009
    98   1      11.559499674664929       21.68826675661775      2.0153707658247981
    99   1      10.276849158424254      23.020185577912862      35.986108670468589
   100   1      11.515027569457123       24.08025828103591      1.9648384229908737
   101   1      12.730841032056103      25.464366345010873     0.32724553758436065
   102   1      14.101460027725295      1.6407194594643673      1.7466246867234543
   103   1      12.960147151024712      2.7343021935814527      36.083739295020301
   104   1      14.107195234279571      4.0098534634222958      1.8630625870371995
   105   1      12.883819643083806      5.1137720669710029      35.995656527080605
   106   1      14.154051880636683      6.2631365381188182      1.7696372387929273
   107   1      12.613916741118031      7.5127431617886113   0.0057418836299802916
   108   1      14.029022211029805      9.0749907514752532       1.590426796357018
   109   1      12.784719338696515      10.173047863812526    0.074570406402278855
   110   1      14.102508452231909      11.518623522798981      1.7234480558232801
   111   1      12.840279597809525      12.708696200548699      35.922675671050051
   112   1      14.062566893120842       13.98230572584194      1.7004507101434103
   113   1      12.700312213253572      15.487354377164479      35.908857368515008
   114   1       14.10377465906377      16.491013650780449      1.8272642497138027
   115   1      12.649169607651038      17.806836343553282      35.971558942567604
   116   1      14.070801895253663       19.11924133240824      1.6154179343431909
   117   1      12.688021011629079      20.300527718079152      35.980303637235934
   118   1       13.98707978096461      21.705904323363189      1.7695429929704916
   119   1      12.735620674708741      22.847185447957362      36.030303753449992
   120   1      14.068809707235387      24.236843251150731      2.1275421443109157
   121   1      15.111264999768645    0.020871930815448508      35.996181897524799
   122   1      16.641069455098194      1.0325269249661908      1.7198855232762176
   123   1       15.37740803257695      2.4735894692215266      36.046110520936146
   124   1      16.720926133878802      3.7282203459305769      1.8539515197792515
   125   1      15.503375639532825      4.7972337184239393      35.995008180467401
   126   1      16.456854360482311      6.2836499080627259        1.94292226072098
   127   1      15.244622377670003      7.7590523550151893    0.047481008768295536
   128   1      16.494353703477945      9.0927238840285192      1.7978294671026465
   129   1      15.279090232052173      10.311775283173937       35.93405033063673
   130   1       16.76694292497525      11.667692935764482      1.8258039281631893
   131   1      15.351396911110019      12.762934416604734      36.035052736074363
   132   1      16.436553985657259      13.891454809706588       1.742831816503339
   133   1      15.115689364463298      15.162250343465079      36.035343719876863
   134   1      16.565851466418003      16.577614081330307      1.7013803443354503
   135   1      15.053025582938943      17.945149979599869      36.057620222529572
   136   1      16.589889865243364      19.105463499314173       1.791822745075172
   137   1      15.263975325804791      20.597045067203812      35.866678659895349
   138   1      16.535879171039237      21.700343994580297      1.7865684169216265
   139   1      15.227389395153146      22.809436186670226      36.022516715821517
   140   1      16.471058785288413       24.29820703707291      1.8307304307340717
   141   1      17.664254475964267      25.471144533106408      36.043055923499502
   142   1      19.006425092381019      1.2684591356322943      1.9064476810444833
   143   1      17.911278166586847      2.5625605985729276    0.024720416417972031
   144   1      19.410386763154126      3.7675794632408897      1.7476546025850659
   145   1      17.960430469311625      5.2677446761891753      36.089850585803525
   146   1      19.332843236650106      6.2631187328734814       1.908632478569064
   147   1      17.679179134601739      7.7538340263374526     0.10852501480312632
   148   1      19.160466678077636      8.8769497989887238      1.7367941254235342
   149   1      17.743082127481038      10.363409222890251      35.999287540718363
   150   1      19.241002153870827      11.625416777266802      1.8352162605742584
   151   1      17.942673280640072      12.686172127399407      35.974539116781365
   152   1      18.736975917554304      14.111795383364013      1.6449659304174582
   153   1      17.780542963942509      15.252319699911569       35.92369831607877
   154   1      19.108735299742012      16.578116660212459      1.6864292550224596
   155   1      17.756303195780948      17.927871855816399      36.094260896247881
   156   1      19.035837036362558      19.053224782258546      1.5907426660178208
   157   1      17.650825702034467      20.390310212411705      36.003856796776276
   158   1      18.981078495120425      21.822502473786837      1.7645720296074621
   159   1      17.745327154407072      22.960354781649077     0.08659426203282676
   160   1      19.077599437283357      24.296231986501549      1.8531543210628005
   161   1      20.402741969136549    0.073988364062130718     0.08360706739752008
   162   1      21.661266232787234      1.2842250733080551      1.7743793185185603
   163   1      20.619727179584675      2.4895482406425535    0.089263046387941414
   164   1      21.780082884218611      3.9857196922510343      1.6540720931096993
   165   1      20.446524347516959      5.0633907487777199      35.948436937508362
   166   1       21.70719065322611      6.5599420221224598      1.7118802633037018
   167   1      20.514835089296128      7.6517356500589715      36.014817698228782
   168   1      21.577027930977813      8.9361576351365404      1.8394100765149224
   169   1      20.357794390533783      10.296560618238306     0.19901908899029186
   170   1      21.708363496649635       11.40213076272086      1.7824535924615479
   171   1      20.242814960848762      12.786350654710327     0.13842497732459841
   172   1      21.547552020250745      13.976625306864365      1.8587227026756403
   173   1      20.208264348730459      15.287078762105619      36.034206502824979
   174   1      21.541249934514884      16.436843585261709      1.8380260907795236
   175   1      20.508418543513272      17.785096374880023      36.039107633645564
   176   1       21.61743083283077      18.888041672337145      1.9424292517807784
   177   1      20.398569700107029      20.267490072702113      36.031431998677633
   178   1      21.429085284066524      21.497147723155138      1.7269981097386446
   179   1      20.405037124984734      22.965897863877352      36.032108425552885
   180   1      21.767899448065304      24.042092160679118         1.7394475722509
   181   1      23.214304335985009      25.466955981756346    0.063940627019394555
   182   1      24.319340061673067      1.2475670646448502      2.0017503504286878
   183   1      23.095273903250064      2.5966020901490192     0.11191468205053066
   184   1      24.168783046488024      3.9382701514683558      1.8903773533196164
   185   1      23.042214756217227      5.0746906808518402        36.0860226738695
   186   1      24.411847217415808      6.3877339226560279      1.9020663416477532
   187   1      23.099137836663207      7.8407226525696769      36.092271604885973
   188   1      24.354872517963866      8.8266700204794564      1.8035274778479575
   189   1      22.811229072360067       10.39736312507403     0.14079787465559551
   190   1      24.211178935451553      11.276925381987384      2.0579932083763985
   191   1      22.603048893334162      12.859749767653705      36.073880085644497
   192   1      24.061617633003603      13.967159234302889      1.7906651250534211
   193   1      22.724657433155375      15.270759882135463    0.017003356253690066
   194   1      24.113837342819533      16.437249681743282      1.4988802667219729
   195   1      22.795212799702597      17.727951572469863    0.060422243308130293
   196   1      24.069566766707727      19.157997434238521      1.8341399133106266
   197   1      22.776337829754123      20.628267205529646    0.076013386465399513
   198   1      23.962014988806565      21.856800292349266      1.9013472535787388
   199   1      22.837429208223686      23.056035514770045      36.095252061073637
   200   1      24.086571020116335      24.275627923936959      1.7979815971402908
   201   1     0.21205895173088954      25.500722113444876      3.6530662246684704
   202   1      1.3525200936192103      1.1509266416709376      5.4713042950811221
   203   1     0.25281627172451865      2.5479103661291038      3.4045216641969311
   204   1      1.1528159220591623      3.9918027626078283      5.2982076739537796
   205   1      25.508659037452539       5.111031126863482      3.4751660483121323
   206   1      1.2814185001087433      6.3692144760940153      5.3264416863362634
   207   1     0.22075599778037669      7.5930810082006817      3.6823565813133943
   208   1      1.2483593887095794      8.8245593411098397      5.4236361783553235
   209   1   0.0063030618173595017      10.103415675594958      3.5217464993414866
   210   1      1.2202100138786114      11.403912288868831      5.4472570230115052
   211   1      25.336535946107041      12.744717688457337       3.652565058683829
   212   1       1.110747843732208      14.020964299207634      5.2241889707526497
   213   1      25.230610624258574       15.21738375814113      3.5852778176852333
   214   1      1.1782551280166198      16.612642828102725      5.1945251190564505
   215   1      25.390069755252579      17.872290971197152      3.5839501046634719
   216   1      1.3687266723393459      19.139605509714393      5.6286103023944136
   217   1      25.379848106780713       20.34490166099075      3.6207961532693687
   218   1      1.3656052681217139      21.592923903599754      5.5206522251432455
   219   1    0.017540003422222415       22.88895958163781      3.6475075935313246
   220   1      1.1852058118235684      24.258035357573689      5.5297515598282656
   221   1      2.8005025970982569      25.438474880403543      3.7354264618518136
   222   1      3.9323357895517557      1.3390968667139622      5.4220187064042982
   223   1      2.6175883293525746      2.6610473321898089      3.7763052150334366
   224   1      3.8839832981287574       3.706244048910813      5.5352440988108702
   225   1      2.6882024780467981      5.1224700522197386      3.6052676731887141
   226   1      4.0341605836271386       6.331246190367823      5.2062447404757073
   227   1      2.8091506177382688      7.6807564563206912      3.6928386020244583
   228   1      4.0020783620172971      9.0328230203096638      5.2928137472755674
   229   1      2.6050585852636514      10.203867144157597      3.6984898318917541
   230   1      3.8100607078971733      11.510070126553305      5.2731801764534678
   231   1      2.4773700322759713      12.604530841535601      3.6653787993819891
   232   1      3.7619193813741854      13.975187867099063      5.2943846502388698
   233   1      2.6037410642728069      15.290783238746027      3.5115250162607596
   234   1      3.6293134934274214      16.772182701147887      5.2998274813727919
   235   1      2.4056089801395446      18.017180287319235      3.6810615513863616
   236   1      3.9094658387360792      19.161116005705896      5.3671580034619808
   237   1      2.5310702343424172       20.56663518874462      3.6277995470627307
   238   1      3.7547306493074641      21.743140202679378       5.764816304716736
   239   1      2.5716770813589038      23.074524145038112       3.704331318115448
   240   1      3.7940101247583615      24.151432114646983      5.5879922957784611
   241   1       5.258843012248076      25.361831819502104      3.6638225247341918
   242   1      6.2985162739978868      1.2197800837615602      5.5150913482248827
   243   1      5.2093946956965054      2.4244985217563828      3.7746810533709034
   244   1      6.3808554411035141      3.7225947161604336      5.7066587769296069
   245   1      5.5258628235773024      5.0228518110770537      3.8214233561685238
   246   1      6.2249656481980891       6.582775245692031      5.5944417377206976
   247   1      5.1798572551018882      7.7552866761932222      3.5216772857478409
   248   1       6.370165291725753      9.0211407416549125      5.1065260256588871
   249   1      5.1863387716148406      10.091587666750254      3.3886979027949788
   250   1       6.470676117894441      11.515445008327784      5.3350193518899127
   251   1      5.0354680963658298      12.731133745779498      3.5812041995070336
   252   1      6.3025839519772928      14.060033988368181       5.364299583334776
   253   1      5.0670469737635075      15.311411743610554       3.612413059334965
   254   1      6.2111807765410312      16.626067331327352      5.5548835172498823
   255   1      5.2666476563844071        17.9920292231049      3.3829191588774177
   256   1      6.3510904537760853      19.049241437651183      5.4997454334761002
   257   1      5.1940248679813248      20.465619909645227      3.5630157176987711
   258   1      6.4064420466513825      21.677731378456688      5.2593939164891248
   259   1      5.2770783584109653      22.913708917267304       3.508321620925698
   260   1      6.3162315700892329      24.101590696592574      5.4325382218631546
   261   1      7.6749479952244313    0.017607584249170583      3.7411679028305285
   262   1      8.8271991264312586      1.2926049795348442      5.6248178206268999
   263   1      7.7981080651185941      2.5117416782203059      3.7617367754067415
   264   1      9.0795706473655358      3.9343604906848375      5.6641507764100831
   265   1      7.9585310964415372      4.9304448780234846       3.656129244425951
   266   1       9.171528229790141      6.5613655273221738       5.436744555756861
   267   1        7.72711240918429      7.5591335896120038      3.6872232777707197
   268   1       8.756346479403831      8.9820388638752764      5.2415618386313749
   269   1      7.9038674238837228      10.367422349382142      3.5945679641461319
   270   1      9.0022191080053382      11.683804933510242      5.3790728948409781
   271   1      7.5487569941973671      12.736488035724005      3.5105594876470252
   272   1      8.9024135260333814      14.182591749905123      5.3797590417005381
   273   1      7.5794971154359692      15.257389848064665      3.5688288990022801
   274   1      8.7617235529797632      16.615714522416898      5.3925930080593485
   275   1      7.5819768280328805      17.985090138710731       3.516014879141597
   276   1      8.9552295427512458      19.137202340567281       5.438813236019393
   277   1      7.7422938103909154      20.616163306877425      3.5732822323281206
   278   1      8.9474116742987846      21.620560295085035      5.6022229202381464
   279   1      7.7642463446080052      23.128665109231079      3.7433711048688387
   280   1      8.9068829312452991      24.285200929971154      5.4765953842236499
   281   1      10.246288497955216      25.406852662454291      3.6446937896142204
   282   1      11.281090411625003       1.172785954260714      5.6121952515393412
   283   1      10.415886914584915      2.4535538105755239       3.611892334264442
   284   1      10.305907988125426      5.2060971690991673      3.6873937173738409
   285   1      11.647502557730041      6.4537033921329092      5.2206002946043215
   286   1      10.292348283986613      7.6571853768043407      3.5831023577438845
   287   1      11.351752169765714      9.1393122099064783      5.2922584284243337
   288   1      10.242402133168378      10.266694147472126      3.4287412194208522
   289   1       11.42321492396327       11.84934636185284      5.4692060968715923
   290   1      10.233281757745459      12.868769062168974       3.569103949549195
   291   1      11.453828362594523      14.193466240128712      5.5054236205897107
   292   1      9.9937341591705273      15.533207018420171      3.2902538284255014
   293   1      11.640833139065348      16.431306022326378      5.2132341162078193
   294   1      10.329287616756762       17.87390495997693      3.6833116371307524
   295   1      11.738032321215877      19.068220961947159      5.3782136445826882
   296   1      10.153962428788157      20.330623307934594      3.5760836847378759
   297   1       11.40799618477261      21.730951122033972      5.5295379660167052
   298   1      10.302349684612173      22.898143926786368      3.9203366001620346
   299   1      11.417520125503406      24.218101777488393      5.5952876710284718
   300   1      12.824204086933124    0.063511338599363393      3.7078460026706286
   301   1      14.083436346897738      1.2838253484988382      5.4885825207638907
   302   1      12.820491742770065      2.4906773319064341      4.0196565611363413
   303   1      14.031238758904372      3.8910447092776992      5.7374446071201701
   304   1      12.684366109308913      5.0198239009725221      3.7906911261748157
   305   1       13.95375552821595      6.3693638046194998      5.4976123499761593
   306   1      12.752468004996846      7.7756051146948311      3.6734518388748012
   307   1      13.864343069638309      8.9541860346290036       5.472242403691352
   308   1       12.78672362221254      10.228881739925521      3.5404380827773809
   309   1      13.996105633494992      11.398714658516957      5.3345466591179793
   310   1      12.793990944695581      12.680648574862699      3.6061338406485088
   311   1      14.043284945276504      14.014126453623387      5.4958178935399138
   312   1       12.74361394894577       15.19087212051757      3.5364679008484261
   313   1      14.056074687766333       16.47511546267949      5.1186543873941233
   314   1      12.750847813904411      17.900172751173987      3.5555980162247476
   315   1       14.21041247938404      19.046133480878421      5.3261486456948219
   316   1      12.675052319101413      20.424489700758134      3.7739783665412743
   317   1         14.044669587999      21.510214283917016      5.3588660246151631
   318   1       12.87729501282957      22.886283605214217      3.7774425089386141
   319   1      14.208807564426543      24.088607667550754      5.6316356267261485
   320   1      15.370870220913154      25.491174846636579      3.4287834438753064
   321   1      16.672587859630092       1.189770036357942      5.1828391618075624
   322   1      15.364233783714605      2.5110082789928043      3.7699894811850365
   323   1      16.698198859481156      3.9262283013756991      5.4471387678074263
   324   1      15.321445920158403       4.974104923246534      3.6988037362780219
   325   1      16.668639201778657      6.6245790913672931      5.2585789910091751
   326   1      15.169596446124865      7.8492905976688538      3.4391857396055241
   327   1      16.462004942289955      9.1212805952484075       5.253728644506463
   328   1      15.369762417116869      10.364065544145429      3.4134828154245485
   329   1      16.617171505815605      11.536501571605998      5.4066079981679698
   330   1      15.348791075620907      12.671246945253031      3.4058393870392365
   331   1       16.36074310723961      14.084834280832215      5.3478454682028955
   332   1       15.23887659930153       15.07497711024685      3.4457099527547812
   333   1      16.465117719981464      16.460313495875237      5.3782664720933759
   334   1      15.245772408920805      17.777396658943609      3.5106294481038489
   335   1      16.739661420647646      19.035941930880011      5.4275384613553088
   336   1      15.204107649609025      20.397576445918123      3.4751091339068467
   337   1      16.475315500683397      21.469464102900506       5.576142585334158
   338   1       15.19298559978956      22.947707315900946      3.7453527990956146
   339   1       16.44162137689921      24.179917481116654      5.5894040634451718
   340   1      17.944121623312583    0.036838356709138924      3.4881644150902971
   341   1      19.024191976861871      1.4532228675587704      5.5345774011336282
   342   1      18.068651317915688      2.6982018052148389      3.4742547812331961
   343   1      19.227530492558309      3.8125486685052836      5.5163441275502691
   344   1       17.75641474128108      5.2660165275313435      3.5320283392027152
   345   1      19.030690793782458      6.2629904906815241      5.3502772494409134
   346   1       17.86815180836988      7.7563444220510593      3.5138012553454372
   347   1      19.072419281437703      8.8597051591352631      5.4569127350061475
   348   1      17.904826894144964      10.386871420131467      3.6480394799997029
   349   1       19.14606383078182      11.461706842835722      5.4490088923472779
   350   1      17.876152343691558      12.812791689859996      3.9086944996933597
   351   1      19.063522581876317      14.192988426299067      5.4798007458346829
   352   1      17.821919995478321      15.278491656180734      3.6408641930190302
   353   1      19.012219987355373      16.652886578876178      5.4311038203104278
   354   1      17.865503107213975      17.928072791150608      3.4405461252278213
   355   1      19.159535812882186      19.148688090193005      5.3328573339426493
   356   1      17.534102301440377       20.46179440655321      3.5970532211120374
   357   1       19.17950685945236      21.474824129938494      5.4226815941148665
   358   1      17.738977859061041      22.913418236449029      3.7747194442109122
   359   1      19.083581254607562      24.223353419244742      5.4283180666831621