dump/Mg_900_20/steps_81 (written by ASE) 

3980 	 atoms 
1  atom types
0.0      32.100000000000001  xlo xhi
0.0      55.598830921999998  ylo yhi
0.0      52.130399999999995  zlo zhi


Atoms 

     1   1      30.737625304189795     0.80639327691159246      2.5342940394949176
     2   1      3.3163107036376682      55.576329831438485    0.077099015347293035
     3   1      1.7645898603211652     0.54775281904755913      3.1551857562227186
     4   1     0.18433430794788186      3.4185172769221142      2.6864497465406401
     5   1     0.42495715787687588      5.6711421025951658      51.791708291852132
     6   1      1.4466050575603999      9.0084073607508017      51.635903012402153
     7   1      1.3514026838430473      6.2792058277564067      2.2980066863582018
     8   1     0.16332462066378714      9.2104363305951669      2.4076638701022546
     9   1      31.880909998567606      11.724290165318992     0.14435581629863065
    10   1      1.7452289302969028      14.578442350060183     0.12870622909002258
    11   1      1.6324891209228447      11.822803170185271      2.2890688474662118
    12   1      31.845829180998255      15.255528427022751      2.6916417476826973
    13   1      31.664394114274465      17.032106375126187     0.27504533932092151
    14   1      1.3586937489661122      19.491887902927758      51.763039438292793
    15   1      1.4770431432014706       17.44370259081483      2.1514557730439376
    16   1      1.9574789122856613      19.157949465521071      4.9373184891658601
    17   1       32.09966811636567      22.278473085822135      51.598098449994843
    18   1      1.2837454067635601      24.871861966042186    0.055922435569101737
    19   1      0.2787671162072588      22.534614879909427      4.8532950455276778
    20   1     0.25139749930839539      26.109797387979416       2.614062743333883
    21   1    0.014449244048835559      27.786666701399874      51.938529925110224
    22   1      1.7162512881222192      30.657078710344145       51.84723226979942
    23   1      1.1455278263666877      28.899454710110064      2.6688270948039392
    24   1    0.082023780224428522       31.66053893482918      2.4194652134423551
    25   1      31.978709315753388      33.529181840209986      51.681096199202408
    26   1        1.69733493586364      36.523225415445168     0.17218403328473511
    27   1      3.5161443542289841      37.330415471212497      2.4450103365569338
    28   1     0.68656486680174766      37.277862306882334       2.437991803304342
    29   1       1.581101584660173      40.030027197907941      49.313146488919685
    30   1      31.779456267127792      44.091952440123102     0.14456263176567549
    31   1    0.066512431293440477      39.205608747091176    0.010731835605909673
    32   1       29.29249122046679      43.594907052628542      5.2212425575531256
    33   1      3.0490725292120859      45.098631680730229    0.064724694017440201
    34   1      1.3390518888401466      47.602638390891691      52.037697022751814
    35   1      6.3443343189228827      44.696438940674902     0.25369839949943196
    36   1      30.402489249518659      45.205425592978209      2.6773271530108516
    37   1      31.892018912587158      50.032832037739503      51.824173244054883
    38   1      1.6609702330202529      52.751696523581948    0.027836806380263149
    39   1       3.039448724160688      48.154982662791063      7.8433381984860411
    40   1      1.5515506976061315      52.713917344026925      5.2554044533032114
    41   1      1.9441853734008114      2.7613251555331151      51.784330371229579
    42   1      4.9532086105445217      2.6900367968327523       51.85681822950523
    43   1      4.6477303714072189     0.81978369295117692      2.6899496870238049
    44   1      2.9186417779883196      5.0566621522983253      4.7317796040040001
    45   1       3.247248116806007       5.555319421031693      51.850364100838028
    46   1      4.4351940143224313      8.4122434272695319      51.851499693168343
    47   1      4.4349833366706823      6.9094127538853769      2.7812094349766419
    48   1      2.9639399080944027      9.3231063111251817      2.5822264742439405
    49   1      3.2814782425596212      11.570514703901582      51.968956173935716
    50   1      4.8608657373997293      14.554831150468244      52.054736563220096
    51   1      4.8147421769673837       12.12046945503492      2.4309997080695931
    52   1      3.1037983140585577      15.019940382497376      2.6083048477986419
    53   1      3.2212347654360918      17.201621287462139       51.88195054155738
    54   1      5.2870644630802452       19.81029850945696      0.1880008479096634
    55   1      4.7874057636858778      17.413855375813789      2.7907767401559624
    56   1      3.1148892690187169      20.439607500000012       2.560543152160363
    57   1      3.1526918190286457      22.177306322416616    0.037355249605219423
    58   1      6.1606174099519517      22.675435231445917      51.841798875724216
    59   1      1.8532083990332358      23.518422558711521      2.4584470650567152
    60   1      3.0190231869222321      26.258730440652222      2.8359167850055598
    61   1      3.1218906951459897      28.127860106772733     0.35176540170545628
    62   1       4.798001643793504      31.105149005036761     0.66257882098296272
    63   1      4.8187669770537953      29.088942234654056      2.9011669423032385
    64   1      3.0922761045931364      31.572528044581418      3.1031600139715039
    65   1      3.1984234971709551        33.1206174414733      51.905679442782876
    66   1      8.2689074513018852      36.289595764295079     0.32334440368700273
    67   1      4.9099021236700393      33.908938958170907      2.6007081406931967
    68   1      1.8876265600146587      40.072304681766965      2.4532628806953882
    69   1      1.3678021760895551      42.111417602584957      51.981450593591617
    70   1      4.4743982201607926      41.811858087283156      52.060734200643246
    71   1       4.490836086529634      47.659217609763168      5.2863019428128881
    72   1      3.2395703803874412      42.881168496040104      2.5101709641050003
    73   1      8.0312806869279516      47.318835840270985      5.1136534776594402
    74   1      4.6945925697891644      47.577232104817867     0.28897156394115298
    75   1       5.052946140015008      45.628170618685402      2.7911629272849781
    76   1      1.4594224661438056      45.316509623154694      7.6941774601068254
    77   1      3.2579690434257369      50.300200214149719      51.746761991144133
    78   1       4.650183357065333      53.039698378886477      51.798656682805003
    79   1      4.6953578308089376      50.899522504843823      2.5478235209466127
    80   1        3.26773899723523      53.568019170450782      2.7594569004971392
    81   1      6.3618780729649513     0.08147076142538591    0.058124590276400462
    82   1      8.2382714224253828      2.6805066599510785      51.975572043794173
    83   1      7.9769924135681682     0.57422469593831926      2.7716457085564752
    84   1      3.2890978095068291      3.4192137626408901      2.2399968529444703
    85   1      6.6599566974154305      5.4908970443269798      52.100371360068344
    86   1      8.2219774349424242      8.4347043684030734    0.084305355773395124
    87   1      8.0274109711547172      6.7725558727685433      2.4660729962643906
    88   1      6.2882945044239147       9.227539163498145      2.1731512251435383
    89   1      6.4176407072820973      11.724744697882267     0.17945677540945792
    90   1      8.2961689672403161      13.823436195111492      0.2313016471885059
    91   1      7.8801932805668757      11.762605772877988      2.6283229587030879
    92   1      6.6745499709514275      14.392281244018177      2.5261898895551691
    93   1      6.3570027979526849      17.118116161113647       51.92357446004435
    94   1       8.234056788731003      19.402040943947011     0.19028116954119934
    95   1      8.2317720010243196      17.221023604643776      2.6106688702555183
    96   1      6.5389137565496389      20.744207685294782       2.566515482761452
    97   1      4.6801399089730689      23.269093557589855      2.4897027002165535
    98   1       7.920815903726794      25.194202970822484      51.985400607705365
    99   1       7.917930395677911      23.179666184933428      2.5105878637453598
   100   1      6.4113163770046668      25.678072520681031      2.7853104375758342
   101   1      6.2047199096785866      27.563929641991773     0.14910802941861884
   102   1       8.063818943493871       30.18478733850375     0.21941386384724923
   103   1      7.8464374984853915      28.512973393333951       2.635942628734262
   104   1      6.7659202647074554      31.634714672295985       2.864145522784415
   105   1      6.6919052394398539      33.084894808201661     0.35691869500062945
   106   1       11.42914653418646      34.355929642541241      49.484736996546722
   107   1      7.8400097202166821      34.491061161949169      2.4661515343856255
   108   1      6.5276377176802347      36.775858700305946      2.5970499875238149
   109   1      6.2756385266244248      39.154223561054522      5.2995745439392055
   110   1      8.0689665169886968      39.721627179889019      2.5811122139947389
   111   1      7.9180665259735914      34.575458329964178      49.917140126128771
   112   1      8.2953908441245456      45.437899418058358      2.5533252750656747
   113   1      7.7650187667767403      41.548162754928406      52.095286884381522
   114   1       11.38448165395069      47.238308147234378       4.965714254429197
   115   1      9.5341045962416207      48.200980310657009      2.5452195398652915
   116   1      8.3080118786298787      51.144932589864041      2.8149658996530564
   117   1       6.269341225027528      50.127626391135195     0.27433983718065175
   118   1      7.9337826963863813        52.8002306300708   0.0013758998294395475
   119   1      10.012368436671826       50.16871945826734      52.128130671010275
   120   1      6.4582986274893104      53.537697080073414      2.9077343296214893
   121   1      9.2792057976712545      55.542920911594571      51.961706611757734
   122   1      9.9310859439911408      3.2635749508258547      2.3902548805216526
   123   1      11.049507047357711     0.49775946807878318      2.7887909066063403
   124   1      11.431803655599381      2.7185455916653827      5.3232255875377046
   125   1      9.5933008564923803      5.1972483825729672      51.916689650248827
   126   1      11.240411673653261      2.5764674854449168    0.090693255713971258
   127   1       11.13883967038473      6.6882556686328485      2.4586834853647228
   128   1      9.7625582644635429       9.377445084516312      2.4775097053409514
   129   1      10.059316861204918      10.728093226135433      51.982717537953882
   130   1      11.374858526619619      13.579476176569283     0.09721387650100892
   131   1      11.273573590337818      11.491473636828491      2.8411758539597369
   132   1      9.7483294071554685      14.220795907026611      2.7374287811339189
   133   1      9.2314557839224047      16.545027458373582      52.089203870803786
   134   1      9.7652704813820126      20.407706961005413      49.601573841180659
   135   1       10.85593211967679      19.227022481044301     0.13912780693178192
   136   1      9.6115200541531642      19.948698614360261      2.5418394973407299
   137   1      9.5404546173086597      21.980975478026707     0.16415917538734887
   138   1      11.842309803373142      24.778228943189013      0.3958340063479337
   139   1      11.161149942599669      22.934732746949461      2.7664193038774649
   140   1      9.6838964826194633      25.848647621019683      2.3783242734579351
   141   1      9.6280789891796452      27.237403482678715       51.89633282912245
   142   1      11.262679838572854       30.75608631199653   0.0032053549155917627
   143   1      10.804796854361578      29.056393897478831      2.4135496851802825
   144   1       9.455125165966372      31.830483567053008      2.5640772704444945
   145   1      9.9514043235087151      33.583807836020384   0.0063192556153903769
   146   1       12.80627850387687      39.095390733660579      0.2011627408774882
   147   1      14.192778774134037      34.299210426251072      2.7665568440087207
   148   1      10.979793822949139      39.865383538642035      49.582698030641211
   149   1       9.667511690794953      37.035277082047209      49.908472187866032
   150   1       9.771689259221219      42.436087320694568      2.8281062911325821
   151   1      13.059107214148399      42.645404051007397      2.4917209304165575
   152   1       10.94533556853559      41.608229973406004      52.092748672782157
   153   1      11.352879022718133      47.499362752586542      52.047460030077168
   154   1      9.4436502041869126      44.673005918041319      52.073812718212061
   155   1      11.686743990758234      45.598505955622684      2.2925805345478811
   156   1      13.250450679815103      50.074366441473835    0.074427921186934184
   157   1      11.369590576715552      52.757298903514652     0.14214824809382312
   158   1      12.975288879301718      50.017069524295572      5.1975331027199339
   159   1      9.6861706362480025      53.835081350547142      2.5619099288217915
   160   1      13.884518826185205     0.64941455300400397      49.344903578278156
   161   1      14.569651857317544      2.4343024980005672      51.483158809180139
   162   1      14.431494084292174     0.83260368573312826      2.0254651449919683
   163   1      13.040186482056107      3.2989272775501077      2.1900503326977128
   164   1      12.770850562583895      55.578213964226748      52.036382372706143
   165   1      12.780100133498483      4.8789435126696921      51.617929868078342
   166   1      14.643990750000748      6.2703642389456489      2.2415364408247886
   167   1      12.903263183517394      8.5032050917687503      2.5508457599365153
   168   1      12.992960346773486       10.68162778904588      51.834110700905285
   169   1      14.540302986834934       13.68972627851698     0.19955280392636629
   170   1      14.481294059038882      11.667701651143073      2.5951267940206257
   171   1      12.777012393665229      14.478773048283422      2.9437290405334453
   172   1      12.442094254612014      16.615824735505061    0.046091347523642509
   173   1      14.233483081051205      19.432901591856133     0.36237727521574137
   174   1      14.373249730497033      17.263009074116656      2.7410044511212335
   175   1      12.975500237600572      20.093213642963789      2.9351707739810164
   176   1      12.246104165482466      21.743122775409592      51.994179978580974
   177   1      14.850589671060494      25.368136556569244     0.15942122926937144
   178   1       14.23522031881746      23.152923548518483      2.7460752115462213
   179   1      13.021303362543966      26.181192902539959      2.5820956470278644
   180   1      12.734205838070856      27.813403679675964    0.064657969873539917
   181   1      14.228759867783728      30.717866116787039      51.761448215717337
   182   1      14.000744236704127       29.22385658233792      2.7826700099190935
   183   1      12.361489354771214      31.916651357494892      2.6293696574830583
   184   1      13.040036572948297      33.414471695037101      52.053709247379921
   185   1      15.566006527050734      37.375189896276062      49.709753879150306
   186   1      12.982827909302756      37.242567721992664      2.8473240161402424
   187   1      14.487796101430504      36.433960438790152      5.3247046319623088
   188   1       6.503906340231409      38.736915839349763      52.094209237178326
   189   1      14.149847860382121      41.994122587990816      5.1866032721702817
   190   1      11.234017352478272      41.677695155977624      5.1907961286118791
   191   1      9.9244435452754853      37.328630595497138      2.6989134961044035
   192   1      12.845361738944018      39.176768170179912      5.0992529485558871
   193   1       14.09646791124408       47.17325095330613      51.898567347904894
   194   1      12.777356583559827      44.475156692943571    0.025464641621504872
   195   1      6.3161268137268571      48.289279985447585      2.5482927158513426
   196   1      14.725143705650899      50.984513560167862      2.7316200824060322
   197   1       14.38724867222394      52.909405739586653     0.36217569186443921
   198   1      12.776675679437073      48.482714763289962       2.398636426235071
   199   1      12.917562148418209      53.689146422487021      2.8955669549900631
   200   1      16.391175929179443      55.288803010776924      51.882522443684486
   201   1      17.720374829351211      2.7302106982885377      51.664552039713534
   202   1      17.267263780031946       1.188464190654634      2.5614808846394519
   203   1       16.27756032716632      3.7933562595553831       2.111546146261269
   204   1      16.196817121208611      5.3991697179799178      51.837217719339016
   205   1       17.97272711188489      8.2518874642670514      52.101986119673491
   206   1      17.576298734546533      6.4512457169258779      2.5719959966163324
   207   1      14.933409601483939       8.018202432033295      52.004793148261186
   208   1      16.057954561599178      9.2321242422540983      2.7491479609873131
   209   1      17.590060235832631      13.899180506204875      52.096860297824783
   210   1      18.023966089918737      12.342765435554689      2.7513390017187307
   211   1      16.023364732297434       14.75551962996922      2.6814005432304575
   212   1      16.040924449001444      16.495808395342745      52.077871009530064
   213   1      17.575357446199551      19.665081904286236      52.021030890280329
   214   1      17.478983642597356      17.170107565190065      2.6070265235840431
   215   1      15.844511346297589      20.426322175814843      2.8218912493609514
   216   1       15.92969624550048      22.267534268079064     0.12291448924024745
   217   1      16.112984076677883      25.808019496545523      49.601675149401721
   218   1      17.760040274485494      25.062397704904335      4.6527034805449752
   219   1      16.307346887585123      26.727698468511512      2.5698122685896823
   220   1      15.964005084380467      28.200203505828163      52.028343802412408
   221   1      17.766051949332525      30.750732634318872      52.116515585930529
   222   1      17.931328782188846      29.003867113023212      2.5332032447302191
   223   1      15.861202992454862      31.474594268240164      2.2930740351605086
   224   1      15.924167976075077      33.802997304720485      51.980722555497287
   225   1      14.394248893792831      36.308948097512229     0.31980881143081019
   226   1      17.372160160159812      34.436522304457128      2.2743897743632822
   227   1      15.961497110982039      37.313372527319657       2.718219651109147
   228   1      16.002997712462765      42.650935059173499      2.4466784921183433
   229   1      17.733902410911767      42.196909337279422      51.710063496741171
   230   1      14.681668770585581      40.079069548465682      2.7722825505002864
   231   1      15.918555487172531      44.240747061881102      5.0003922637731941
   232   1      16.054644341493063       44.81245118095228     0.16915956376433691
   233   1      17.672745306918653      47.622395457207077      51.732391295723033
   234   1      18.025389996388075      45.570611734968907       3.412426268589142
   235   1      16.060733126508818      48.114671955316389      2.9178611139985646
   236   1      16.244945447510108      50.261552881450378    0.069155202995530865
   237   1      18.047684553877751      52.895393614917708     0.11572374765793036
   238   1      17.870860855210438       51.05943158549001      2.5316252790401927
   239   1      16.556684376311569      53.823738994518088      2.4505758935155639
   240   1      19.391404371418123     0.55400720827905026       51.99280640621356
   241   1      21.298991387670675      2.8802004823158902      51.774061397587424
   242   1      20.501862606398408      1.3115918559616035      2.8825105715321664
   243   1      19.428565567429839      4.1025558556018886       2.615706827706521
   244   1      19.579360936159304      5.6760729735106645      51.946063098716614
   245   1      21.384842995884867      8.3118454404649498      51.944786868562062
   246   1      21.145238167282347      6.9849005776802322      2.2374438539602681
   247   1      19.109692008890864      9.1220676628539028      2.6984388979610068
   248   1      19.418257548377788      11.042803416646576      0.1064442563278704
   249   1      20.477865140240535      13.837484366012511     0.04050649088719456
   250   1       21.32476016503777      11.957079718794757      2.2889591645458514
   251   1      19.675320441161073      14.959604534187605      2.7236352111014264
   252   1      19.329260613418946      16.639737700843522      51.946008096350859
   253   1      20.773600504230316      19.441019192913206      51.870180031961951
   254   1      20.688331249944149      17.687048904896265      2.3723796719774208
   255   1      18.849614846795536      20.086811829093797      2.6770509156387483
   256   1      19.263098731467917      22.220833574792831    0.051752264477789488
   257   1       21.53443450124859      24.671834006492329      52.027006125286221
   258   1      21.014573318971109      23.228472617412429      2.6684334210380496
   259   1      19.327517431354664      27.921637754367588      51.697325180701512
   260   1      19.447926565233441       25.60873744892665      2.0870000016551007
   261   1      19.102721278731835      33.670246859633451     0.13576236630617106
   262   1      20.970718616971403      30.301712280030248      51.910740947288311
   263   1      19.068905138439035       31.90488568027455      2.2005565721755307
   264   1      17.592085461005791      36.574792915869779       0.219306166632003
   265   1       20.46804094455165      36.449655244768408    0.026399262234285452
   266   1      20.654659158553034       34.91467420042715      2.6631738339679392
   267   1      17.941869184405025      40.173948975485018      2.6129023165860494
   268   1      19.211196805031562       39.54132061772691    0.026298161572527803
   269   1      19.476898341571061      42.806502299710445      2.4602790326403738
   270   1         19.193569612969      37.648090670149287       2.589823041417838
   271   1      19.336526451537047      39.209182066695213       5.661591494357455
   272   1      19.152305608210902      45.101490701573063     0.25728771592664335
   273   1      20.849085018751563      47.428139581138382    0.067848349233666339
   274   1      20.935391741167635      45.585657981653348      2.5292029885516136
   275   1      19.137694650181487      48.113824852054933      2.5187363399455562
   276   1      19.488030378239504      50.280290066030346      51.848188239090575
   277   1       20.56918382938753       51.26984016852829      49.143982511906707
   278   1      20.733366808381572      51.312193464491479      2.3219087987166347
   279   1      19.505928909046357      54.351490179270719       2.341602129835886
   280   1      22.245128079107818      55.569581949813362      51.786840289075002
   281   1      24.281955575614543        2.81492717544476      51.539033510994805
   282   1      23.254902005389411     0.99155223251298341      1.9863324260928796
   283   1      22.635682633113213      3.9393803133372298      2.0080834706105133
   284   1      22.977913950339101      5.8013987788706141       51.82973269013705
   285   1      24.541560042641422      8.4185455105397349      51.523549325342117
   286   1      24.578475624498683      6.4949994264384108      2.0820821274085795
   287   1      23.080473802986646      9.3060954075023883      2.3951076920468841
   288   1      22.610474109411932      11.345815903163377      51.984368975749582
   289   1      24.324995852026753      13.933978998585458      51.827454574891284
   290   1      24.500650503756546      12.144101903060475      2.3053289920389153
   291   1       22.75667097988288      14.390849399099482      2.2187451827209808
   292   1       22.59855163431336      16.259098476342821   0.0027285587072878119
   293   1      23.555711291235671      19.031944537673713     0.31474211472191821
   294   1      23.612759786008816      17.091636848318164      2.7142283526414022
   295   1      22.415597919090768      20.594254275842705      2.3095714965074809
   296   1      22.123369823232093      21.914275481437976      51.886927667976174
   297   1      24.527474958296899      25.293368201236657      51.869155312097554
   298   1      23.865767919420311      23.360691766277714      1.6975282023975211
   299   1      20.524609424665179      24.922036307495816      5.1246226183347101
   300   1       23.00557816440875      27.825949989089374      51.789521828356733
   301   1      22.203626437033883       31.49402764764686      2.8537424191423031
   302   1      22.434188793808779      26.140406549423261      2.4720969307929908
   303   1      20.909338340727086      28.843022142324504      2.3222144942300407
   304   1      24.184998683737081      30.966809078689295      51.733813220700164
   305   1      22.114037205324561      33.598526919445803    0.081728909937737293
   306   1      23.782585278587128      34.312955395332523      2.9477917443652064
   307   1      25.693399308231914      36.956441920538502      2.9079814933484367
   308   1      22.533930636238711      39.000780295320951      51.879565244246066
   309   1      24.135820415113347      40.354648989402975      2.2924389484682939
   310   1      24.494038214967681      41.282368859491996      5.0203779084555942
   311   1      22.536117929722217      42.576839808962596      2.3773487088849703
   312   1       22.70325328475548      44.641198778494591     0.23025540616265333
   313   1      23.759452337058331      47.414010769985772       51.85191828638871
   314   1      23.940409797124374      45.399940222296145      2.6541094431356771
   315   1      22.607385786668381      48.074732953561046      2.5973655882359399
   316   1      22.215615096530655      49.898884649324167      52.102151193219122
   317   1      24.016725212960484      52.692019134700445      51.912820166646554
   318   1      23.862010049772312      51.027966669847252      2.7483618323137469
   319   1      22.314411545345802      53.745977378780779      2.3751402768928416
   320   1       27.53129226875534        2.78406488755176      51.916869515787184
   321   1      31.015657242744151      2.8167698442188849    0.037468998475983617
   322   1      28.038367319393714      54.149846486685597      2.2878902390942497
   323   1       25.83417522451516      2.8427405400023789       2.149277962987834
   324   1       25.82428901236608      5.5897766989362889       51.91579590823833
   325   1      27.332613223768639      8.1864399255551028      52.032571940683489
   326   1      27.712594168185369      6.2197012513550396      2.5418763428849158
   327   1      26.137096751561497      9.2684493804802646       2.526210365562346
   328   1      25.744154836070241       11.22618425287587    0.038896949058516109
   329   1      27.257845394295384      13.818493691135957      51.852438811518518
   330   1      27.891968151694591      12.078445069162282      2.6907113050497058
   331   1       25.95127053060494       14.64873298897399      2.1428952518577717
   332   1      25.541129029803677      16.698736269178589      52.029140204420628
   333   1      27.074628794173311       19.34041788338477      51.868477625134183
   334   1      27.019750487257028      17.758929466865482      2.5164226169372554
   335   1      25.553507869115094      20.597619235664887      2.6772951012791859
   336   1      26.406013922265739      22.420547942648952     0.16402553626495012
   337   1      26.121399572298319      27.712167676528342      51.927151785664051
   338   1      27.346404629494053      23.315436334949506       2.433748404763826
   339   1      25.539193783091864      26.373328706004244      2.3198456611351919
   340   1      24.305806611919689      29.086590073985782      2.2891999704166515
   341   1      27.287072125153657      30.514692592727446     0.17391592082207097
   342   1      27.644597616813019      28.747443941316675        2.64349650016934
   343   1      23.802611732865678      30.307543913224389      5.1173489924739251
   344   1      25.725960878216377      33.372628537920257       52.02968020731484
   345   1      24.165924398119738      36.337454680930399    0.079636343598776471
   346   1      27.144158645702063      33.892583649535332      2.7842704197610653
   347   1      27.396378997236926      35.875534054567034    0.070327999025674284
   348   1      25.664953504637115      39.000220081780512      52.070130281508916
   349   1      25.890582669415799      42.549491949201894      49.323984660654531
   350   1      27.161318267095307      41.558359418899812      51.937222256084581
   351   1       26.00433733143899      42.957703094236955      2.5091723571610309
   352   1      25.731096919145418      44.781100105069612      51.876136710738926
   353   1      27.102897257431209      47.508481600347281      51.737521524861236
   354   1      27.110268713902414      45.832544263813759      2.1290371973802364
   355   1      25.352902077761421      48.132982470396321      2.4265385863475339
   356   1      25.608851198846722      50.301037664630904     0.13205463950568189
   357   1      26.902901168102545      53.308771231083888      0.0164104757366621
   358   1      27.315266315238297      50.628142704316332      2.7031251685766424
   359   1        24.9780731391618      53.869954402529217      2.5908484218810934