dump/Mg_900_20/steps_21 (written by ASE) 

3980 	 atoms 
1  atom types
0.0      32.100000000000001  xlo xhi
0.0      55.598830921999998  ylo yhi
0.0      52.130399999999995  zlo zhi


Atoms 

     1   1      30.718488950966648      1.2745539784240498      2.4255874512108537
     2   1      3.4252075189359359     0.15151526097610302      52.098863188505668
     3   1      1.6410174121004173      1.0686063555458922      2.7420277069731185
     4   1     0.16621380014964901      3.9074665887920403      2.8289839572957587
     5   1     0.23910272339153418      5.7286768810663977     0.20471451884126821
     6   1      1.6716658022182662      8.2230608312193816      51.725924816136917
     7   1       1.157142781717746      7.1111098861350213      2.4342098533958758
     8   1     0.24744352071470624      9.8564929666698262      2.1344366531726386
     9   1     0.46276283760005732      11.369430354481414      52.029182201020298
    10   1      1.6761548902727843      14.179812211517905      51.915149743188756
    11   1      1.8261007410775971      12.468887036321116      2.3208245865661996
    12   1    0.012014463916092276      15.007603092364853      1.8329151821965906
    13   1      31.978079252312646      17.211891201347534      51.976952070318099
    14   1      1.3217444684063968      19.848178268837628      51.743863393831312
    15   1      1.7037215861467092      17.703152058427456      2.3730579218761805
    16   1      0.4831931372260343      20.682664348978477      2.3444471658212342
    17   1    0.066553261558026516      22.590652245422518      51.947503075514781
    18   1      1.2494508042800834      25.449666237828023    0.084685064808608657
    19   1      1.7340993831439877      23.892569676082719      2.7695749865620978
    20   1     0.13694309435485538      26.683421847214767      2.4378409662805338
    21   1      31.965171926286796       27.96248966027154      51.660457903944739
    22   1      1.4527971070527024      30.566133933469853      51.956050422333696
    23   1      1.7406975672522236      29.157673317222333      2.7180519668039813
    24   1      0.1062116604920129      31.555416868629838      2.6270960909755274
    25   1      31.815398241082473      32.996963331915325       52.09555169819896
    26   1     0.83165841143778085      35.957982212250826       51.76686580022173
    27   1      1.7290071597477816        34.0813527138124      2.4631085653948124
    28   1     0.17804430757860479      37.297593955850409      2.6679059450928624
    29   1      31.760922909958037      39.129298662298119      52.037947109981829
    30   1      1.5734686370701898      41.765583727037935     0.15704656445291593
    31   1       1.890855541562021      39.763552447715931      2.8170323735922307
    32   1      31.831131081429941      42.244266127270706        2.70135990270493
    33   1      32.028260426851666      44.220122973892359       52.03433779372422
    34   1      1.6055409717237421       47.10200207064775      52.124728547858865
    35   1      1.5064887704215864      45.392338642880176      2.9007904657868431
    36   1      32.098429190932286      48.272465213975309      2.3354879601689835
    37   1     0.13667693284861065        50.0197505963692      52.000398170566598
    38   1      1.7341153259096995      52.899188103883446      52.085318191703294
    39   1       1.598189049268119       50.98419902164153      2.6977277016541281
    40   1     0.32431135485949486      53.759269023302863      2.7124079370108847
    41   1      1.8494095059533593      2.5844380846275192     0.34891801230872455
    42   1       4.985541912212164       3.051077782422587      51.931082439373689
    43   1      4.9200489206407143      1.1928120200649599      2.9813130690678307
    44   1      2.9236866938383406      5.6974400197199913      5.4961917110981231
    45   1      3.1884974059268578      5.7122811252273964      52.024470562749634
    46   1      4.9248284939455003      8.4738573226548422      51.728726410048289
    47   1      4.5549535919551722      6.5981880562429067      2.8265882022040043
    48   1      3.2893087720302803       9.239535363580627      2.5687285234861874
    49   1      3.2628041317394954      11.229902410523311      51.919649933817347
    50   1      4.7298061012098822      13.947472727784502    0.010462065748734855
    51   1      5.0661081405781054      12.490061164876215      2.1713583136443462
    52   1      3.4453289456838125      14.929788280100944       2.221681128824232
    53   1         3.1501018359096      17.196145520853143      51.729995567857806
    54   1      4.8424072729347172      19.804485151094276      51.700302363112279
    55   1      4.7758166381061571      17.689727765795716      2.5151257767349651
    56   1      3.3188635292465389      20.322638436059318      2.3036896595722389
    57   1      3.0345595557285305      22.777350596653982      52.081983091212642
    58   1      4.6591756829280699      25.368093346418831      52.121962173130477
    59   1      5.0472620574652467      23.417307743880794      2.8015901059503299
    60   1      3.0436728038735623      26.465707141819447      2.7603848055989118
    61   1       2.805390112886883      27.879207628503437     0.41905974158249526
    62   1      4.5702256398401113      30.655336892275919    0.078902374442171005
    63   1      5.0178531928849708      28.588788369888867      2.7577744854307924
    64   1      3.5626206949447496      31.267273724935201      2.8498753289407484
    65   1      2.9115880105034702      33.230761906797312      51.999802984911625
    66   1      4.5300907161686066        36.0310151243063     0.13067606505230009
    67   1       4.994387870582166      33.965644791674471      2.9258361284413161
    68   1       3.383830274823004      36.669480908644765      3.0238086771991379
    69   1      2.6439302226152397       38.56196349307362      51.983881228171889
    70   1      4.9787689257202965       41.69277335959152     0.26689879928589133
    71   1      4.7623118761380727      39.557859058403707      2.4508284288097504
    72   1      3.1028592152616676      42.662211193782589      2.5204156380072806
    73   1      3.3993775468030463       44.31267526326419   0.0083808868480770762
    74   1      4.6103463838478733      47.134138032848618     0.31831087247857115
    75   1      4.5192133965030665      45.316203815562602      2.7794297335343305
    76   1      2.9396355683023727      48.027935335211943      2.7857562134245839
    77   1      3.2018993661082074       49.96183776899182     0.50471177857107707
    78   1      4.8419330400677127      52.880584906884515     0.32860711503952422
    79   1      4.7497774907432788      50.931103960136817      2.7047625241272657
    80   1      3.3425359576430935      53.959518736280351      2.7699145276464701
    81   1       6.562207153209326     0.17611581016427916    0.041356686866265951
    82   1      8.2749894324595861      3.0445931789320779     0.31110634244459523
    83   1      7.9693275950916149     0.97378485320452013      2.4598417109480626
    84   1      3.2456540130901748      3.8014488251585012      3.0123667410088353
    85   1      6.6026220940507958       5.861984161626479     0.16877281134412678
    86   1      8.1542717371489815      8.6145863773443327    0.048622813466644488
    87   1      7.9899255765929071      6.9755484238899612      2.7462973929855026
    88   1       6.476072648358608      9.4738943013458936       2.753014057272495
    89   1        6.46859600448935       11.05510405500902    0.019216172408182398
    90   1      7.8571984437803497      14.061576489165821     0.25719994817894909
    91   1      7.8697894297409592      12.093845496552316      2.6923004008713582
    92   1      6.4972391712704187      15.089373628713822      2.5557783416751589
    93   1      6.1836402890325601      16.725901240883154      51.978750694661379
    94   1      7.8283578647366143      19.582347340452074     0.19230462083950928
    95   1      7.8787505868990095      17.537952370349693       2.431727641542702
    96   1      6.4033141215357121      20.670380249437205      2.5685769085269161
    97   1      6.8210211199751773      22.564223214442904       51.79914758204572
    98   1      8.0932464485506301      25.161569408114492    0.065400000002115419
    99   1      8.2964276702211208      22.986572458312033      2.9721303852789083
   100   1      6.5319123023917305      26.069872630631711      2.4035423384296455
   101   1      6.6005476240060164      28.019760279278671     0.15064350180858363
   102   1      8.0883728760173632       30.64925073597643       52.11349595621261
   103   1      8.3755028981634343      28.705697970882948      2.7638376563766291
   104   1      6.4248853651931546      30.983346163757496      2.4070365955562161
   105   1      5.9920201863018221      33.292056737892331      52.111298801066575
   106   1      11.300486069106652      34.437078132980041      49.532889553680086
   107   1       7.686734704174385      33.632138820169146      2.3121366057189952
   108   1      6.3303234450485935      36.733096953405905      2.8092548849305046
   109   1      5.8034859152955587      38.572127000461428       51.98157390268311
   110   1      7.7649969289536243      41.061957282318403     0.20868414809369559
   111   1      8.2716581797406246       34.40582281610159       49.57576619870575
   112   1      6.0074377758978033      42.387725509576676      2.6559207609045106
   113   1      6.3920696303666711      44.281408243208411    0.057131873898660805
   114   1      7.6738094820787204      46.985437200206519     0.29023848473949876
   115   1       7.298655163036738      45.322926976145794      2.5513282029465159
   116   1      6.2564474404328649      48.031299617229891      2.7522502371457089
   117   1      6.5193884251032541      49.701804954608335     0.21166916119775572
   118   1       8.017147140022395      52.816362185037747     0.33229707609306874
   119   1      7.8304379963097928      50.729849457761659      2.6351583001110068
   120   1      6.4579321256519977      53.765025478823389      2.7808003753549735
   121   1      9.7596686811190061     0.13848689038523662    0.041777419514361661
   122   1      9.7238137022804683      4.2856248987620589      2.4534521074886642
   123   1      10.969154743362125      1.0199761537644163      2.8032084924411156
   124   1      10.865092813258606      2.9943162038615276      5.1747467242686573
   125   1      9.5303900013954674       6.092055667441211   0.0067714775723995493
   126   1      12.565272767215502      5.7952206374841655       51.85716147022351
   127   1      10.957996330976314      6.8534909929657157        2.66079198688394
   128   1      9.7582511472460478      9.4825186891986117      2.5946189798530117
   129   1      9.5223166624544824      11.451978292762961    0.021754578009871961
   130   1       11.27794829105861      13.895345682863052      51.978982662661899
   131   1       11.23278426215264      12.041309340796715      2.6443134041518741
   132   1      9.7148450037896161      14.974548540184802      2.4772951330519861
   133   1       9.298843851699317      16.816439705538873      51.970293431394687
   134   1      11.167999320127114      19.726667404973799       51.82234949301192
   135   1      11.017446794843417      17.768176412402713      2.3944640126712793
   136   1      9.4586712495864997      20.322336601769457      2.5252929529557253
   137   1      9.6082525736319759      22.438005941609315    0.069618406440611055
   138   1      11.388575866370743      24.823688588292072      51.563635976210065
   139   1      11.176017666309976      23.216601063451737      2.4084747292684994
   140   1       9.504208335222037       26.09413531275505      2.7126678274201614
   141   1      9.7917295111060536      27.924632072643384      52.004909550008463
   142   1       11.01064277104895       30.60196978780364    0.016965496735943018
   143   1      11.489122192197092      28.603018222997509      2.4950775607717786
   144   1      10.171167352914406      31.423036503588726       2.673823211342512
   145   1      9.5913365246890923      33.537126208121371      52.046261341104973
   146   1      12.969166454137326      38.412934508217802    0.051759432231234567
   147   1      10.592839441586605      34.549442563556049      2.6511239536029678
   148   1      10.766728796662481      40.106997910157297      49.188407752182037
   149   1      6.1769010900353853       37.13202802472609      49.718819857708652
   150   1      12.628031857920082      42.706506851169301      2.8479317143931215
   151   1      9.2345393529967126      42.683776127146892      2.7880584296873985
   152   1      9.1456486619073605      43.838331955673404    0.044740544091479997
   153   1      10.695594549535436      46.752591663016766    0.010706573028441916
   154   1      10.915725302970396      45.141434598856122      2.8685914215535071
   155   1      9.1423699216164351      47.892317860278112      2.4399687262828036
   156   1      9.4885081710517181      49.906740046539134     0.17977380058925421
   157   1      11.509335239430248      52.660494275985265     0.21577517999104837
   158   1      10.565582324071681      51.206852915515277      2.6579416044421076
   159   1      9.5463498310802457      53.898496601324787      2.3851547738247283
   160   1      12.694421858309225      55.440744467998009      51.811471647534482
   161   1      14.383508630320819      2.9880745593073121      51.884978892229768
   162   1      13.696679754153461      1.0535791825921361       2.059157029148194
   163   1      12.993900887372806       3.772266242905816      2.7403354979018086
   164   1      11.325942738835929      3.0501029900278498      52.103385471634944
   165   1      14.259823414883231      6.8609070236120813      49.564843425071381
   166   1      14.596058163976871      6.5748396032205543      2.5027372857050443
   167   1      12.581439483080674      9.2329395516957238      2.7639022442812919
   168   1      12.631863503196676      10.866764629321045     0.42408535721477114
   169   1      14.482305733146495      13.959612284959295     0.20788552071995553
   170   1      14.459626415185211      11.860140789904364      2.6062716753681041
   171   1      12.666053376450407      14.889832934124566      2.4465820452545946
   172   1      12.742457634249815      17.010188720301599      52.095834773933326
   173   1       14.57607402773616      19.383580663293451     0.18690604702891267
   174   1      14.132687065249208      17.904457958590772      2.8238891418021881
   175   1      12.856755143547497      20.766736806036661      2.6781262927636362
   176   1       13.12322702068828       22.39487085830411    0.054880249553258584
   177   1      14.803359832460158      25.415390511308349      52.027973800205714
   178   1      14.546452180926593      22.939793559656191      2.2192153581836567
   179   1      13.032962240368532      25.642726178017909      2.4177547304054872
   180   1      13.384038986787116       27.85643910500168     0.14798428069538894
   181   1      14.412457571355512        30.8245109667956    0.076098144619013749
   182   1        14.4271328667754      28.863901376345183      2.7050142774144539
   183   1      13.184846066440208      31.384786879608512      2.5398309014372806
   184   1       12.73279749936026       33.30690705299336      0.1614889136984767
   185   1      16.085567021772295      37.000828911098139      49.846044214353512
   186   1      14.285772988774752      33.957887746278516      2.3850902790497215
   187   1      14.852624714208247       36.06118783236257      4.8726427695114705
   188   1       13.09958481683357      36.701232677865924      2.4890330887600025
   189   1      15.723192813132146      42.381691200914197      2.3719639150807152
   190   1      12.520787971563916      38.845097304855081       5.439470677959851
   191   1      10.760434669811788      40.933084557980358    0.043093464196448328
   192   1      12.205950013143582      43.868484751505868      51.995995555072795
   193   1      14.034695416612111      47.438695050064624     0.12682394564127422
   194   1      13.834034299880534      45.478881182463645      2.6544263114043916
   195   1      12.434187303308903      48.076476319290663      2.4628486697761081
   196   1      12.710948020038456      49.874749343344313      52.099676154862209
   197   1      14.528522091131924      52.928284417548483      52.039871317302719
   198   1      13.969276400762949      50.811722375114577      2.5966249595800615
   199   1      12.380270557970666       53.74418240644097      2.8051632522686085
   200   1      15.971236102869847      55.588182466703266    0.009600568408431643
   201   1      17.574285832606773      2.8214657809220576    0.056508220545805517
   202   1      17.561813772735398      1.0372541285975732      2.6789626194767409
   203   1       15.86402410211441      3.7778820269895688      2.1584546966132447
   204   1      16.144935811333923      5.7660649424494475      51.624457334312815
   205   1      17.757964305836129      8.4212009493708919      51.728538218808303
   206   1      17.384547112795474       6.858660702422597      2.6461732415877379
   207   1      14.700209427592556      8.7467703041032632     0.61869715477207998
   208   1      15.708646399246987      11.340661061717071      51.633466539711463
   209   1      17.820770824595662      13.875756000057768    0.048725728390559192
   210   1      17.775589987368086       11.64501164864288      2.0671747076583364
   211   1      16.044654147230528      14.730350490520889      2.6302780198773803
   212   1      16.189610428101791      16.516287062707473     0.14306379526853633
   213   1      17.921323845547793      19.326939545828587      52.089708183473604
   214   1       17.27305219810891      17.515586800145083      2.6953687078489401
   215   1      16.191332575666518      20.463000915629856      2.5099409554602019
   216   1      16.198967786829968      22.259719447000272      51.964886849227952
   217   1      16.386673079734795      26.149543787604902      49.525643900603662
   218   1      17.824105025294045      24.839025394807393      4.9926037610096463
   219   1      16.190633386068463      26.174785244249122      2.5690537810809104
   220   1      16.260856590326714       28.24274024376307     0.10268983348644391
   221   1      17.837858144463208      30.872947687759879      51.818920824800458
   222   1      18.019959455908271      28.818858738019134      2.5722984625090062
   223   1      16.526120274070614      31.471496543995862      2.3146205199945791
   224   1      16.368843147438842      33.228220106065727     0.10432253371000674
   225   1      14.525425203873439      36.174945884779433    0.081464717061686578
   226   1      17.970376504838818        34.1937892899983      2.5084037794210325
   227   1      16.148246466153974      36.837891101408523      2.5108877614191925
   228   1      14.297108498874262      39.533999206542006      2.7302072457340492
   229   1      17.262030574441368      42.120095166844926     0.14273465972512123
   230   1       17.85417610807524      40.020461782221879      2.8889342156286806
   231   1      15.793743614840531      44.334664392973849      4.7720877636399939
   232   1      15.288576544781325      44.708612431215855     0.27670303156946002
   233   1      17.523864275486464       47.44251460901507      0.1245840190478268
   234   1      17.707127956898823      45.480200842940441      2.2581878395406871
   235   1      15.927209451969699      48.062228257631062      2.7128866541709216
   236   1      15.768497861233296      50.063813836912693      51.934721327565136
   237   1      17.377751289997136      52.686891821963073      52.070651405971951
   238   1      17.329849543437486       50.84956200631806      2.5444033834624808
   239   1      15.493627630570831      54.024867657267571      2.5741097464787761
   240   1      19.192658812143119     0.13457440323831371     0.15467530471835067
   241   1      20.710647756043805      3.0035839583243407    0.025596743476388305
   242   1      20.766591070252254     0.83203626992578972       2.623484231126811
   243   1      19.095419585011914      3.8492843913788026      2.5221117178798762
   244   1      19.211558251139479      5.6527875415644493    0.067669552718729001
   245   1      20.865424490453545      8.4653086045353501      51.858479922690023
   246   1         20.896936958243      6.3986591287158241      2.6936093729565322
   247   1      19.390191525979063      9.3450012754636873      2.6656677472356654
   248   1      19.367628679406273      10.884359978721836      52.023363709869834
   249   1      21.080400560884559      13.458280943406031      0.1134577395517464
   250   1      20.614122199891472      11.703889189179195      2.4882157024637657
   251   1      19.303561916062858      14.320898339962138      2.5256100676796205
   252   1      19.255458189286575      16.279298874135012      51.993961284412833
   253   1      21.172758849924197      19.173649835046604      51.870014202619451
   254   1      20.958353322789751      17.172095769659375      2.5026330026096599
   255   1      19.543500163769945      20.280676091694591       2.400363067883386
   256   1      19.535113976771406      22.012606274623845      51.998337463776416
   257   1      20.727170025565151      25.020804277819874     0.29138147789333735
   258   1      20.681753942825956      23.255625401496708      2.4810414211952816
   259   1      19.316456238531188      27.618782227960907      52.095880211126733
   260   1      19.259836772752511      25.857221334392463      2.5359501624607685
   261   1      19.271129583329632      33.265128045206332      51.699045157433694
   262   1      21.191789307184688      30.365938307766438    0.058692442099175221
   263   1      19.482092062568423      31.615871858336025      2.6805762626254186
   264   1      17.675938076884961      35.930575811648836      51.932869604143796
   265   1      20.966163197256538      36.281294464393127       51.96165766364927
   266   1       20.70906308348269       34.33809404829092      1.9413083403105875
   267   1       19.00546809398503      37.251117014633621       2.380450571187132
   268   1      19.118634828833205      38.835029244714228      51.947265536527858
   269   1      20.214258257987581       41.79967274092261      51.759271776499638
   270   1      20.793815769456582      39.897406469368555      2.1790798251548225
   271   1      19.436451289048097      42.928355678218658      2.2491599194226488
   272   1      18.837102611885346      44.855266929535688      51.685133862915315
   273   1      20.644991162936133      47.402927772661755     0.15440233803198594
   274   1      20.823121972753661      45.565551370935466       2.611258576972121
   275   1      19.473681599303841       48.20066635085557      2.5139101062748859
   276   1      19.169701274954143      50.173827684777677    0.030443243538428227
   277   1       20.73922645797364       51.30923376045174      49.682909427516215
   278   1      20.513875279703779      50.954463974072937      2.4102305293233464
   279   1      18.566987992357369      54.116919782620926      2.5447399345716972
   280   1      22.667970300949499     0.44814020471718369    0.078143728013220351
   281   1      24.200500027569557      2.8849061493436614     0.12966796817044707
   282   1      23.910020504956194     0.64569831303452507      2.7486910513739686
   283   1      22.479273103751602      3.5074338957382198      2.6336224756312094
   284   1      22.293805833183555      5.6178545956609289      52.003593119884925
   285   1      23.787091335399474      8.4481819505032387     0.24102133933009406
   286   1      24.087734656943141      6.2271601346757928      2.7196382515490241
   287   1      22.467418196062784      9.0859437055045458      2.6275106440437295
   288   1      22.570109692914226      11.046159675653486    0.027718594676470615
   289   1      24.273848564885085      13.787389648537056    0.031116871938819506
   290   1       24.12516383578479      11.805930621734428      2.4345138457638273
   291   1      22.493927982681647      14.467124735774501      2.7904751361481983
   292   1      22.260485523067015      16.254480748258199      52.030580633455308
   293   1      24.277026976708989      19.208542282023167      51.895557658076704
   294   1       23.71846125494524      17.636460068421872      2.2234090242677103
   295   1       22.18007154308804      20.477724115828288      2.3375752620392207
   296   1      22.838970806560962      22.178405469668149      51.924820581329399
   297   1        23.7632982601442      25.118750813730315     0.13192442169204119
   298   1      23.857091098070065      23.254089747914065      2.5399160227120987
   299   1      21.053361466001039      24.864393584814678      5.1775341233869874
   300   1      22.707826811160423      27.631427040293371     0.33642305171674991
   301   1      22.332527910317168      31.463423509253996      2.5247212362582081
   302   1      22.676021098363726      25.567608047894005      2.7827886970262443
   303   1      20.990925664870684      28.334069517782929      2.3395847823762823
   304   1      24.136476733585702      30.339315905573223     0.10697890095697306
   305   1      22.268546039591325      33.238366018309968      51.842167342393964
   306   1      24.239974034879136      33.638976380906783      2.6538742917592231
   307   1      25.747409493010622      36.872579048521999      2.5440511644593529
   308   1      22.341926184011268      38.967656407233278     0.14872550490337874
   309   1      23.560166126368671      41.619625721661571      52.072827657842815
   310   1      24.243828833024885      39.956668349180724      2.5263707261275239
   311   1      22.302325383177614      42.364695751618164      2.3289916993532485
   312   1      22.148609715574885      44.312046563971172      52.073601218591257
   313   1      23.947230087060525      46.923874621974207     0.30251192073658356
   314   1      23.805191996476871      44.985753254884578      2.7388124482456244
   315   1      22.641547742640064      47.987227408037434      2.8358036510844729
   316   1      22.291942030269418      49.761051087191611      0.2177106160730464
   317   1      23.625913291073459      52.690875083947667    0.062655831214322263
   318   1      23.574381885460639      51.176033176206651      2.7110885492444425
   319   1      21.876121876278912      53.751176173027424      2.8144729334958405
   320   1      27.817351844873556      2.6454132479992034      51.953906210572548
   321   1      30.936552152315389      2.8889363222888504     0.17074059626118129
   322   1      27.399632565277656      1.2769020685058292       2.777710929676334
   323   1      26.355692828145642      3.9973004029032344      2.6808870066503507
   324   1      25.952095844203143       5.430858581739737       52.04143909466837
   325   1      27.011112013746544      8.0604323027731954      52.018626463602189
   326   1      27.153866637368257      6.3560138262043715      2.5498137619635211
   327   1      25.244707559119295      9.1012855954286493      2.4744982761413197
   328   1      25.793419448262952      11.277025472662842      52.004748488244658
   329   1      27.220853801890733      14.057389583648682      51.927693060079726
   330   1      27.484215533722786      11.831192660183227      2.4341326868657154
   331   1       25.45475216146205      14.818580328703622      2.5996212717399296
   332   1      25.738454464949942      16.588444888051225      51.843994785745629
   333   1      27.459054727998822      19.655665094183032      52.089259530248029
   334   1      27.412467641841232      17.553546464946322      2.2714116898826928
   335   1      25.715655438906307      20.765786724519945      2.4827732903188542
   336   1      25.918771080765964      22.372225241728223       51.88188145182307
   337   1      25.589255607786722      27.659963926587007      51.953615756802208
   338   1      27.440986505909244      23.406303350310935      2.3847824897133272
   339   1      25.574225879950813      25.837112552062528      2.7050097408078533
   340   1       23.95986650473699      28.401804025050307      2.8830119801646137
   341   1       27.16495611102907      30.665125661785943       51.50365788956109
   342   1      26.937293622704352      28.621444092662152       2.221248408800081
   343   1      25.317121518241578      30.931173182677739      2.8854282304418231
   344   1      25.424068071044044      33.037992921972183      51.725974985299381
   345   1      23.989332258736219      35.963730238556856      51.669312474349539
   346   1      26.904714626074789      33.947920251621277      2.5075662761474296
   347   1       26.78625416980212      36.040915901116243      51.773704601490529
   348   1      25.400269028722406      39.066827517863253      52.128194898107161
   349   1      27.055102952548168      41.929671109196164      52.021279557546848
   350   1      27.224503025241752      39.729959011386519      2.7886830867887555
   351   1      25.468490964317667      42.495265151740256       2.597127112188891
   352   1      25.222331041135064      44.506245359088638      51.948154089206277
   353   1      27.117319584126502      47.507131850007873      52.121520825755631
   354   1       26.82531453279551      45.772142362319926       2.429418264223437
   355   1      25.510292014931476      48.436708169378463      2.6080833519593281
   356   1      25.404511481684686      50.053172401788572     0.13406438493274586
   357   1      27.058037469279238      52.865181011664681     0.23230233521932689
   358   1      27.364413792032753       50.95208982627797      2.5267550835320414
   359   1       25.50095994958259      53.679103362182012      2.5663018916942093