dump/Mg_900_20/steps_41 (written by ASE) 

3980 	 atoms 
1  atom types
0.0      32.100000000000001  xlo xhi
0.0      55.598830921999998  ylo yhi
0.0      52.130399999999995  zlo zhi


Atoms 

     1   1      30.342348451934193     0.54197454954759028      2.3512794652663938
     2   1      3.2933723050027375     0.17063666019107426      51.878824949847065
     3   1      1.2733566194988961     0.66173307498124267      2.2678491839800912
     4   1     0.10079116737380241       3.388069154341486       2.532638154775984
     5   1     0.10883927695601078      5.7015245104103034      51.984061421800547
     6   1      1.2485212063294751      8.1307677417094979     0.29626535586883113
     7   1      1.7971636512696825      6.2849885789071367      2.5754863344921533
     8   1      31.912381962628764      9.1282294863709996      2.4925633455178837
     9   1      32.062140235189844      10.855253420941505      52.042242065437591
    10   1      1.2364167497487653      13.715749814223283   0.0027875632538670249
    11   1      1.7458443289715908      11.850250796005753      2.9199027474247616
    12   1      31.911140800435497       14.41805615378118      2.5612859666191414
    13   1     0.35925194828600931      16.501304539346219     0.29599986724363608
    14   1      1.3635885035384074      19.263060097552344       52.05117094466592
    15   1      1.8583911089493095      17.618104530009905      2.4473269075286312
    16   1    0.052658822772129125      19.974892461940531      2.5791076415246939
    17   1     0.18501818366132047       21.94361601187688       52.12934551069683
    18   1      1.3258431573788394      24.937815525664433     0.15167415437394932
    19   1      1.4338519781710266      22.872809515822311      2.4938294607986466
    20   1      32.066072223945028      25.921865610997937      2.9025757151168925
    21   1    0.057935934669628084      27.723819030872985     0.16649069008898829
    22   1      1.2617768814933721      30.881028498797139     0.12708263982579962
    23   1       1.342352641279857      28.880082015578783      2.6680902402696893
    24   1      32.044943387538183      31.543688905494044      2.5197678226829088
    25   1     0.10228168757982371      33.818470767121667      51.909383815674182
    26   1      2.2251599273035945      36.126597930651364     0.26718563438479737
    27   1      1.5469358965482487      34.203166707286314      2.7557220400333553
    28   1     0.12312082466716243      36.973717694336081      2.7001928015229479
    29   1      1.8597303060384944      39.854483061993378      49.732806413513735
    30   1      1.6438907436707639      41.621723520627626     0.25700357017320596
    31   1     0.32046276082713204      38.709709895507416      52.015849544053232
    32   1     0.21072039926573616      42.773894817426488      2.4847020858842868
    33   1      31.610387400415714       44.00826685379279      51.866354674092662
    34   1      1.6296300793871239      47.612650012381344      51.635896859903596
    35   1      3.0987426383446715      44.872153377616819       51.93541857571195
    36   1      31.917621989400896      48.511680467352761      2.5418678982702114
    37   1     0.23343588122058392      50.164629609280553       51.62195665011798
    38   1      1.6260740187027833      53.157663145546557      52.039953202686526
    39   1       1.812003423937826      50.700536047059728      2.4087858927265451
    40   1      32.061931847014634      53.250267840661692      2.4885482618702768
    41   1      1.6544544322966324      2.4906623389419433     0.12646913791348327
    42   1      4.9514776500245601      2.1677683507315519     0.19466648150190266
    43   1      4.7108352176494908     0.81872568970782933      2.3004135891004407
    44   1      3.0530313744369098       5.536026965763214      5.2675113320215532
    45   1       3.248195613937503      5.4605490822780878    0.095274152116668676
    46   1       4.562750567493028      8.2514683179374373      51.870652104139765
    47   1      4.8628064561146624      6.4050572132748833      2.6441920041649598
    48   1      3.3831237809355295      9.2334865963220718      2.6476264667608356
    49   1      2.8137031444233691      11.379061425877225      0.0942044434786901
    50   1       4.433940365499887      13.845088843515322      51.887598639875968
    51   1      4.7334019791035882      12.039836232734343      2.5727715836992848
    52   1      2.7238525278387358      14.555998238014123       2.622470907700166
    53   1      3.3083308503561444      16.465666348307931     0.20266394601721943
    54   1      5.3187820542693025      19.439201782731843      52.004468319048648
    55   1       4.812008681703638      17.394448937624116      2.7808234227990996
    56   1      3.4604750395259947      20.434341909811888      2.7149589254459126
    57   1      3.3844759016377823      22.003105954512275      51.887720473857499
    58   1      4.9789061437660429      25.304021756177338     0.23277753295673345
    59   1      5.2610960072823572      22.851911083505843      2.8381035544319508
    60   1      2.9335702481092669      25.312553695826637      2.6916687082435957
    61   1      3.3500856730649775      28.302068866244536    0.076600523823188216
    62   1      4.6104959572667914      30.831044077768347    0.017444840538724197
    63   1      4.8569985280603998      28.896558132603598      2.7928298519632233
    64   1      3.2803485612465852      31.579879053544012      2.5896412011325434
    65   1      3.4025234050970643      33.360726746776777      51.858847327732661
    66   1      8.2423509985680514       35.72495419042081      52.113064479416607
    67   1       4.598393367400317      34.237785992402813      2.7387424330523937
    68   1      3.3841014601231674      37.147602243507094      2.7157977639216351
    69   1      3.6875297264387332      39.037229472127251    0.053894507569658918
    70   1      4.7175557036028746      41.907214554274688      51.886049672398094
    71   1      8.9899016324872765      45.681746867781143      2.6715681756567946
    72   1      1.7955303658637625       40.03192554341112      2.7875223547055681
    73   1       6.487773008560592      44.833386495819489     0.20530121582955646
    74   1      4.8272690924398471      48.137833143994158      51.953685300263572
    75   1      3.6187507800645413      42.568495057390365      2.5721000814985753
    76   1      3.2697869309694672      48.122761521857015      2.4129314711765049
    77   1      3.1765288421824449      50.213177854429105      51.977431041836361
    78   1      4.7789495920337739      53.075303416292961      51.963427625109986
    79   1      4.9461604171423561      50.945841322868887      2.4470482894534258
    80   1      3.2833484878274262      53.675453376456723      2.4042838371609072
    81   1      6.7125861330030743      55.546496606269436    0.038671316737040898
    82   1      7.9548044013549548      3.0512875208271941     0.19105040767558992
    83   1      7.8451141270069193      1.1326426159610374       2.393317483654589
    84   1      3.1189465833643579      3.2366947684727321       2.546476436928188
    85   1      6.3071454429242868      5.7378182657733801     0.21421099827222009
    86   1       8.093524639411962      8.4004186842292405     0.14646896763976916
    87   1      7.7877447996557176      6.5495069879854046      2.6556993601446823
    88   1      6.2264602277366503      8.9632222179652494      2.8935386590532177
    89   1      5.9400235433759629      11.163157977544548      52.126698185901361
    90   1      7.6531678305475408      13.806708198350394     0.22062352836914631
    91   1      7.8611747208433504      11.861537166380353      2.6580755849628628
    92   1      6.1638075860532675      14.734082594806805      2.5700456053602427
    93   1      6.5196812600370082      16.773850288951465     0.36282176264054822
    94   1      8.3021194833187089      19.807280370443909     0.17727221035381122
    95   1      7.9540581661061394      17.118524850163389      2.9636062056202341
    96   1      6.4503439343165416        20.1254913469561      2.7634554072736424
    97   1      6.5326599310891291      22.147582522367525    0.041629005592124194
    98   1      8.0217053217532257      24.792152664452001     0.14814728031934302
    99   1      7.8699483031898545      23.156002230882923      2.6606681446823668
   100   1      5.7489206592675641      25.775198337079207      2.9781660058367692
   101   1      6.3204602999870634      28.282091369336431      0.3242226802660545
   102   1      8.3054025011849788      30.606048587467669      0.2811799530983583
   103   1      7.9657243860930471      28.670764418126748      2.6190203483896339
   104   1      6.2739028395133856      31.662094269741011      2.5962368596245975
   105   1       6.537549100367924      33.537326055582149      0.1679123994852432
   106   1      11.362229187359873      33.936105304067304      49.725383805031761
   107   1      7.9900864012019444      34.275407891633172      2.7773703115025232
   108   1      6.5821311558852642       36.88426556347742      2.6497386035968011
   109   1      9.5755591785235836      38.839857419215036      5.1259732828606221
   110   1       8.786303831965407      41.579321196425852      51.723750247018287
   111   1      8.2734486901779274      34.006322636906418      49.756685970612402
   112   1      9.9529980029805767      42.501064290346676      2.2605543852991539
   113   1      6.8673792011367931      42.708587298218262      2.5200648242935468
   114   1      10.003479349083296       43.80736579346808      5.0149079148794931
   115   1      8.2617949818438454      47.591645532332777      52.019547055806591
   116   1      6.9089345574199781      48.500282993851343      2.4556253042902152
   117   1       6.686241229939859      50.487394326816471     0.19770588078931664
   118   1      8.1229000994856388      53.162779235927736      51.803223831545438
   119   1      8.5089828812363866       51.44325129375563      2.3069735635376065
   120   1      6.2267299094107962      53.447609326638407      2.2861164780070311
   121   1      9.7081396923486096     0.50373133251268687    0.033410245797542495
   122   1      9.2260554148681955      3.9077721223055524      2.6238447346213754
   123   1      11.147824326337181      1.1993615945648706      2.5845838315476217
   124   1      11.221060171360602      2.7317793728471012      5.2259911750173789
   125   1      9.4471889177125519      5.7147705662252539      51.986510817016089
   126   1      11.272590032671763      3.0632217789552918      51.922609056945561
   127   1      10.934210845345627      6.4688681190183539      2.8397577463176118
   128   1      9.6487364597818761      9.5772941091740336      2.6108836712141126
   129   1       9.164008035548715      11.516766217984996      52.103725021369101
   130   1      10.921310642125331      13.688857592878481       51.89662418981348
   131   1      11.194923697834296      11.771002487057332      2.3074153989600772
   132   1      9.7573790549979442      14.724224522396678      2.7729166521600104
   133   1      9.5960597135753076      16.810795254088312      51.957274408535859
   134   1      9.5997893457803727      20.256122285660933        49.2455172882242
   135   1      11.311542337351032      19.537789165544496      51.891693880754886
   136   1      9.2258348582065111      19.928518310743939      2.7892713479747551
   137   1      9.6415660851272857      22.368607514247582      51.862149634091708
   138   1      11.335230756071564      25.288137431989202      51.871753558963668
   139   1      11.170299378955349      22.878644103346282      2.6156430063642873
   140   1      9.4969378939228548      25.845256981003697      2.6692396914085803
   141   1      9.5436342555432443      27.942840844209211      52.102745631780351
   142   1      11.541797965662827      30.818224810032746     0.46673901424049957
   143   1       11.15146915123187      28.838336178850064      2.8831695990292672
   144   1      9.4623284293507339      31.366795713794573      2.6975637209625463
   145   1      9.7067546693811728      33.211171065840752     0.10056868384649939
   146   1      12.853100366947929      38.803647313013983      51.853638174317631
   147   1      14.679959919469537      34.463758592039277       2.700318493599259
   148   1      11.230712547325046      39.906241884157481      49.427401284369665
   149   1      9.9429704706965527      37.142735868392798      49.575785789927863
   150   1       7.866361936597829      41.449830061541718      5.2422754639538658
   151   1      13.185090592691337      42.331258574763702      2.6544573889728422
   152   1      11.477935783126746      41.404605361516509       51.64128177111558
   153   1      11.525264630407571      47.399142751711473    0.079996209107199234
   154   1      10.005831553331987      44.315877820485987   0.0050436360189516577
   155   1      11.692016625428209      45.478719001573616      2.5051518956462795
   156   1      9.8132552905282502      50.312262109428367      52.025332590485661
   157   1      11.111903265548548      53.359461431334367      52.012897343722685
   158   1       12.94296717332624       47.94578386466339      2.3643975826560419
   159   1       9.618184559842252      54.142391522339324      2.9342138679527401
   160   1      14.662634756568819      1.0276962213859291      49.673123443714083
   161   1      14.375151253001139      3.3427254839116491      51.810775428925517
   162   1      14.265632661658421      1.0601922581043839      2.3734087230197263
   163   1      12.547372785417091      4.1021920623418699      2.7000512387524425
   164   1       12.76940519306846     0.60802623871596695      51.942367793215681
   165   1      12.655135778757781      6.1444929646854343      51.535982030600131
   166   1      14.400014970611874      6.9346795835108876      2.5843535371783899
   167   1      12.725106217819192      9.3565351178399112      2.5476063928134267
   168   1      12.777318931971786      11.352831373898091      51.669633372698279
   169   1      14.763101715371414      13.853893912668269      51.898112526205786
   170   1      14.488490756936905       11.93692679463935      2.8087912037529366
   171   1      12.536291030607929      14.950441725295713      2.3545895696131174
   172   1      12.812477067428883      16.611447619593829      52.048692425447413
   173   1      14.328309911983052      19.747980344516687    0.086985046611631145
   174   1      14.384987388052194      17.680156124187263      2.5720080785147803
   175   1       12.27403419905249      20.045008272015092      2.5995583059115792
   176   1      12.818287665805618       22.47493433027163      0.1210510441237118
   177   1      14.608082237296379      25.146107762963037    0.052823464470375475
   178   1      14.163274253280653      23.285900997438894      2.3981948477221948
   179   1      12.974323275578653      25.730133127099112      2.5781346290088965
   180   1       13.02930929162491      27.983153824985791      52.117843525902089
   181   1       14.59774189795522      30.553221002826817     0.13302805477730764
   182   1      14.655670537418633      28.314517192743025      2.4434815345473688
   183   1      13.113095310094577      31.483266678841392      2.9070208272799904
   184   1      13.006840002070936      33.397053180822482     0.41976503177190339
   185   1      16.753519295351953      36.981259250208801      49.442911713288147
   186   1      13.116141123873678      36.861646453856885      2.5319408583693619
   187   1      14.708173039361851       36.03002143247847      5.3778363896968946
   188   1      6.7338536184195652      38.964716773647218    0.049133895540445172
   189   1       16.09661313814135      42.944661424269512      2.4773632451264382
   190   1      11.507878447373233      41.437006507197971      5.3568904377328401
   191   1      9.6069821621302118      36.856945240630125      2.5740359253798832
   192   1      12.723699037973489      38.622663393280071      5.2072284356191822
   193   1      15.139913689318863      47.136506994628384        51.8108247042531
   194   1      13.065261814901648       44.63691302031912    0.068163816385276452
   195   1      10.504391193723112      47.385140856215372      5.2265305586385278
   196   1      12.907234235284076       50.17899068988033      52.001919056570323
   197   1      14.367095880713817      52.748530955644902     0.19987739483271727
   198   1      11.511002620551126      51.405057893283676      2.3903187658527365
   199   1      12.403128791819896      54.177240536715658      2.6546747332884411
   200   1      15.588276422874076       55.32825554103178      52.089621141137386
   201   1      17.550055537513309      2.7577252625352275      52.067501799991362
   202   1      17.642015540501063     0.99111961902600942      2.6401137004285684
   203   1      15.950862646932816      4.3290015233052257      2.3189016908953657
   204   1      15.781077142919019      6.0790766196659929      0.2208603563934923
   205   1      17.540915106977227      8.7729986763909604      51.789323043304407
   206   1      17.663376155291189      6.8014093670112405       2.270903062552263
   207   1      14.259065323995584      8.6933204693506845      51.762226070087181
   208   1      16.013894378534602      9.4158651784866159      2.5011833145202855
   209   1      17.748370842740695      13.903242771737723      51.950258808363635
   210   1      17.645633607204807      12.041244611243949      2.8260652606192593
   211   1      15.968950563222432      14.647211370174158      2.4667295467165471
   212   1      15.828231474428671      16.677924626932924      51.965437895376638
   213   1      17.489649101284694      19.472653638868767      52.058723198084373
   214   1      17.409169450104287      17.189334435782566      2.8886984002959828
   215   1        15.5115873969761      20.468233853758672      2.9038598964720319
   216   1      15.856640136315002      22.591043834826909    0.041034038016061175
   217   1      15.835579153236937      26.014890538030613      49.692689906878087
   218   1      17.396535342979337      25.193588040950132      4.9512553681646949
   219   1      16.128638223813464      26.005826914766988      2.5093502904753722
   220   1      16.281854549958236      27.844965308930071       51.96142205509949
   221   1      17.680251936563867      30.405652491534973     0.04762460819394982
   222   1       18.10760206983457      28.875052924014657      2.4736568985875613
   223   1       16.12064629310764      31.061670028401199      2.9172313299775556
   224   1       16.14676873389293      32.747474125183516      0.2293251296031798
   225   1      14.596840252791138      35.772009718690676       51.96804306414554
   226   1      17.545214104254221      34.076285860826836      2.6285915529835751
   227   1      16.150440511050757      37.018423539902486      2.4043629368455486
   228   1      14.768515760961154      39.768597868552227      2.3556592432904333
   229   1      17.540327041962701      41.830088658783581    0.096556840268120545
   230   1      17.757365078715694      40.148873014779213      2.6604048674330918
   231   1      16.324356730028171      44.285226971743839      4.9541303297353636
   232   1      15.905300101496765      44.400144140147411      51.745296464153483
   233   1      18.172056400081761      47.330832027237719      51.976176178845066
   234   1      17.812991689549911      45.579415429064028       2.477496866042507
   235   1      16.160629703564151      48.278062683039622      2.3500506559686603
   236   1       16.00821461550581      50.169580274561127      51.832005679242499
   237   1      17.451457074426603      52.738811858906146      52.030761177185447
   238   1      17.126196517763344      50.965308511196724      2.3110183781014659
   239   1      15.991169332154559      53.754372378048821      2.5634485700321137
   240   1      19.152103903658695    0.032356550606415582      0.2316903023422669
   241   1      20.723818648147198      2.7687353755056909     0.23636797610815871
   242   1       20.81351608166301     0.97671378255491048      2.8589745140704745
   243   1      19.256898761811357      3.7395291068403655      2.3733799265766446
   244   1      19.050773580376468      5.2494242634019699      52.007140595630844
   245   1      20.919996870029731      8.1374301186286484     0.12673032241839982
   246   1      21.255076158757632      6.6564341447789861      3.0592863690662595
   247   1      19.561563152523689      9.4306933923505838      2.2183705506980198
   248   1       19.14392897817827      11.462814361539847      51.761933177355843
   249   1      21.068876753205672      14.624798191945052      51.491376536713652
   250   1      20.871166023432774       12.16946156984949      2.5053114657769218
   251   1      19.148325006568935      14.619966357068506       2.645984160765154
   252   1      19.105108367352262      16.635258545229259      0.4365028149098662
   253   1      21.110944634137986      19.667988138700579    0.071104412973604939
   254   1      20.688257070975094      17.702525337511599      2.8637312116672189
   255   1      18.486464526472361      20.114545562385281      2.7211024565685409
   256   1      18.976470265528658      22.234267041084177     0.41069959961094749
   257   1      21.217388384236951      25.291110074649048   0.0086755274672856882
   258   1      20.542780866519458      23.182838497102988      2.5478845654439302
   259   1      19.507158682542105      27.897833816090046      52.111444935549542
   260   1      19.321035822904054      26.199389266595617      2.1862274170786629
   261   1      19.231502609233438      33.469626812334695   0.0022430413874664741
   262   1      20.831998512874627      30.860867008928381  0.00048863027068637153
   263   1      19.395757354977832      31.918532648312876      2.8380975680632035
   264   1      17.837448638269855       35.89744444770232     0.13107590636720171
   265   1      20.796695233175129      36.227867836591123      0.3023026496490408
   266   1      21.048464361690524       34.75361860233977      2.8478296877568456
   267   1      19.234980560305914      37.226030988654777      2.7115565611465295
   268   1      18.981672156677881      39.221357465951144     0.23384022741570637
   269   1      20.871739471708505      41.550557145900761     0.23787038520677722
   270   1      20.634293824808175      39.765734943860735      2.7221297914803411
   271   1      19.074061634646856      42.846850542370461      2.4984008449441051
   272   1       18.80135981562357       44.37110375286619      52.043279949268154
   273   1       20.88041387709583      47.399509667461402      51.861639384172321
   274   1      20.584455564154784      45.869046896320654      2.3240569666538358
   275   1      18.964648462355473      48.336793995911421      2.3436060911433163
   276   1      19.385123910746067      50.041424685145685       51.99040498521294
   277   1      20.881162715365804      50.756900529322948      49.408638616128442
   278   1      20.578475649115525      50.879914521190514      2.6141280661888096
   279   1      19.397544225833254      53.797979960657656      2.4568155961608054
   280   1      22.536276231916872     0.09928636590771088     0.28865196872899757
   281   1      23.935137313409648      2.8055575880277499     0.16922500934013315
   282   1      24.093956800491231      1.0444975761855504      2.9374077178889544
   283   1      22.544617243978607      3.7167766030343019      2.8718804970475937
   284   1      22.004265380197854      5.2361605388623973    0.032953839151895481
   285   1      24.200629992237907      8.3241916899547164      52.084300325998342
   286   1       24.20109591247888      6.4689787350980241      2.6395143126431528
   287   1      22.656876573065485      9.2927697421398214      2.2559718616996194
   288   1      22.423784011570877      10.965580710550517       51.86554584656519
   289   1      24.052982755137972      13.830949827942378      0.2417083205221652
   290   1      23.884278319479261      12.244024624283341      2.6863730137028514
   291   1      21.866892424935955      15.157832368857679      2.6190109182801722
   292   1      22.451345144919564      16.945981934165339      52.046217785537742
   293   1      24.381938378642214      18.836030039676864      0.5504212221475151
   294   1      24.142645144827402      17.232246155093559       2.876629777253159
   295   1      21.834673211238758       20.52502899377938      3.0631500832081908
   296   1      22.424936613964736      22.296497051230372      51.913910441232893
   297   1      24.368469610257794      25.300516607503056    0.075922430070988839
   298   1      23.685026570928226      22.573309899555554      2.3272063167590149
   299   1      20.666180537543742      25.314005855828803      4.9515841132617062
   300   1      22.401193640192393      28.004635935033093    0.076390883790730627
   301   1      22.442736239104864      31.606764833956298      2.7032880366314047
   302   1      22.835329658471469      25.995943217514764      2.2491741590855252
   303   1      20.981139939252788      28.977946449274334      2.5410607820875537
   304   1      23.777839991183004      30.642539029844919     0.32220929821902206
   305   1      22.261015714276674      33.629479442522324    0.068771717503630217
   306   1      23.974559984260566       34.42086183892706      2.5634909556765701
   307   1       25.56875134624029      36.864697110768986      2.8044637026091319
   308   1      22.810904954674328      38.730871983547445     0.00373488480408341
   309   1      23.787787619518422      41.392641289393225       52.03808923961406
   310   1      24.446783106113962      39.736630734455034      2.6425465489716942
   311   1      22.795779461862189      42.627791617466222       2.282912055039902
   312   1      22.170625138492881      44.240032225025516    0.090214900908533707
   313   1      23.731028473679981      46.890070211569899      0.3169650820461018
   314   1      23.671640497090024      45.354565579530124      2.7185026064695488
   315   1      22.063799246569978      48.174439876752345       2.649704458842228
   316   1      22.450184732779771      50.153303167629083      52.125682652690067
   317   1      24.333951300189362      52.218991076527047    0.052548353520235028
   318   1      23.910925991423433      50.548751611482309      2.3985965609170807
   319   1      22.345316598583263      53.458528384003642      2.8965412093471961
   320   1      26.809555289849545      2.3036483171822217     0.13433281779798265
   321   1        30.3813655528601      2.8674159806242838      52.013504852936705
   322   1      27.256170395975442     0.75828896341768726      2.7635193176976998
   323   1      25.777154379293322      3.5844206261662186      2.8216447591793834
   324   1      25.342052392418488       5.535449949644951       52.02185955585847
   325   1      27.420331859329039      8.5466418013760403      52.111304205229771
   326   1        27.3768618439892       6.352266219249783      2.5760048853283841
   327   1      25.833617701813072      9.1183004977130278      2.8281577295199711
   328   1      25.387403842447387      11.246862997603534     0.29508467882018807
   329   1      27.206076905012903      13.758650807409538       51.92594789800178
   330   1      26.950985868465597      11.768282804089848      2.8509100648035028
   331   1      25.710688051863556      14.428150714354324      2.5755562369210985
   332   1      25.940105713720122      16.416808520701913    0.039615095105123871
   333   1      27.395198712827156      19.000820156085901     0.30360159813507603
   334   1      27.332609751352464      17.069809604693873      2.7823384166986664
   335   1      25.936737116961858      20.510149874819081      2.5702531006429461
   336   1      25.996436391286295      22.592948942526384    0.060923417595781501
   337   1      25.764022468023633      27.900650362068603      52.109700392368353
   338   1      27.166158430844931      23.465647815668486      2.6849099452456051
   339   1      25.679484092218178      25.935664632835326      2.9795783188752063
   340   1      24.040482353018035      28.562029783503593      2.6016352252239798
   341   1       27.42297416021627      30.699188711695729      52.080121367385651
   342   1      26.972873036912599      29.128429292426013      2.3519348235475501
   343   1      23.891591769666977      30.366656506590203      5.0363522393863951
   344   1       25.73345007833348      33.266614153194752      52.122696106926369
   345   1      24.114204597982628      35.889302935854843      52.128917045356722
   346   1       27.25598755226558      34.132750251236367      2.4347309933360699
   347   1      27.254872443972193      35.983933899812996    0.051090169409344882
   348   1      25.639238964660699      38.755791598934813    0.019242499090039038
   349   1      27.274364586227087      41.279059263206754      52.079965671224031
   350   1      27.713076434696749      40.112874484607147      2.7030940693289112
   351   1      25.962017676100377       42.68213677587562      2.4903428848120761
   352   1      25.452354702220791      44.524267070492513      51.998079017967257
   353   1      27.468775406873384      47.015665145818794      52.051326838362094
   354   1      26.777183969549831      45.410840085499487      2.3999006664888602
   355   1      25.664425520125842      48.215711304811379      2.4772199107470874
   356   1      25.352532707350917      49.585893514438403      52.013272894688313
   357   1      27.457120720466747      52.645820908436306     0.15875283334031445
   358   1      27.181746383265587      51.114648944413787      2.4481463594138195
   359   1      25.783257358143285      53.734227021632208      2.6180648552841332