dump/Mg_900_20/steps_31 (written by ASE) 

3980 	 atoms 
1  atom types
0.0      32.100000000000001  xlo xhi
0.0      55.598830921999998  ylo yhi
0.0      52.130399999999995  zlo zhi


Atoms 

     1   1      30.273301088788035     0.69415033779440749      2.7045877251408244
     2   1      3.4151272605472669     0.31481056457403039      51.994432937782811
     3   1      1.6497304897800176      0.5779141663145857      2.4612472675290302
     4   1      31.862507908757351      3.1621068961298757      2.2693841925293747
     5   1      0.1378095868106245      5.4277409935756324     0.16917913541701643
     6   1      1.5533942079403487      8.3998225194528828      52.098490480566625
     7   1      1.5867690226819842      6.1683598763924747      2.6288283393443441
     8   1     0.23708775439199689      9.1513945812677768      2.7065548985515222
     9   1   0.0095839520200349769      11.015292564732988    0.087338751493238859
    10   1      1.1380510485481576      14.139538338100435      51.950302457890224
    11   1      2.0803367441093106      12.091567036670844      2.4551660933538497
    12   1     0.15007917756228248      14.487378147332025      2.7120489108191026
    13   1      31.623378526855028      16.520286653913743     0.22302351454249644
    14   1      1.6460946646616363      19.227517987546879      51.985005191035832
    15   1      1.6770297007702226      17.276736762643566      2.3115721589247689
    16   1     0.22756808397486025      20.214239457092905      2.4420490443712595
    17   1      31.993244542439733      22.262392145350265      51.844525417532054
    18   1      1.6409310317241677      25.064925942711302    0.017424286935357566
    19   1       1.371475767597147      22.894090140826997       3.132305190199693
    20   1    0.050639365524047721      25.423672128528381      2.6446185281512173
    21   1      31.904245372821173      27.535210750387353     0.32745002983514587
    22   1      1.5780699005341632      30.445136546116832     0.42079077227248429
    23   1      1.2453514035024136      28.450837601047311      2.6953581930759194
    24   1      31.780481752267608      31.387865325832088      2.5763137315565716
    25   1      32.042986633154257      33.431465525682206    0.066323707607998841
    26   1       1.779724803461664      36.069755839254469      52.085451847941542
    27   1      1.5201920477661506      34.219152282903586      2.7854016080110968
    28   1     0.22197486601737867      37.230291562488567      2.4981894574119696
    29   1     0.14527589064057564      38.700124177012995     0.24171475351499391
    30   1      1.5332656997467824      41.392034333153376      52.062823169157376
    31   1      1.7519348937996639      39.821701372709569      2.5307118411745204
    32   1      32.014827453796414      42.612443217383593      2.8537357427642429
    33   1      32.089328449566395      44.035571302823413      52.116158444983071
    34   1      1.4816760219188916      47.363318962733693      51.632723182431981
    35   1      1.6242131932438311      45.365561153844467      2.4409463987187312
    36   1     0.15676230529136639      48.283771887695522      1.9686481781157394
    37   1      31.906229667546043      50.141350904456303      51.917757529458626
    38   1      1.5262841058123351      52.867794466224758      51.695965400181663
    39   1      1.1499162851859228      51.186697385486141       2.208045798840792
    40   1      31.773542829423501      53.669207027428925      2.6975567246935435
    41   1      1.9418770560335255      2.7783206176352011    0.019128406296213225
    42   1      5.0766519214404831       2.783922678939895      51.783169759938176
    43   1      5.0247719984601629     0.88958093514382675      2.1390559250618364
    44   1      3.0299117232514181      5.0427439195730344      5.1431672206714403
    45   1      3.4895552709129296      5.5033122654408038     0.13169297425512555
    46   1      5.0996685703878741      7.9903789514398564    0.020884686080790551
    47   1      5.3540554624246521      6.5489984467921065      2.6058215993639351
    48   1      3.4432341681697718      9.1849056610121345      2.5368900302545589
    49   1      3.4927350034356759      11.146806416493511    0.039098058926658977
    50   1      4.7762623767329382      14.178947090677399     0.15615413325683788
    51   1       5.301825282308835       12.46546976532195       2.886870880776415
    52   1      3.4521263884019531      14.716344755092587      2.8500763381525305
    53   1      2.8714090514878001      16.288803557615203      52.032493803913489
    54   1      4.5482140713227697      19.849704339757157    0.070418359302874073
    55   1      4.8133967920190628      17.491509884279353      2.6623532748331429
    56   1      3.0807030393976018      19.932671367076111      3.0106957169722746
    57   1      3.0681436878130417      22.726085047195873     0.44802210966208589
    58   1      4.5780674768650922      25.072975338181369      52.025289042427367
    59   1      4.9548323987571452      23.136859242394852      2.5930807485044371
    60   1      3.1703750881544499      25.760652881246138      2.4312505501275017
    61   1      2.9711035947759803      27.890185428117672     0.28435862018650521
    62   1      4.9250491346261063      30.301902759092243    0.045651909694915692
    63   1      4.8568118187098941      28.913926429866958      2.6329103905981239
    64   1      3.0580916852673354      31.514808760338557      2.7336855061148451
    65   1      3.2142042771498573      33.143539999028555      52.129716188949899
    66   1      4.7986569311500205      36.178043907696882    0.032859509503193933
    67   1      4.8004941051951837      34.196915357690898      2.6350283814454154
    68   1      3.1751355205915082      36.836151892652595       2.705313557631682
    69   1      2.9868976347794089       38.92276049993297      52.072082652084291
    70   1      4.7165838702246585      41.446310138045234      51.812096893437626
    71   1      4.6102382843763712      39.592587967402537      2.4965711749793837
    72   1      2.7451482795134141      42.657982700792324      2.6690664831351896
    73   1      2.9249087918695227      43.993035111667758      51.928905685006292
    74   1      4.3740138070511625      46.978524519460365     0.35134208205731654
    75   1      4.7142333470552087      45.408534930136796      2.9554705742123888
    76   1      3.1355182084456863      48.037833951623114      2.7894876354874647
    77   1      3.0894684251052946      49.706387165491137    0.034391313767702082
    78   1      4.7430115401641997      52.780241855606455      51.841454246453118
    79   1      4.7469506657785612      50.631778625127303      2.1424801589706393
    80   1      3.2855285225617248      53.479827496037231      2.2727189654305042
    81   1      6.5768193742158765       55.54930997214354      51.965501929069767
    82   1      8.3449261208263099      2.7233998616086272      52.067580878500472
    83   1      8.3703242571128893     0.97682002991857153       2.205137429267487
    84   1      3.7838138243427224       3.700516286967602      2.5245206834967093
    85   1      6.6891896187056643      5.2946291661860965      0.3566169814644744
    86   1       7.825476627493579      8.5758405579135797      52.094599658144773
    87   1      8.3477043988826392      6.6520195882487183      2.6282566859007903
    88   1      6.4737644342386576      9.2833714888477683      2.4574840021768356
    89   1      6.4643825478956431      11.218537575352219      0.1552744346696274
    90   1        8.11362953630905      14.060875225607349      51.907856542246783
    91   1      8.2650414991846706       12.06095199837392       2.551303192241086
    92   1      6.5697301307014611      15.012170639274279      3.0125571664982251
    93   1      6.2187343547313931      17.182601152893294      52.112213007773427
    94   1       7.968861293154438      19.848627746461286      52.106887374274116
    95   1      7.7489596516486037      17.705453544805444      2.6977623259843431
    96   1      6.2469778311004234      20.501774582397541      2.5325113623544913
    97   1      6.2527131989668714      22.102059650128439    0.068789622595390634
    98   1       7.703820987813355      24.643412368434966      51.928887479249283
    99   1      8.0887762718381602      22.968000323746782      3.1668465309457465
   100   1      6.2558936872731703      26.130503242349665      2.5165776345900195
   101   1      6.2503642236024497      28.032720692508853     0.26401444103144589
   102   1      7.9681320721489479      30.704755771169545    0.060651645427324881
   103   1      8.1371076671865268        28.8036374306465      2.8129814933684356
   104   1      6.3683256371710453      31.486457002894849      2.6629168670024725
   105   1      6.3538749469660845      33.446771855839849    0.012037141159865596
   106   1      11.511594992996342      34.295987033145209       49.30239854663364
   107   1      8.3744463570034888      34.595093960134541      2.7348627118939941
   108   1      6.4847405678043977      36.868326891570717      2.5982884157565134
   109   1       7.669636332531689      39.666940046048495       2.086033929734382
   110   1      7.8039274324200516      41.162678349387605      51.829309308618797
   111   1      7.9523671299367571      34.346817791208792      49.614006131394184
   112   1      5.7706255455736306      42.532678466362341      2.3796022522382048
   113   1      5.9512346508980762      44.634302092046951      52.061080529616497
   114   1      8.1106850720369525      47.539531327432343      52.043078135024786
   115   1      7.8548761933539728      44.993270566276223      2.9452724721781718
   116   1      6.3142728006362452      48.176097665433808      2.7221699530482995
   117   1       6.609369845957997      50.093254056480269       52.09502204569629
   118   1      8.2141042634229073      52.509756450568673      51.949769014224131
   119   1      7.8523814211781637      50.732457304857157      2.5629822072728485
   120   1      6.6910973861191669       53.41143189253367      2.0602512491983611
   121   1      9.7706254707819351      55.558603209918154      52.016990184560193
   122   1      10.163583296457501      3.3867536553072024        2.64195138434409
   123   1      11.574205678901606      0.8325242116666931      2.0807319387601475
   124   1      11.012856801133783       2.637672180378996      5.1502578210633185
   125   1      9.6989188975206506      5.8050842309211363      51.779458652090881
   126   1      13.150226229386107      6.0152833835700905      52.019499326411108
   127   1      11.352064316043265      6.6426820250529843      2.2063113571779316
   128   1      9.5164630321983399       9.149510410731363      2.3013034579923666
   129   1      9.8134350323839765      10.978002514879355    0.015937293064451762
   130   1      11.280132937028108      14.171132371326511    0.052724530705850502
   131   1      11.283542929269153      12.211601331393203      2.4413200729772111
   132   1      9.6598512849634197      14.959284600944084       2.380483693773515
   133   1      9.6263352337444879      16.706690733038094    0.057563434341856956
   134   1       9.502644525166728       20.43034221436843      49.634417253172074
   135   1      11.377808907173744      19.385167877533679     0.15745421137109208
   136   1      9.4185681067977214      20.536906628383889      2.6698934345297021
   137   1      9.5909324559614468      22.308263751721388     0.10364418440538863
   138   1      11.133182231396205      25.643138593110759    0.082228230827822379
   139   1      11.278234679299606      23.404367807282448      2.3132696260641441
   140   1      9.1815838808505035      25.633202966574974      2.7566651746784081
   141   1      9.2238309756546055      27.676099500467529  0.00085728068983344338
   142   1      10.730994374945244      30.617330179711821     0.49560445852393681
   143   1      11.211391628564181      28.182792168970042      2.4524906846543573
   144   1      9.2055313499953009      31.736938837414332      2.9401292119942313
   145   1      9.5306776340749231      33.445100230319525     0.22965462878725673
   146   1      12.962752504184122      38.814239937179075      52.126403548935876
   147   1       14.64007838236194      34.075569943882449      2.6221305581882834
   148   1      11.323111494011458      39.747900777782355      49.441244405299052
   149   1       6.413379917104133      36.707615377077687      49.632479764109846
   150   1      12.981415050973819      42.486883538507684      2.7210806016628637
   151   1      9.6711328343256469      42.484577631898759      2.1984789076066087
   152   1       9.364441265221787      44.336566908970958      51.913058187748682
   153   1      11.255671096525706      47.096669124471468      51.949653431231383
   154   1      11.053453941717622      45.441337384839748      2.8683017884223068
   155   1      9.2452977262279123      48.010836649978366      2.7860925918640485
   156   1       9.964130813219457      50.171423682040924      52.095237058084201
   157   1      11.573549099409639      52.716473488700721    0.089420408932395154
   158   1      11.341492921163308      50.875191450673789      2.5773275886563214
   159   1      9.5767961157212795      53.713593289503727      2.4621917152524264
   160   1      13.161474508300481     0.15289116769097086      52.013102708692692
   161   1      14.560376184923079       2.867138062813662      52.010559724459306
   162   1      14.868757143103467      0.7128267738164209      2.6721121819971581
   163   1      12.847313231879365      3.9766118445863516      2.5313304190560224
   164   1      11.743711656480482      3.1991348746139225      51.926634959163614
   165   1      14.709212070423415      6.7979894623012935      49.523341611820726
   166   1      14.798213116186107       6.336168951250265      2.5635661576475059
   167   1      12.257751297991595      9.4809546267469198      2.4836878872024624
   168   1      13.035618454064622      11.331784224170171      51.864418786494234
   169   1      14.528546887692702      14.169503846808027      51.946718795743998
   170   1      14.381423792717003      12.169232206750543      2.2057123796217128
   171   1      12.742633269929076      14.896868931691403      2.4386236761700482
   172   1      12.820441158799108      16.649810106888456      52.086859036659106
   173   1      14.543651370558095      19.420601765458134      51.954473336056317
   174   1      14.837785424866968      17.858638888330592      2.6507512015615724
   175   1      12.616599042345308      20.748629596589019      2.4021498691609873
   176   1      12.895242450084689      22.095004885537787      52.036945909571969
   177   1      14.150018415487235      25.167855553297564      51.810781950490487
   178   1       14.41343563556393      23.437501212283724      2.4685355028095421
   179   1      12.918609167591216      25.774749560242455      2.7339023537745111
   180   1      13.137389008914834      28.104778457474804     0.15404888122350238
   181   1      14.398495800758159      30.636183385859443     0.35007839694848641
   182   1       14.56132647843279       28.42580064983478      2.7792054539042002
   183   1      12.244077968998958      31.264523129584887      2.4460339674165876
   184   1      12.568036812013739      33.435831383846804    0.084263958942562903
   185   1       15.96870644892425      37.247886832006401      49.751840697791664
   186   1      10.920640096284933      39.937897863029356      2.4701073226653962
   187   1      14.433944651195608      36.001478951014271      5.2822139094160159
   188   1      6.0232759187145497      38.854010991445882     0.14772311965364548
   189   1      15.704269982599357      42.522821434339669      2.7255506091890656
   190   1      11.506565140864495      41.857751406209317      5.2513789736741501
   191   1      9.8836948050163098      38.712885609750927      51.855790650734093
   192   1      11.161301495654605      41.421933585530887      51.868406173042374
   193   1      14.618559101456922       46.71566282592768      52.049872915315163
   194   1      14.146442337420291      45.206713715775244      2.7281554929891589
   195   1      12.210478871330881      47.870106494252759      2.5923581195397558
   196   1      12.845713185146433      49.665532469245591     0.22057931083107854
   197   1      14.416757066002111       52.82281110289464      51.976431588463889
   198   1      14.753770034036092      51.161286881632023      2.2583615758332614
   199   1      13.297292818511188       53.73690612807156      2.4100561721367781
   200   1      16.073714365869517      55.567055436964608       51.87592431821075
   201   1      18.069183036589457      2.5574107635913794      52.021964992759386
   202   1      17.687349393774142     0.64161899537641154      2.5007331070061878
   203   1       16.28506075781825      3.8942765525556404      2.2204217822333225
   204   1       16.12013331754877      5.5614498481337238      51.924254993975445
   205   1      17.698546299882352      8.3824723074901097     0.38632667134418625
   206   1      17.629567483815023      6.4375206306698312      2.4668438704202367
   207   1      14.525230609739072      8.8500555887604282      52.126066844830042
   208   1      15.707112644980372      9.1189443546697788      2.3175320999273712
   209   1      17.793121849686575      13.874344577866728      51.958978252208873
   210   1      17.338834326471169      12.124731691563369      2.6692362116167181
   211   1      16.043840882821598       14.75341588151716      2.5447696365368015
   212   1      16.311708351403656      16.855558149425207    0.038485814027619199
   213   1      17.531504441635406       19.65245242960389       0.226428187175996
   214   1      17.700999252075952      17.429379586301319      2.7354904420546715
   215   1      15.794793213368697      20.670186089292372      2.4459181499580422
   216   1      16.197049730161488       22.53590811235312    0.014106638576921618
   217   1       15.73644209389477      26.076315068019088      49.346647592471186
   218   1      18.023137521927314      25.442024091023921      5.3447663973775272
   219   1      16.207704008864777      25.870420446049636      2.8648421177968451
   220   1      16.306040056817931      27.672883021100589     0.15658801107805262
   221   1      17.419842491066429      30.706182447297333      51.909442904842876
   222   1      17.624934558170647      28.824919186350996      2.8299103120027356
   223   1      16.221607436854782      31.536190820102526      2.5496666467003641
   224   1      16.474508713273558      33.437835400460166       51.82059282181789
   225   1      14.605480074896096      36.136990023009282      0.1631472337454313
   226   1      17.515269183181914      34.536234460918358      2.8360154134050908
   227   1      15.852787370998161      37.296378733038473      2.7860061753319876
   228   1      14.137887180892369      39.747024371756417      2.7586932040631771
   229   1       17.61231035059415       41.82489898180809     0.58068522982471826
   230   1      17.461447868306102      39.665186060024169      2.8123524262750856
   231   1      16.119628630745559       43.68025472910243      5.3537347222448348
   232   1      16.252681650183199      44.341783628872371     0.24624213608551451
   233   1      17.987242610289957      46.796692950134478     0.10249461163018733
   234   1      17.709146431406847      44.897464184592835      2.8401157804065433
   235   1      15.081500906313135      47.619415235633191      2.6000993421662577
   236   1      15.570233739086147      49.755012105887502      51.978714384153399
   237   1      17.631638152579065      52.699980085445084    0.031860510915664414
   238   1      17.812162431123838       50.88854071348306      2.5637279621846027
   239   1       16.29637364303623      53.707075111077508      2.4727465207546708
   240   1      19.146605848786898      55.304715045708299      52.108464437793572
   241   1      21.178273522161792      2.5229825727962951    0.029042043456504078
   242   1      20.480029171166468      1.0765589596707186       2.825734098110154
   243   1      19.295566331334705      3.7998736471857226      2.3829517716932811
   244   1      19.257981233336917      5.1669951501832925      51.976760266253194
   245   1      20.598707602056088       8.812838776368638     0.21734089348941546
   246   1      21.097942037303167      6.5158601416173347      2.6666053892935278
   247   1      19.071487284204824      9.5712536538148232      2.7844016925344404
   248   1      19.128901977065478      11.358140602013139      52.079171980391692
   249   1      20.743915618325783      13.925313622780143      51.857783652493488
   250   1       20.74090929725606      12.149844537310313      2.4713192588361239
   251   1      18.929977935492452      14.772886577559388      2.5339472714865212
   252   1      19.343133754528925      16.508872327261287      52.098594168426963
   253   1      20.818842512378875      19.679214014710382      51.962070698068182
   254   1      20.452593098839621       17.78860708388266       2.537405219705275
   255   1      19.251562188785162      20.635427163455756      2.4686978680151377
   256   1      19.285740604171611      22.268594259035449      52.124051677149012
   257   1      20.751793175196816      24.926114590935601     0.10218418177708571
   258   1      20.795569841699258      23.024934609811186       2.524155489186966
   259   1      19.097086519967192      27.707984805967072     0.28688376425338308
   260   1      19.552332048318256      25.663564704283196      2.8274056858081087
   261   1      19.218777482951747      33.530328630257081     0.29401516314443604
   262   1      20.467404466851715      30.670106764114802     0.47545276676091303
   263   1      19.251027050662355      31.448447340766787      3.2114076794498141
   264   1      17.669005997038145       36.38912693915227      52.028390045010781
   265   1       20.76891591097089       36.26259289759237     0.32905068018797845
   266   1      20.664250438510301      34.407223768225705      2.5850208018672118
   267   1      18.958906177986545      36.839844854644042      2.6957970134658251
   268   1      19.046106613731823      39.096845930751513     0.18703304929142214
   269   1      20.763820707564939      41.639103537647898    0.041063077690282418
   270   1      20.738669784281281      39.565542641328015      2.7225507222348995
   271   1       19.46678802626602      42.431319706358593      2.7701743138493868
   272   1      19.508779695615747      44.195997004586864     0.14340002292496243
   273   1      20.783903491135042      46.897945822285884    0.048415351277739875
   274   1      21.116490050201374      45.432548047410656      2.7181254908706012
   275   1      19.144924496624526      47.761958085537401      3.0423974436639551
   276   1       18.91279075551882      49.665831422318973   0.0035684972318667878
   277   1       21.07035308847826      50.995654274321168      49.336664891188093
   278   1      20.708365123448363      50.605574617688731      2.5221997999475652
   279   1      19.386888785666777      53.622289416687728      2.8029063554240174
   280   1      22.341493879774859       55.37205057756973    0.090386387551588648
   281   1      24.053827956362571      2.8184903046670517       52.12758871744569
   282   1      23.653684240244019     0.53106205353981961      2.8350263217942429
   283   1       22.59425725106334      3.9424774086438248       2.621978644110595
   284   1       22.22322222855983      5.3597605610135757      51.860115312614646
   285   1      23.767669673350294       8.308199715685042     0.25301917974605648
   286   1      24.146730357507675       6.588218151152784      2.6197062352401073
   287   1      22.372513844771895      9.3936018097420408      2.8491999698839061
   288   1      22.312119656924875      11.046330174662609      52.061111073254033
   289   1       24.16392451756273      13.929702692579083      51.952908062627287
   290   1      24.228288592895865      11.911158629367982      2.2482686440145385
   291   1      22.246869324328333       14.88444524107398      2.3599673146333005
   292   1      22.355218802300765      16.870260532651638    0.071112466092909013
   293   1      23.903814408081676      19.473821310322627     0.46393396609843396
   294   1      23.662371461723684      17.742545234249036      2.8200205514747485
   295   1      22.261340500306002      20.369093431513114      3.0752328706409027
   296   1      22.697547876291186      22.325233847390582     0.27484821802627041
   297   1      24.332460453771855      24.912540179956984      51.994505006397809
   298   1      24.146487292882281      23.079311187833113      2.5989505530159946
   299   1      21.124373886683472      25.002244989501722      5.3853058610222622
   300   1      22.307908182069191      27.812176464811024      51.894673592023388
   301   1      22.644985514900274      31.429179751528018      2.7056089308483218
   302   1      22.789614778910654      25.943317184709059      2.1418211404700305
   303   1      21.170892530847002       28.49330817656741      2.7980316275289603
   304   1      24.186991852191618      30.530488241200871      0.1434367973743749
   305   1      22.667580053147496      33.304630391085439     0.47710764107583731
   306   1      24.195840570873326      34.403476207647266      2.7714377320090628
   307   1      25.683799143379876      36.757220344225935      3.1236895692095272
   308   1      22.358811841644453      38.796709387656783      0.1668549684697048
   309   1      24.090810880300623      41.512159110078194     0.27861439298380652
   310   1      24.273082162550121      39.699057689026546      2.7756185848892274
   311   1      22.584895335770842      42.760265080008011      2.7598243625382737
   312   1       22.80141498599351      44.193649057634552      51.769593979757836
   313   1      23.834830129813355      46.997276810644237      51.972095315655189
   314   1      24.102447371181068      45.432155170188942      2.2219349615566264
   315   1      22.419530296145652      48.153090316297884      2.5027288464420052
   316   1      22.322228353098385      49.896105198030597      52.091360485927815
   317   1      23.871437175415682      52.650448910470672      52.010642077891625
   318   1      24.420614318473202      50.984496885486166      2.6827272482058335
   319   1      22.135223121660857      53.418261935543221      2.7396516819030543
   320   1      27.245863867232977      2.8819565985822089      51.991800688911731
   321   1      30.509290845363235      2.6524713977807952      51.932692075958855
   322   1      27.114652663124417     0.50747638825631614      2.6824619155316229
   323   1      25.570304656053608      3.4178186883622415      2.5364892127199319
   324   1      25.517051611916273      5.5906548094946196    0.037331461177612511
   325   1      27.248342171071361      8.2469695128068032      52.040552420427638
   326   1       27.37877180759828      6.2084230259081581      2.5899896721204465
   327   1      25.671307336925718      8.9436353647288147      2.5252532750290175
   328   1      26.048092643426962      10.885709185436109    0.022175949562720895
   329   1      27.222161441010289      13.877703602652327      52.058515533587091
   330   1      27.379618727891838      11.896563388234906       2.759996293772605
   331   1      25.826545147191737      15.234529912894477      2.7438051270648516
   332   1      25.488738271606824      16.369792447533051     0.30975618543203909
   333   1      27.285260250297561      19.380879680184403      52.090781641780296
   334   1      27.085230362453188      17.779705931320283       2.505292149807044
   335   1      25.488452683437838      20.353895732490603      2.6499273291588521
   336   1      25.985802754504029      22.086880286870461     0.14693206552131324
   337   1      25.455954409433204      27.946770864277262     0.15867097389105442
   338   1      27.261869016755586      23.099422344484829      2.9354199920898294
   339   1      25.857211182160132      25.935754817888114      2.7036921329889045
   340   1      24.303948328304223      28.846197751572287      2.7182646074675141
   341   1      27.029498213890896      30.625173141630107      51.990781794978709
   342   1      27.193509588581453      28.346806422359816       2.350299530818186
   343   1      24.244462389371026      30.441489997274353      5.2692270649004875
   344   1      25.860271208582173      33.072932899150885      52.128867422914631
   345   1      24.114046372307495      35.854313607492465     0.17119347068286808
   346   1      27.002121746075652      34.295745956458482      2.6445187554374958
   347   1      27.294278736193938      35.857552519132355    0.063107786992625953
   348   1      25.754858939964397      38.419886394978974     0.16513640431062862
   349   1      27.270791619071947      41.626421668681999      52.059613121968653
   350   1       27.24660001241914      40.343258437446664      2.5319325526075702
   351   1      25.686717366332772      42.682110312268662      2.5094824324884906
   352   1      25.734730045491066      44.431765441315569     0.16923069234706348
   353   1      27.379479923365263      47.107028970562716    0.037417907360153178
   354   1       27.31603870064923        45.3080694585503      2.7445092900677741
   355   1      25.764964544005618      48.201330346006678      2.6383697163186706
   356   1      25.359392316780173      49.592403540547878      52.082488276627728
   357   1       26.91408486751417      52.526494489816187    0.035589333710563879
   358   1      27.707009491792085      50.874988733873458       2.632967474542637
   359   1      25.381365677731402      53.656571874532673      2.6885343592372766