dump/Mg_900_20/steps_71 (written by ASE) 

3980 	 atoms 
1  atom types
0.0      32.100000000000001  xlo xhi
0.0      55.598830921999998  ylo yhi
0.0      52.130399999999995  zlo zhi


Atoms 

     1   1      29.943146905080425      1.2299574266270401      2.1141753540644914
     2   1      2.8664836035529224     0.19546766085996725     0.14443006508630796
     3   1      1.2558911393039363      1.2520659312444622      2.4688282932162031
     4   1      31.874477772005214      3.8574192091687789      2.1936995076978194
     5   1      31.907582711538705      5.7461314808224895      51.825030430939449
     6   1      1.3553648790083044      8.5826832724238269      52.120129192822574
     7   1      0.9400065277693338       6.600310956974929      2.3521487538855204
     8   1      31.621104595028388      9.0475953860088136      2.6270765952714616
     9   1    0.035148716527727046      11.243057494598096     0.20825198374789286
    10   1      1.7256403799266675      14.006349981328661      52.043222899528679
    11   1      1.6003886845382809      11.651417310605311      2.3189516031334279
    12   1    0.074177009026198976      14.141327948218549      2.3871446488422152
    13   1      31.868509320055416      16.778005187800318   0.0065134050641749144
    14   1        1.44766993868731      19.750268481482212      52.095292982427019
    15   1        1.53923141691206      17.661370841469971      2.5670680013739062
    16   1      31.977560215260603      20.675579626763799      2.4477006201496061
    17   1     0.24143656055093882      22.560836046921448    0.043696457428227788
    18   1      1.7692071807389322      25.080495291456604     0.14479364908985359
    19   1      1.9166916824351359      23.532548647503347      2.5932885401615695
    20   1     0.36890002383745757      26.370955414331192      2.6638095889190625
    21   1      32.055450159471725      27.792381833444132    0.097328666036694614
    22   1      1.7557945929387702      30.796213428403146      52.009201599610357
    23   1      1.6597111626686822      29.165924673448885      2.2549080927588845
    24   1     0.19570387428368791      31.639088580828268      2.7909538526503925
    25   1     0.23847670597689855      33.214367821029427      52.026787781459589
    26   1      1.8535873823250208      36.182534629945302    0.010389440702723013
    27   1      3.5298932044243072      37.194170612045923      2.1190978385133987
    28   1      32.048383316469696      36.859650278036895      2.5274425760956398
    29   1      1.4144616242790518      39.896924504192206      49.422717619301174
    30   1      32.037761024527093      44.244998291872662      51.723788932240595
    31   1     0.17599164826050898      38.964264350795759      52.076650928280884
    32   1      29.322255492035939       44.63086046940289       5.022687318133773
    33   1      3.0462818419766013      44.734351128008925    0.017027987534309241
    34   1      1.1792023242980985      47.158336751987235      51.895650968487892
    35   1       6.327201297127214      44.621063216843702       51.83063299891424
    36   1      30.631347769193038      45.698931799308717      2.3647074040430973
    37   1      31.979026005471759      50.100647464507475   0.0074473799803871079
    38   1      1.7777321179180103      52.967368975987064      52.072758405537577
    39   1      4.5898386380394909      47.651621785865167      4.8287303201567395
    40   1      32.045164012907939      53.697328774398031      2.5854773636222683
    41   1      1.2594923481279736      2.8873496373697178      51.971459591498373
    42   1      4.8874727936791853      3.0254218799906685      52.081314666356143
    43   1      4.6927829420005365      1.6379682316360873      2.2740572883510457
    44   1       2.692289484121956      5.6814617919579211      5.0380095138908869
    45   1      3.1247830605414033      5.6637759989876928   0.0011360253914966078
    46   1      4.8875465893353605      8.4693070191649404    0.091298160100915612
    47   1      4.4038805549071478      6.4124149024397488      2.7334157445548288
    48   1      2.8933531971059554      9.0922104013969758      2.5414039851693415
    49   1      3.1527600334421035      11.122196125103844       51.69470158178197
    50   1      5.0960820685181627      13.986201024628713     0.28353471315500828
    51   1       4.823821871931397      11.832870875694542      2.5545501465685092
    52   1      2.9485000210582162      15.069083660767953      2.5641278096097699
    53   1      2.7025018290957288      16.986026889042218    0.070103314150567808
    54   1      4.6157229174188537      19.529088471568489     0.10280323110301633
    55   1      5.0479097794397996      17.565607666283547      2.4107308222312325
    56   1      3.2053637269777711       20.53321006047728      2.7631818108805155
    57   1      3.2657622028007616       22.34507145877814     0.25407628912232488
    58   1      4.7018837836924821       25.03487430766058     0.15747576149850812
    59   1      4.8820844235700278       23.13911462362644        3.15507701633938
    60   1      3.2956129299446304      26.816013156237243      2.9659381869717327
    61   1      3.2823160935860232      27.752037721709542      52.009068738361194
    62   1      4.8129516660009513      30.466126973222796      52.011116674805265
    63   1       5.152591581814411      29.043233131157375      2.8699349121919995
    64   1      3.3374989618295885      31.581502603871776      2.7493505989427587
    65   1      3.4751094523679109      33.567121187209857      51.847197470165113
    66   1      7.9891986247954909      36.502435169673852      51.746797446324926
    67   1      5.0806536152015296      34.329648955239811      2.4958047914046264
    68   1      1.3990422122244497       40.10744244391767      2.2728392754555333
    69   1      1.3250696155589989      41.699905986582216       51.67051787140386
    70   1      4.6508719986076521      41.888872022646964     0.15168119731445498
    71   1      7.8985071127673843      47.176765371539929      4.6986611572214496
    72   1       2.843916297415459      42.860799837226004      2.5391971315097228
    73   1       7.731050191874421      45.082054471941042       2.372032798512171
    74   1       4.478090754880153      47.119721002819155      51.914499235105232
    75   1      6.3159818685892049      42.503961025937777      2.6899166859552053
    76   1      1.6776117679836284      45.668214725233952      7.8446231275275506
    77   1      2.8816597473375798      49.901699298824887      51.953193031876467
    78   1      4.8757654797514061      52.549995857196699      52.024491310559817
    79   1      4.5410174725848309      51.117233752453203      2.3596305995367128
    80   1       3.215943510747858      54.236070227265088      2.6588925055752703
    81   1      6.2756945268360411      55.530839110567918    0.040526847687936587
    82   1         8.1196313211105      2.8493169279875126     0.20998780670950706
    83   1      7.9865842419201609     0.72130280531127899      2.7930223619176031
    84   1      2.7502260526467466      3.9873805166750529       2.347261494291307
    85   1       6.134770169150519      5.8117900545234722       51.94422329043271
    86   1      8.3655287681752988       8.114689145181373     0.17783184853100995
    87   1       8.350799806122696      6.6047874469517778      2.7093144585230524
    88   1      6.5277731444875569      9.1574025911648835      3.1554728579151901
    89   1      7.1411349440846648       11.00968013467201      0.2358008877956477
    90   1      8.0239290646822496      13.903387658628699     0.21913955185400977
    91   1      8.2147835056948555      11.760106468002247      2.8612747431050551
    92   1      6.5865340479248955      14.830114426025288      2.8542732442287688
    93   1      6.7714292837080343      16.571524543227007      52.098119455999125
    94   1      8.0286973763451925       19.41735123681315      52.016402686694811
    95   1       8.100283564778163       17.71687301759485      2.5239938978097465
    96   1      6.5688824205468013      20.689934403422889      2.8560832428978942
    97   1      6.2982435425898551      22.119603056194443      51.846161503599951
    98   1      8.2983801143552682      24.698425818438778      51.674696348686631
    99   1      7.9446629688667194      23.311952565424079      2.4610442374558938
   100   1      5.9920501190418429      26.064866076083387      2.8783072557484801
   101   1      6.4756993462724681      27.426038623449212      52.020898201647576
   102   1      7.9528120283158588      30.619842398549984    0.040956287769094601
   103   1      7.8153548291772585      28.301086835212672      2.4852832736851478
   104   1      6.6296264693890024      31.614756181283123       2.507753609256977
   105   1      6.1326872838636621      32.868537972543479      51.947315877234033
   106   1      11.197418204104082      34.349584668045694      49.139972744673969
   107   1      8.0545641945128015      34.067249211408537      2.4371424531611048
   108   1      6.5981383198294328      37.049970316366647      2.3324150446780827
   109   1      6.2348288175232236      39.253268938356662      5.1756963159445837
   110   1      8.1070648676840662      39.593750393456759      2.4788967978388716
   111   1      7.8424273617618656      34.319260658523888      49.407503575434596
   112   1      9.5194103218791852      42.303944667445492      2.6872696078845761
   113   1      7.6439798557576699      41.599329385498287      52.107418342548769
   114   1      10.744242090072103       47.37855805679083      5.2862639351097016
   115   1      9.2973500844754167      48.124101721327214      2.4919507169701811
   116   1      7.3761306960943083      50.929344634089645        2.33714201958461
   117   1      5.8923591855860336       49.89670120989917      51.745036976544505
   118   1      8.3978793962952416      52.220745813374165      51.937677075786446
   119   1      9.8333898646745261      49.593454797871111      51.900280352000159
   120   1      6.4071142808004948      53.945295199615018      2.7954023287177843
   121   1      9.5986717462598765     0.04460444691185169    0.035143734792752006
   122   1      9.3653899946248025      3.9804358593857709      2.7046131250540082
   123   1      11.239065132803328      1.2192917922159396      2.6516054707273522
   124   1       10.48161150554996       3.019959081728711      5.2235582761342254
   125   1      9.7916814437255724      5.5724459976206369     0.13613175868668073
   126   1       11.42559133573708      3.1021489459738927      51.950822404402992
   127   1      11.322423352608576      6.9267706504026378      2.7405989131861364
   128   1      9.7091001849780572      9.3249153336833146      2.6647956412933569
   129   1      9.9932585983959488      11.121042576121985      52.032829332528557
   130   1      11.160643295494726       14.14464550993814      51.966657408806974
   131   1      11.326625221035064      12.270277120190997      2.3900811763983425
   132   1      9.4701032336173228      14.668031509741542       2.722495591743276
   133   1      9.9446816090119707      16.736571884357147    0.032158491756706459
   134   1       9.348398489017919      20.445868428428053      49.501157518753033
   135   1      11.298888141936647         19.168745650643      51.961736657607382
   136   1      9.7453946372581903      20.230916345908788      2.2662748789895657
   137   1      9.5877137781314197      22.074560670708916      0.2071753482288477
   138   1      11.653050475015087      25.402682293130376      52.094973640458896
   139   1      11.223747585372061      23.279572678624529      2.2559784836424064
   140   1      10.016250855783509      26.249996956841301      2.4231140071821935
   141   1      9.8092224823903837      28.001551304174978       52.02188558271073
   142   1      11.274381395012703      30.504794917991013      51.761798271639911
   143   1      11.381065931934819      28.826193436766964       2.419898952523257
   144   1      10.038777165278974      31.398922567693621      2.3347663672761554
   145   1      9.3576686900113941      33.205831829161973      51.674627776478559
   146   1      12.513144734073016      38.439856009344425      52.017134679231702
   147   1      14.629658287410852      34.168605229178752      2.6082093884565314
   148   1      11.238185098381736      39.978852305177483      49.598683376121279
   149   1      9.4690753034183022       37.18741623911103      49.103673893269061
   150   1      8.2359220630109409      42.022050980509249      5.3267671570950714
   151   1      12.983098237732483      42.619180824072863      2.2646252409034036
   152   1      11.209456447956679      41.802458890186266       52.02334046266575
   153   1      10.917054477809151      46.976805326735587     0.18957698543386536
   154   1      9.5454976884500233      44.404943608389218      51.764112944370389
   155   1      10.759715478946639      44.834676613756571      2.4738882029814988
   156   1       12.97295118644613      50.136150823580593     0.19442156155126622
   157   1      11.132992041860069      52.936600462374983       51.97835839355335
   158   1      12.747590314060494      49.890249847546329      5.3341691109261609
   159   1      9.4369793289376478      53.279473289215083      2.3758788781622449
   160   1       14.00043494745011      1.3595472420146886      49.730898378070847
   161   1       14.43190886393497      3.0647106734105747      51.891678281063605
   162   1      14.069386915497839      1.0990238966720087      2.5869674863330943
   163   1      12.392703923288723      4.0353727558174093      2.5378242348064255
   164   1      12.606800968897421    0.028765573130640983     0.15569185631966012
   165   1      12.775244126796453      5.3931703983359522      52.105117252387878
   166   1      14.215989255677256      6.8766826294308556      2.4161859509418648
   167   1      12.898630344158173      9.6087034596887708      2.5966260365391176
   168   1      13.019293950964212       11.63058224900308     0.10848602122843937
   169   1      14.586885746421018      14.307406280404386      52.081768065368507
   170   1      14.901721312376575      12.023986935085343      2.7034350766630593
   171   1      12.569821321474945      15.322395017590019      2.5977882947301465
   172   1      12.917960851940839      16.762560900798317      52.109927356410104
   173   1      14.261989050752032      19.595775794046002      51.807882846108811
   174   1      14.549460245993938      17.725583537327729      2.5610405495443751
   175   1      12.483878466902937      20.406746807060419       2.408629164247527
   176   1      12.765932720991273      22.391000241450623      51.998221895724456
   177   1      14.860155415690341      25.166454801525564      52.067196305014306
   178   1      14.253292458415842      23.168402474622734      2.2112625678996807
   179   1      13.416833071498326      25.843765466136709      2.6266588356367597
   180   1      13.052539578330261      28.086391869435307      51.883116023101849
   181   1      14.455824666126009      30.652775212795834      52.033069049628715
   182   1      14.569409978277568      28.872644123552885      2.4011038259452668
   183   1      12.877165766530451      31.751143245288002       2.588901896033136
   184   1      12.297994244085904      33.167182470470408      52.122983408355118
   185   1      15.979199255208183       36.83646202339996      49.649002875173686
   186   1      13.000002019915664      36.746076169208415      2.5909989688600201
   187   1      14.401010238537722      36.584781662291675      5.1738692641001682
   188   1      6.2008593928739817      38.671993815065818      51.896495368947626
   189   1      14.168269901914062      41.846770115947017      5.1236412170974051
   190   1      10.973923584662161      41.810949396585094      5.1078161601602297
   191   1      9.5730485374083347      36.820137611939316      2.9289189821002717
   192   1      12.667603297906638      38.968879976279489      5.1882876897908963
   193   1      14.371727201659812      47.314880870858111      51.868752875473575
   194   1      12.852817561563331      44.568880683579984      52.036050875332705
   195   1      5.9606202255088361       48.38760860862071       2.187886435443942
   196   1      14.006337756433476      50.753839262046228      2.9699357548360874
   197   1      14.012076447844617      52.976489896495295    0.054904283149985467
   198   1      12.253061868073125      47.627565806928644      2.6550697307589664
   199   1      12.540479110869015      53.358672861190072      2.6509107600050799
   200   1      15.563667634793287    0.017562333778605072      52.064185594949961
   201   1      17.058167358945656      3.1285330828451152    0.082200114633040833
   202   1      17.217232085233139      0.8273677684208498       2.328871778618951
   203   1      15.570136653031515       3.894443818472622      2.4737272641163672
   204   1      15.751855311630873      6.0355174714766573       52.06213923746958
   205   1       17.49940228367846      8.1457183179070043      51.948172148666636
   206   1      17.415366658759439      6.3292346995931084      2.3038612907813909
   207   1      14.617354251676151      9.0021076987474071     0.13061658989100641
   208   1      16.253155230922786      9.2406334585362142       2.556378467700068
   209   1       17.50589908412547      14.121065326024478      52.125396044536174
   210   1      17.988690698591149      11.713409115882174       2.743702596234086
   211   1      15.827025198307769       15.30521059317832      2.7065491371779471
   212   1      16.203153458762579      16.897867374356469       52.10853353824605
   213   1      17.666312354061301      19.294011249666891      51.904341613987633
   214   1      17.699448019201149      17.453064246658304      2.9123739383626948
   215   1      15.994086411558873      20.299894514059474      2.1126325156131198
   216   1      15.924536239018126      22.161220037099028      52.015003621770553
   217   1      16.478399153220387      26.045736280452878      49.542329724603952
   218   1      18.109190772683991       25.47683143138828      4.7964390528871599
   219   1      16.463585144208366      26.380150522572293      2.3257928668323449
   220   1      16.169050447894545      28.230977351871807      51.969854623663885
   221   1      17.600106580440933      30.733722724087954      51.956814947935101
   222   1      17.924339443842705      28.827620400961408      2.1505550586721172
   223   1      16.060064381920661      31.466548227469229      2.5422189476468984
   224   1       16.13892734861702      33.396209116084613     0.12270948325264158
   225   1      14.065748490153659      35.852530386646599      52.089468581819496
   226   1      17.402170054338953      33.947127964327379      2.4053142708413593
   227   1      16.245490638213106      36.988220556396989      2.7919463073180411
   228   1      16.060351947948408      42.725315392023518      2.3583197383549575
   229   1      17.533072780837525      41.659640307843915      51.844704849929201
   230   1      14.238105237080674      39.746779710304104      2.6187090827224755
   231   1      16.000615494363668      44.605362640828439      5.0989235892974305
   232   1      15.851108074713956      44.819106630713385      52.001025527731557
   233   1      17.432022353847966      47.555663646597012   0.0038028079641363537
   234   1      17.662969644120999      45.423851236696301      2.2619675849658041
   235   1       15.67230642938909      47.886282612184864      2.9464772434757522
   236   1      16.115858308746617      49.954239308532365    0.027416318794609904
   237   1        17.0864317477144      52.971434455643234     0.48050040755651818
   238   1      17.163727348777915      50.938507252749126      2.5728163972695151
   239   1      15.909579182565651      53.583530371967164      2.4902993472852462
   240   1      19.260824704354974     0.42781359702355104     0.22837216640143221
   241   1      20.827455090666973      2.7585994463949617    0.021845878117837017
   242   1      20.827868918114721      1.1992516983484458       2.940239287731611
   243   1      19.185466921267814      3.4177920462164364      2.4557503851268687
   244   1      19.065967767272287      5.0093928976698754      51.871174242749419
   245   1      20.656295227323589      8.6824743646295381      51.903234870671781
   246   1      20.358841990921302      6.3186140546974112      2.1983989700751096
   247   1      19.341852440309598      9.3158759730352863      2.9952122885003107
   248   1      19.094063053000298      11.447659548369991      51.889601555323857
   249   1      20.884082829950692      13.950270314559939      52.108364888578578
   250   1      21.077084658773583       11.82010901653276      2.6550118153919686
   251   1      19.076695256064706      14.764455937921321      2.6645611428260678
   252   1      19.336096783322837      16.692101778077753     0.31945195476764499
   253   1      20.914914867200473      19.496297953124401      51.873486575743996
   254   1      20.989089014714914       17.93051887618277      2.6764453607665923
   255   1      18.921431499521951      20.659859409455631       2.673300108852195
   256   1      19.021768415034668      22.079632861909602       51.87438161133155
   257   1      21.085257268940101      24.866954267571749       51.78682939500046
   258   1      20.732174045965948      23.479902879179708      2.1061935364394224
   259   1      19.383974081392825      27.711074036094367      51.501167776553999
   260   1      19.549288976815767      26.132002229763295      2.1692604164949656
   261   1      19.309475931276381      33.505633397090499      51.948458848385592
   262   1      20.745763967848056       30.50340854309281     0.19813497734449112
   263   1      19.159325093046633      31.733472188721855      2.6072668603691751
   264   1      17.705895888138674      36.085979616327869     0.10023376473461736
   265   1      20.993845822722236      36.515911367822774     0.21562448347365779
   266   1      20.700434258631663      34.490390034894943      2.3647812751442148
   267   1       17.26583011973625      39.949479343580599       2.331093292310952
   268   1      19.436379759100248      39.382496364864515     0.15062663125962841
   269   1      19.285256112299074      42.579079004569714      2.3580163586549574
   270   1      19.036738691040387      37.272445554628838      2.6264941945863431
   271   1      19.029341387280962        38.8675042930833      4.8079320814971371
   272   1      19.436854708929015      44.742753547758824      51.953891089828694
   273   1      20.967128900581244      47.458580488102463      52.097320216233008
   274   1      20.620080155460304       45.63509865644248      2.5146718908780534
   275   1      19.116469051041257       48.28668935743012      2.6181001864491034
   276   1       19.35137381740979      50.188796970257989     0.35761064190452868
   277   1      20.328283248203302      50.589650008414516      49.854800497090395
   278   1      20.809444256095805       51.08226352333886      2.7483547648136546
   279   1      18.911188903041307      53.634470010681653      2.5870590291743705
   280   1      22.385521469984212    0.036580741072640255     0.23522159685513858
   281   1      24.170924483925436      3.1030638144799836     0.15862453527532253
   282   1      23.775172439945894      1.3760438679014317      2.8618054698465119
   283   1      22.123949118605477      4.0472387858689043      2.8484826751907417
   284   1      22.307324961194855      5.1787392163995065      52.016341120235239
   285   1      24.557316751188516      8.3462953022175004   0.0039569734633754707
   286   1      23.616045364735346      6.6159920952414115      2.3977620764216181
   287   1      22.691148673358505      9.3275660785019916      2.1695585789489122
   288   1      22.735667158786182      11.317000747752276       51.94641098219472
   289   1      24.234836733534799      14.420077741872865    0.092122382145810686
   290   1      24.279711003206305      12.488719509554954      2.8406111600169268
   291   1      22.247953226686416      14.675732840894192      2.8175580733888448
   292   1      22.270646639369236      16.754185970233085     0.15646351910837561
   293   1      24.044055600873708      19.401021221414958     0.20203892723095868
   294   1      23.912118488743161      17.740112080973017      2.7583939116965408
   295   1      22.140989029493245      20.624526682546833      2.5216394920594536
   296   1      22.359692075148896      22.070176101795081      51.955243255556169
   297   1      24.025644185737992      25.410180793928518      51.957369422092505
   298   1      23.940806838701278       23.51172330347023      2.2151825050316796
   299   1      21.122987363436412      25.259587530017971      4.9008485982072152
   300   1       22.42671684380694       28.04177455393841      51.928182477792035
   301   1      22.387268637077536      31.857790573539624      2.4033198001533727
   302   1      22.819287713421129      26.429070439503455       2.644170896649356
   303   1        20.8561621350098      28.874331232905782      2.7508920868778337
   304   1      24.150714931661458      31.132327729380094      51.866109850996523
   305   1      22.291566706134585      33.673597309900735   0.0024862921813592026
   306   1      24.266472783280197      34.545983975597423      2.1465990943918789
   307   1      25.407397151629525       37.35330483882899      2.2312860935165739
   308   1      22.560044536415916      39.292204653503973      0.2291203653058155
   309   1      24.203115071005971      41.762068044626709      51.774976720881149
   310   1      24.192011578336626      39.699225669446712      2.4561622129466203
   311   1      22.253324348395537        42.7122459056407      2.2266993523183198
   312   1      22.720000323537207      44.551020753840959    0.066769289078076291
   313   1       24.15372203237045      47.413104553346287      51.898384784172748
   314   1      24.071441353245728       45.52280908786399      2.4669897197743875
   315   1      22.487019188131498      48.382162531005648      2.4654238116247296
   316   1      22.541210046374996       50.07251598646792      51.980647725547122
   317   1       24.18250857208092       52.88863994465337      52.030948086082127
   318   1      23.816682444284297      51.044569299567776      2.6431828663870536
   319   1      22.484930470654568      53.761494542620831      2.7326280545994024
   320   1      27.177637870413921       2.971158765088048      52.067204459246312
   321   1      30.362187693896402      2.4508777125725847      52.014152989254356
   322   1      26.547384332914593     0.84312193422726778      2.4082901589520351
   323   1      25.542830369829058       4.064143078843232       2.458874158340512
   324   1      25.640961814666426      5.5977577610558953     0.24825907556800947
   325   1      27.417028936571246      8.4123514442008691     0.30856228272193303
   326   1      27.070056565115056      6.5954426260236509      2.6261794342517093
   327   1      25.181543251109709      9.7690446348101556      2.8074233729199998
   328   1      26.174363263899064      11.053117985269552     0.18039384886911591
   329   1      27.141343622708892      14.186516595968913      52.082243592612677
   330   1      27.151517255572358      12.068080048509181      2.7843254041693997
   331   1      25.790726424664271       15.34427912726907      3.0062229740098978
   332   1      25.985396956631622       16.98598435360519     0.10412732861400641
   333   1      27.195081776735769      19.661289828787481     0.33269070267776935
   334   1      27.732772915555451      17.748371042357881      2.4072729343446593
   335   1      25.733844293844747      20.847322514562993       2.782115453750222
   336   1      25.351307158398207      22.183882767605507      51.843117609274699
   337   1       25.93691929585183      28.250081576393821     0.35030157146257029
   338   1      27.231537803343301      23.565884908433315      2.4487827886511382
   339   1      26.010450838433815      26.368654913399833      2.3999963997793712
   340   1      24.254206284887058      29.153531337689675      2.5097499152937588
   341   1      27.541249020901077       30.73897581465204      52.094320431040501
   342   1      27.616504516445634       28.91506147688375      2.7808136121583353
   343   1       24.02326263518118      30.976579621987884      4.9637855707864764
   344   1      25.864271578005948      33.918213126323373      51.861153151302759
   345   1      23.891433956802359      36.485519917385744    0.075437502921979691
   346   1      27.123308589018901      34.633115669496675      2.3672348468608777
   347   1      27.336957673657697      36.342581663181811      51.745302117853676
   348   1      25.615753320575941      39.182440683149608      52.091684591483109
   349   1      27.339676474144984      41.798016038385313    0.025802420603200059
   350   1      27.548701815996129      40.249250501103347        2.83893334898936
   351   1      25.796109025074784      43.028125649103139       2.448571681497699
   352   1      25.789868364836067      44.713787071249556      51.899006984491997
   353   1      27.133200078241252      47.440980371531587      51.794887112941439
   354   1      27.230050436129723      45.966907262033814      2.2548912217298778
   355   1      25.591617358531366      48.458222624702337      2.5969313767801361
   356   1      25.589989254574853      50.147575234993255     0.16168769358877638
   357   1      27.250782486917561      52.742940971193796      52.082363644332396
   358   1       27.22637772518776      50.851499058507592      2.5181147560872423
   359   1      25.422098824412672      53.797632539835007      2.5211726081617125