dump/Mg_900_20/steps_91 (written by ASE) 

3980 	 atoms 
1  atom types
0.0      32.100000000000001  xlo xhi
0.0      55.598830921999998  ylo yhi
0.0      52.130399999999995  zlo zhi


Atoms 

     1   1      30.514156231479511      1.0435301552101548      2.2569590793028587
     2   1      3.0824111800586849      55.363276815078827    0.050784591958546732
     3   1      2.0298951765292257     0.78790724223035258      2.9302725026793071
     4   1     0.13017680459812517       3.612129727975995      2.3773402374289643
     5   1    0.055630898379582072      5.3698978584377679    0.014030585199201319
     6   1      1.6823194370051204      8.2170289390262603      51.898021464273612
     7   1      1.5810678586788771       6.453303219390305      2.5548250865616664
     8   1      31.933970905214615      9.2974244112304927      2.4363618805716785
     9   1      32.040615470353764      11.113205413556745     0.12543686577281013
    10   1    0.065108151825044688       14.42931248686369      49.483665984247665
    11   1      1.9453515156840122      11.749239885385018      2.5526519342565761
    12   1     0.51278894365311822      14.241423811263346      2.3978705904385795
    13   1      30.514453864022467      17.386165193158174      49.300101004289445
    14   1      1.5972905141035367      18.995858120098735      51.914213456121722
    15   1      1.4129435152578043      17.720430285146705      2.6616089591520744
    16   1      1.3511709270054919       19.55103406190598      5.3325802155993527
    17   1     0.21185305327884549      21.681011293796004     0.23880141733495053
    18   1      3.0085864048005804      25.929090552259442       49.17948918989287
    19   1      31.811630652795095      22.383004364971857       5.039513354456421
    20   1      32.022896483538638      25.595184041846693      2.4602842506272462
    21   1      1.7669389350390732      25.035410952059078    0.042489457099562408
    22   1      1.1859389762149197      30.574391001568909      51.896018079233343
    23   1      1.5215793884159332      28.728124078687014       2.506783997022572
    24   1      32.082615341241564      31.269244201333358      2.2234709180323318
    25   1      32.000323032179175      33.131534169925779     0.19154119348233167
    26   1      1.3028567518440588        36.0996051403717     0.13752100734887088
    27   1      2.8000805710629071      39.147085631327656      5.4328745831796024
    28   1    0.033073418449626031      37.221697163010816      2.6072197730995299
    29   1      1.7754803081749237      39.839571978878823      49.582201909448749
    30   1        31.9191481257349      44.722061625002354    0.026583173163873933
    31   1      31.877371136172311      38.685990680109228    0.041748035982270712
    32   1      29.064760866575234      44.719824037610444      5.0444895959864215
    33   1      2.8047502673939242      44.607888222100037    0.021155984511246072
    34   1      1.2891973447362328      47.395104977381649      52.065291252882197
    35   1       5.822425972033078      44.069821919834048    0.063334578420931389
    36   1      30.482696568173569      45.695969177018569      2.3111476810113687
    37   1     0.21970072449740363      50.057956834144257      51.933718093359261
    38   1      1.8109498771477728      52.887922173574538      51.976567947157129
    39   1      2.9580942508815662      48.415106718391662      7.8509233298432628
    40   1       1.663232865910542      52.650973041377163      5.4183221318967973
    41   1      1.8826834822718206      2.4586672343459481      52.022426196192683
    42   1      8.2096983079311965       2.891508489856649      51.913406444581035
    43   1      6.1944410697252366      53.991070410810011      2.7713881410250449
    44   1      2.8819409416666324      5.1375746277660443      5.0780214202723464
    45   1       3.396877405313071      5.3673020758512866    0.046453101233739767
    46   1      4.9747037908996461      8.4903016776347719     0.11316653029863503
    47   1      4.6951714273576561      6.3589220706064822      2.5388437860312951
    48   1      3.4584893418623968      9.1063232059254293      2.6388381076023135
    49   1       2.991160369804156      10.775072504265752      51.841282317826447
    50   1      5.1744407776330021      13.934473605137281      51.995360682201259
    51   1       5.330626570426551      12.020914985108059      2.6683213752949615
    52   1       3.460460452233789      14.583234260505925       2.439708812143659
    53   1      3.5073250883981064      16.181987296573865      51.730504636653265
    54   1      4.5774361517299766      19.315845487905381      51.945833731323482
    55   1       4.954994788319536      17.218228010265122      2.4925200872199986
    56   1      2.7481898058712115      20.419691842010014      2.4898749589989131
    57   1        3.55205647811961       22.24532609861765      52.007461545267859
    58   1      6.3758914360665244      22.269504230553714      51.789469422832035
    59   1      1.6778056087904829       23.18027780305685      2.5889828946524127
    60   1      2.8380201316276303      26.152003891629821       2.810706030966581
    61   1      2.8308046039067145      27.749391410876061      51.817179685794393
    62   1      4.4780029888393589      30.486359172811756      52.036001061273709
    63   1      4.4229054811910773      28.834332595062943      2.2532480793867538
    64   1      3.0315617244205342      31.447960630366435      2.8715373562300424
    65   1      2.9691747766342877      33.456946124806151      51.817501358421922
    66   1        7.40925274451146      36.264446319727867      51.885790841926848
    67   1      3.0418639405028136       37.15507776732003      2.7190282698416466
    68   1       1.279255651476948      39.810243985540332      2.8772591226094359
    69   1      1.2602284969634898      41.772935161994603     0.37500829392459389
    70   1      4.3548341792852341      41.586120481749091     0.20717363410744258
    71   1      4.7190838613724821      47.822319624331307      5.1347386435697269
    72   1      3.1934996126347897       43.19023709903599      2.4764980510710468
    73   1       8.107045389835589      47.614394906398957      4.9301401956829167
    74   1      4.3810834704660113       47.01352017027083     0.33083993120102478
    75   1      4.7367938747486598      45.936964158602763      2.8700308796756837
    76   1      1.5577351533537047      45.676950133151166      7.5239817441906673
    77   1      3.3489692739061092       49.94337726865065      51.936191234763967
    78   1      4.8013456321659049      52.847149995361377      52.003360925360198
    79   1      4.5211401209593669      50.939310588828498      2.4370671682245275
    80   1      3.1015458608333262      53.572005185344864      3.0531565933133398
    81   1      4.8359786298326846      2.3710391481584416     0.19992965994284687
    82   1      6.4249099548797073      3.2449172826620205      2.6749665314043183
    83   1      8.1132973675292899     0.28225228688044307      2.9634301456201002
    84   1      3.1552034926428085      3.7323964255724693      2.7159174269877413
    85   1      6.2732968666763078      3.6486530327578741      49.537500926661515
    86   1      8.0233067779152449      7.9840341390869014     0.16521277804155976
    87   1      7.9221751738912687      6.1638578927060328      2.8181330002384124
    88   1      6.7741225248515793      9.2144319096005987       2.532205923033565
    89   1      6.5101603923236997      11.268863350364651    0.025541255620307211
    90   1      8.0244705314998246      14.052009606447115      51.986185049807048
    91   1      8.3526945465188334      12.143930376634222      2.7461303622117876
    92   1      6.7062987768561184      14.683391299012996      2.4779774791679849
    93   1      6.5000414641425648      16.895551644948856       51.97937762596591
    94   1      7.6707285404105301      19.681704781766765        51.6288384603818
    95   1      8.4591983110824867       17.62136083584074      2.0097620212169751
    96   1       6.418178959728869      20.178967455980715       2.370364839125171
    97   1      4.6991453980695228      23.053809675710696      2.3411650301991851
    98   1      7.4351319900940505      24.587036106992468      51.574325699927293
    99   1      8.0879977486297818        23.4316356846346      2.1171244181558273
   100   1      5.8025824664414944      25.912188176944124      2.0938612162993531
   101   1      6.0430588270589087      27.923866036032056      51.727046125573196
   102   1      8.0373252542234077      30.528296762172584      52.041397605976179
   103   1      7.6709445431062306      28.644939622966699      2.6959675805172498
   104   1      6.2421646448200505      31.094102146475809      2.5653724139671796
   105   1       6.130034576526322        32.9457697097954     0.19230149378940484
   106   1      11.496389840971805      34.413753719567261      49.475962406611202
   107   1      7.8247711728818672       34.32440912936346      2.2244305373492979
   108   1      4.5445026107698352      34.477132174598374      2.3567825247474463
   109   1      6.1900162004391541      38.634419465290911      5.2895988270572518
   110   1      7.7713468124621548      39.732314445865988      2.6154421426609256
   111   1      7.4026982555406216       34.88415042937028      49.426391968555521
   112   1      7.5335262134195302      45.177506112094584      2.6308106920590375
   113   1      8.1314740916060728      41.508015196913782      52.118553762639856
   114   1      11.088131779117743      46.900469918023767      5.3013410908622527
   115   1      9.5065216880392889       47.93035796154026      2.5483854949985645
   116   1       8.415339984580033      50.938909495411444      2.4050192241474644
   117   1      6.7420627765895418      50.131096111908718    0.085552412971757891
   118   1      6.2790081002181068      55.520511994734363      51.818400829870804
   119   1      9.6313704137703926      49.912447598910866      52.024952323490382
   120   1      8.1837982855331539      52.866079657335419      51.758717113021866
   121   1      9.4356143996679673   0.0054970385940990079     0.26638959496527409
   122   1      9.5569043645041436      3.7638429067379082      2.6780301891769551
   123   1      11.185879421039418      1.0933136317305523      2.3339123877878123
   124   1      11.451848963958035      2.9039010563109344      5.5340980295358415
   125   1      9.8069437345982866      5.6652846185947077    0.045490166823470374
   126   1       11.48138464503138      2.8320939039963346      51.915800473120463
   127   1       10.81330456634314      6.6733920896342527      2.7640090441827718
   128   1      9.4189897519798382      9.3937967361578529      2.4360097450023899
   129   1      9.5560624382623409      11.261400803021065      52.038428281985993
   130   1      11.498721971703613      14.121636909127469      51.816161657918556
   131   1      11.581640891586423      11.562081601177924      2.7993653963714551
   132   1      9.8248411306442041      14.404315549029029      2.0598844704991772
   133   1      9.4827256177316563      16.570743642897003      51.911325839926576
   134   1      9.5948752214642159      20.458879287310623      49.152819465836338
   135   1      11.299295618698626      19.554867384423915      51.798863966702825
   136   1      9.9457483905511772      20.253295167856002      2.2855733583482172
   137   1      9.9101832800005614      22.199367557270101      52.029882721210022
   138   1      11.167976948240252      25.326396314695007      51.824279984883589
   139   1      11.239278271742899      23.231652193805928      2.6618492123492792
   140   1      9.3063049269011113       26.14258464871159      2.4201433760609534
   141   1      8.7076935993478788      27.351804915263948      51.983040870397915
   142   1      11.068679464367014      30.249928983495565     0.12062480304678415
   143   1      11.207703126767935       28.16632724960575      2.4500640717028532
   144   1      9.5390653646598764      31.480155475423746      2.3351475102081656
   145   1      9.6975143712395724      33.323650468292598      51.770710877000418
   146   1      12.462368079340949      38.734562502161673     0.38281447990208417
   147   1      13.944041981664071      34.310450283057207      2.2564813145141454
   148   1      11.324488462193854      39.862246770784402      49.360535126277412
   149   1      9.8572982923006389      37.101806252345526      49.404399393614938
   150   1      9.2994473563002078      42.591018496625146      2.8231540612177701
   151   1      12.721820994228894      41.993684097954123       2.010541410240736
   152   1      10.822268346962352      41.348840285654987       51.96646818609414
   153   1      11.234555734754206      46.976966064315235      52.024361003089453
   154   1      9.3831572944762289      44.657312160212562    0.053722628607414405
   155   1      11.005314785605218      44.941334148236251      2.5275680964741563
   156   1      13.711216344641125      49.720838568742387      0.5246809509087681
   157   1      11.188235653576568      53.363508006431239      51.842065318208299
   158   1      12.686525784835121      50.101775340128412      4.9298281483999151
   159   1      9.6086057055482748      53.622357330289127       2.427851182429142
   160   1      14.367961690004435     0.55229845583100279      49.475216925704139
   161   1      14.813853861571118      2.8760941063721521      51.771920978358708
   162   1       14.44886145267758     0.46589036175564097      2.4399793408350572
   163   1      12.703263299885498      3.8553724532328655      2.6485831916740388
   164   1      13.034876002692869      55.508913180008669      52.123267355104204
   165   1      13.030257883184785      5.6644368543423784      52.040537832020455
   166   1       14.98608564121699      6.3832959651062868      2.2223744157248255
   167   1       13.06477211646127      9.0684923088291889      2.2695155987980753
   168   1      12.744739619633524      11.149617611514099     0.11770563803728586
   169   1      14.497373126047465      14.209968779990758     0.33740288912970906
   170   1      14.228462123419286      12.226726146909099      2.4164628545519222
   171   1      12.806429566766024      14.796869157751143      2.6435786745016099
   172   1      12.584053787600864      16.688173872677147    0.051776868652186392
   173   1      14.049631009193758      19.332140769300018      51.836500964932974
   174   1      14.745038703823882      17.547690159576756      2.3511929731353836
   175   1       12.70695086770426      20.388861281169667       2.884598195723227
   176   1      12.913291119966649      22.329072764465927     0.16564916122472528
   177   1      14.364654150946171      24.780605384550572      51.987957176040354
   178   1      14.364756689403299      22.822591055601652      2.4525233191190261
   179   1       12.58358699504176      25.560695724263539       2.717739954724633
   180   1      13.093807661551685      27.896310510525769      52.090438790346823
   181   1      14.055975122926979      30.502214924281539      52.091936384943359
   182   1      14.538652262584103      28.887710319349555      2.8310664858059615
   183   1      12.632943045865433      31.340545278492073      2.6404284399017746
   184   1      12.759243850634386      33.210788130344625       51.96172989050585
   185   1      16.856416839712725      37.470273213783791      49.434685226885158
   186   1      12.716617367446329      36.904051690411649       2.288252373827548
   187   1       14.56917929402338      35.996939956267759       4.939723463844512
   188   1      6.0395418758367967      38.995743297106465      51.966577502567617
   189   1      14.594758019701066      41.516478703558064      5.0644891587576275
   190   1      11.164016149676618      41.752271226891786      5.0212808582176738
   191   1       8.875876266516471      37.088658867318962      2.2044143197255761
   192   1      13.066636995538785      38.784331796623377      4.4900830546636206
   193   1      14.572999805823192      46.620218298961248     0.15809973147678005
   194   1      12.960934594675779      44.043417771071802      52.050201876526444
   195   1      6.1295239198796132      48.326722875819186      2.5752987753976964
   196   1      14.940787198066248       51.29531348385261      2.5886617011293738
   197   1      14.606405524673558      52.456231519245321      51.903648608654002
   198   1      12.858004119774728      47.781795476510403      2.8018698384521801
   199   1      12.296660112641405      53.184665026113713      2.5656776062936086
   200   1      16.327064981978008    0.014413789124688679      52.070341947612164
   201   1      17.875652036056813      3.0680225473085634      0.2508834012354757
   202   1      17.967162362078454      1.2845021100387313      2.8353612216152313
   203   1      15.561272793480766       3.183293928319078       2.779670065216715
   204   1      16.154431896609424      5.5439536549313626      51.982894394964049
   205   1      17.627229153495076      8.6622208721650384      51.471476735600191
   206   1      17.693883272467467      6.9804252611069249      1.6678284411145059
   207   1      14.338976055204038       8.378832096708317      51.550196569509659
   208   1      16.284669210691607       9.693563585847043      2.2939988416654971
   209   1      17.933040638352779       14.00635615157694      51.932235668154576
   210   1      17.334774086928995      12.223570033467158      2.4267968457729112
   211   1      16.388208867352105      14.889790383372119      2.5253870285929079
   212   1      16.009970260179344      17.211247284766149       51.72207791824794
   213   1        17.6141101565326      19.453219373145419      51.875126705777802
   214   1      17.949412751526655      17.742706121588686      2.3172003337467943
   215   1      16.300964078897159      20.607778319762442      2.5580796311515233
   216   1      16.153936059678244      22.249245604897407       51.99363495428323
   217   1      15.540067154355436      26.014616968886269      49.673213175099434
   218   1      17.349856273777469      25.012777848349401      5.4307324871251641
   219   1      15.770243251875348      26.129163021957389      2.3541769556200065
   220   1      16.164699451601599      28.001635901888754      52.024422702733219
   221   1      17.589498173316688      30.789729984264987      51.920692461741233
   222   1      17.679614066564888      28.775783458424165      2.0380422359353609
   223   1      15.814515886561407      31.451596844597855      2.5247318587283174
   224   1      16.018515791841562      33.413142454728963     0.24967179036069048
   225   1      14.818204635429005      36.288514791474512     0.11677349612295146
   226   1       17.13775897208329      34.379662562103569      2.7407767690228129
   227   1      16.286313649726015       37.36682185020311      2.4070123356012116
   228   1      15.911406193630576      42.356096636472678      2.5808635867264376
   229   1      17.783540161203522      41.512276531696344    0.096424108072334522
   230   1      15.053770717310487      39.760178326698906      2.4813753275147583
   231   1      15.940617967660087      44.869652807280488      4.3135061910091297
   232   1      16.186100213757591       44.26170328604281     0.46204552807979493
   233   1      17.575275005782924      47.133137081063403      51.972484345481867
   234   1      18.176649454218136      45.042690352048218      2.5982482967529639
   235   1      16.055395398905691       47.62966647976635      2.5715325353015559
   236   1      16.573275955740336      49.901621553202659     0.09364375818849327
   237   1      17.706730708104669      52.685498421503802      52.055510162831816
   238   1      18.102938559289878      51.153106357339425      2.5151062593575455
   239   1      16.529112366068077      54.037906104180337      2.5012734655135684
   240   1       19.53211459392141    0.065785249733844559     0.24350287572361029
   241   1      20.879851860532472      2.8467728615074095      51.787255418348131
   242   1      20.752276621235687      1.1339360216024494      2.5601575047495246
   243   1      19.230455203360968      4.1764078749975484       2.292392880468761
   244   1      19.226858246928163      5.9164008986018661      51.962649251089218
   245   1       20.98335509664664      8.4644901901505509      51.906073522199698
   246   1      20.940923574443598      6.4124116747266227      2.6823855673440793
   247   1      19.357232051084235      9.4067251081825294      2.3535838302497414
   248   1      18.997935023050974      11.169321904206129      51.858304702824391
   249   1      20.830795781401424      13.873272468534998    0.027550933407766591
   250   1      20.858261884383925      11.883473309921536      2.3075223546347443
   251   1      19.261262697873054      14.674794621549612      2.4694175829888345
   252   1      19.503755332328801      16.565146967036856      51.777787031900672
   253   1      20.388613112516421      19.922313115692376       0.194284530705399
   254   1       20.89909567081061      17.693457112077553      2.4756628832514163
   255   1      18.706893715815831       20.72223853210464      2.7163943434159159
   256   1      19.300959195958331      22.779340717499181      52.069764339053478
   257   1      20.640328788882172       25.26863267300968     0.61066432973763773
   258   1      20.435833951588616      23.223596496455794      2.9678226331987663
   259   1      19.466032403326256      27.721431548683913        51.9306849733806
   260   1       18.82666149469285      25.842783364425056      3.1242959060827551
   261   1      18.872405439518257      33.291915459394339     0.32459562746842263
   262   1      20.735152103288208      30.649128407016928      51.957377538261319
   263   1      19.286787724336648       31.25382133009693      2.4891049815226935
   264   1      17.703389202102347      36.070533627998131      51.875095639312732
   265   1       21.07859032127552      36.123279744842122     0.49420603267924496
   266   1      20.957253267372337      33.903708705918795      2.5531115011528089
   267   1      17.994283297969666      39.867063890886847      2.7346926329939185
   268   1      19.344944605684674      39.211772199442073      52.028097736016981
   269   1      19.065789853469596      42.550279857786485      2.6160576274751057
   270   1      19.245765996645563      36.632455960315539      2.7729899514211045
   271   1      18.967744734684306      38.734573315293076      5.1433258475339239
   272   1      19.340539686684302      44.174970962672433      51.903445750729084
   273   1      20.744180691939636      47.137734645613392      0.2692551396071069
   274   1       21.05088236779094      45.019759297866599      2.3210795267378463
   275   1       19.06922105619633      47.988305518420752      2.7105546690975579
   276   1      19.618089585512308      49.865279692142558        52.0741519181529
   277   1      22.791823424489106      49.806008105304407      52.013465437881685
   278   1      21.194658651167792      50.900735200464048      2.8698616342012602
   279   1      19.623433817748868      53.797300871784572      2.5698945671778004
   280   1      25.882684706145355      0.1156782228156297    0.025540755574393812
   281   1      24.880791407011127      2.7314660542711646      52.090257787380914
   282   1      24.187430864881193      0.9874108076606507      2.7441686234919089
   283   1       22.67063992436276      3.4202183645809625      2.2092269190583438
   284   1      22.547152954246261      5.6306967357589608        52.0871194817896
   285   1       24.13362499057709      8.5349243903013416      52.085989735893541
   286   1      24.016646805642139       6.301071665524292       2.414189285484122
   287   1      22.554119209495152      9.1785115920797509      2.2640392549043802
   288   1      22.296818441250579      11.030788993671077    0.033766632491986637
   289   1      24.023966533108947      13.690544740700096    0.067162074372597858
   290   1      24.130349586059825      12.215851113131462      2.2972294437614051
   291   1      22.534961688242809      14.626724720100199      2.5639345217258587
   292   1      22.476072256808585      16.444837796061485      52.030989451934943
   293   1      26.042413211915825      20.399589564522849      2.5662181861572719
   294   1      24.117038134655701      18.024832218920857      2.4270943213941729
   295   1      22.455098994946354      21.972043361414826      5.3599458421757902
   296   1      22.631910725877816      22.531066170985238    0.052072828780039132
   297   1      24.745891192642723      24.991938079492446     0.72757410169485348
   298   1      24.366467150736092      23.019252107241744      2.8560238875475381
   299   1      20.885627889888497      24.666308073037555      5.5831995513142347
   300   1      22.486811243786274      28.133484632258025     0.22355716759621061
   301   1      22.408047981748425      31.519228284789332      2.3569512673964019
   302   1      22.334843270870348      26.195952360599104      2.9846791970061717
   303   1      20.897502092115445       28.86789777763703      2.5337839979023147
   304   1      24.321966320833308      30.796816299651216      52.020083643330445
   305   1      22.326628648550649      33.264476852732692      52.126658895908214
   306   1      24.196041306768262      34.084614632461516      2.3049067883346135
   307   1      25.877034627350611      36.865121418829119      2.5520982134691272
   308   1      22.224383331320411      38.869753629586207      51.986288614063461
   309   1      24.067150088874008      39.325270647550859      2.8722181193908325
   310   1      24.246280712434395      41.150405650747722      5.3119648466414091
   311   1      22.793650471299394      42.447091849088267      2.7592907285620898
   312   1      22.627238626265385      44.097239537438398     0.13147150126262197
   313   1      24.062345941611316      47.080542725059502       52.07649555291102
   314   1      24.295301451627367      45.107943329942643      2.8016010360078836
   315   1      22.297748388837867      47.799143015307671      2.6393652980719797
   316   1      20.804269263122791      52.829332444125122      52.048136741046022
   317   1      24.062589410967625      52.465219994518037     0.23045697396271436
   318   1      24.078870812967796      50.941134470010738      2.8762125143751436
   319   1      22.556448301499234      53.942946139964619      2.5201104030749564
   320   1      27.918418732244994      2.8145756127046808      51.931631922222536
   321   1      30.855596669127554      2.4136487733545096      51.924148705092875
   322   1      28.406862129108397      53.806532964617226      2.4348983162408038
   323   1       25.68509158407651      3.7953783734853395      2.6049255568779257
   324   1      25.724462634159078      5.6354141964218032      52.086394072050716
   325   1      27.302100404753308      8.1974507811186115      51.846947536156883
   326   1      27.651017543007001      6.0063210427584179      2.6958944657256487
   327   1       25.81147139061699        8.97729586782933      2.4469103367816243
   328   1      25.767452685404646      11.231546811639623      51.894683660462732
   329   1      27.348084678259106      13.331041392645002     0.10389665766055139
   330   1      27.173917595989781      11.891086001906697      2.5173031021778689
   331   1      25.715522997341882      14.743087470246426      2.5332436720027598
   332   1       25.98377533480669      16.869048547773687      51.893443393319409
   333   1       27.05611998068645      19.457724630074146      51.979156312035826
   334   1      27.582447169151145       17.72806889766991      2.2480003081252811
   335   1      22.184340605924415      20.521407597642739      2.4017170850531544
   336   1      25.641763229074762      22.049687527557943    0.038865378117436171
   337   1      26.077192781595709      27.648418641452757      52.094834834406782
   338   1      27.443562572705122      23.079652361312039       2.804477533245906
   339   1      26.244345850496007      25.777005547422842      2.8572503677267735
   340   1      24.236077934692176      28.792378387276049      2.7778903281914542
   341   1      27.254932404820636      30.683793033037855    0.035893349304630895
   342   1      27.282175527763055      28.445703835430994      2.8100464677280117
   343   1      23.861954145107884      30.314491683193584        5.42595577478391
   344   1      26.018654126927583      33.318786396750795      51.903129378775525
   345   1      23.823504633446746      36.147931507698182    0.014830943324218688
   346   1      27.589296407255294      33.958384219486355      2.6191887244109555
   347   1      27.533590909881401      36.245997047943625     0.10851445999888375
   348   1      25.793290002827383      38.973881228736374     0.20862931050947192
   349   1      25.610824257060976      42.480840465164043      49.771409919069725
   350   1      27.226402715645676      41.617280836923456     0.37479218578455625
   351   1      25.399475875929554      42.370606371250098      2.8144628105975156
   352   1      25.490883936388624      44.205884333657146      52.051798265910129
   353   1      27.006398805413337      47.134570985316735      52.076290010876733
   354   1      27.144237040017789      44.961952341869456      2.7017829906134905
   355   1      25.151665905993841      48.201163122850254      2.6424114166041197
   356   1      25.918303234767983      50.146245443241064      52.050013522365852
   357   1      27.570116187598018      52.900658336538122      51.868316394819566
   358   1      27.191667054020733      50.979976189470264      2.4922744660411102
   359   1      25.656010188748468      53.520783330037688      2.4380651025832125