dump/Fe_1050_20/steps_71 (written by ASE) 

1980 	 atoms 
1  atom types
0.0      28.699999999999999  xlo xhi
0.0      28.699999999999999  ylo yhi
0.0      28.699999999999999  zlo zhi


Atoms 

     1   1      0.2124697239585559   0.0048712423970773125      28.686397211791629
     2   1      1.5053952447043797      1.4642600539898589      1.3263362735846163
     3   1      28.678916950034704      2.7444179808599203      28.500453481554192
     4   1      1.5450464506754986      3.9575624460379393      1.1619893277218456
     5   1      0.1423593749111777      5.4754656310345506     0.13093065737261905
     6   1      1.3794034574541458      7.2052303099257999      1.3151977401585435
     7   1    0.028214313577213945       8.664012648169118       28.60739927650862
     8   1      1.3440774063462761      9.9298462823847977      1.3793939965221973
     9   1      28.691462849037865      11.475983183203105     0.12503883506932417
    10   1      1.3851781739674736      12.993096733103402      1.2702538559229979
    11   1      28.576559107523995      14.673642208587586      28.547540120974645
    12   1      1.3079389055245771      16.012841477147582      1.3238770295308202
    13   1      28.643378363065114      17.414829331918753      28.483480487529054
    14   1      1.4938235957046919      18.881546579895062      1.1269337139812128
    15   1      28.542586997756189       20.17912554958011      28.623242175522279
    16   1      1.5897701975532896      21.656326904593747      1.1719367279182171
    17   1       28.69045524856449      22.847183063412388       28.69072898477846
    18   1      1.5190586379127022      24.248419308465596       1.441994570049395
    19   1     0.19368073388667759      26.077693541249054      28.657246286371787
    20   1      2.9174376204929366      28.632853999443814      28.620852813278262
    21   1      4.4209777234040866      1.5157011300133263      1.4086956047406036
    22   1      2.9432578887247929      2.7008280401554101      28.551104710646531
    23   1      4.4983880841707213      4.3069293739490897      1.2523553249617181
    24   1      3.0210768325246793      5.8934327522489847      28.576020560481414
    25   1      4.4107348642469768      7.2406591406503704      1.1879520255649261
    26   1      2.7704210482063787      8.4239933106618476   0.0085971239945138098
    27   1      4.1728275837751907      9.8034411638937726       1.362316536623108
    28   1      2.7238934474297625       11.39080454000241      28.519654507277522
    29   1      4.3496160054953528      12.751424412520281      1.3042747691315197
    30   1      2.7281123976827333      14.615307814843586       28.69115859307853
    31   1      4.3368691593988862      15.865536972627321      1.3473133932540462
    32   1      2.8549866550086351      17.271918919298159      28.598691067067879
    33   1      4.0849577333708016      18.643951822356943      1.2495560347108261
    34   1      3.0153427315177437      20.171346250838056      28.435419194374539
    35   1      3.0655802515127828      22.920615212324694      2.6628366942144339
    36   1      2.9968807384462961      23.121132062777598    0.022410467146028169
    37   1      4.4046683139563498      24.400686816472891      1.5414500867428376
    38   1      2.8135349982094362       25.76488548827848    0.080505441692082388
    39   1      4.3800377629263414      27.466153266533748      1.3414121346073551
    40   1      5.7093313679051283     0.10447697718793919      28.481968293848755
    41   1      7.1169947979675223      1.3491338209469959      1.2262836214786708
    42   1      5.8514149243147164      2.8075660105695301    0.076672549905811266
    43   1        7.17483778936439      4.6074565109465349      1.2323025694464607
    44   1      5.8583070143303644      5.9622198544268823      28.198874479219374
    45   1      7.2354551126389373      7.1620865555881288      1.2202259718983899
    46   1      5.8430362118688928      8.7298450649728263      28.537208355331007
    47   1      7.1935722226706069      10.026813376816962      1.2868640893149161
    48   1       5.688789517702622       11.69596656235157      28.519112214732036
    49   1       7.212875986548414      12.866143994127803      1.3418973237540408
    50   1       5.630397573654057      14.330650112672254      28.693896416539179
    51   1      7.3932276083935502      15.572051342859558       1.444339304754795
    52   1      5.6683802241514591      16.990270567898765      28.602158854655471
    53   1      7.1895981001118692      18.529134875567365      1.3309003222155751
    54   1      7.5083336287713554      21.408981966775251      1.1975098108064099
    55   1      4.4080181666228038      21.471396976375331      1.2686868048186497
    56   1      7.0314610749698376      24.415867505280701      1.3279843601026413
    57   1      5.8083340508717258      26.179532736579663      28.595988264751199
    58   1      7.1942110660410075       27.39110990328323      1.4394370625221666
    59   1      8.7670251678564686       28.59721271956839      28.436276804413225
    60   1       11.37251488049376      2.8039591217932052       2.904829705378996
    61   1      8.7318003741361174      2.8231912507130805     0.10393438198888146
    62   1      10.144568360154983       4.296896743824246      1.4247221552035401
    63   1      8.7543404075400026      5.7099615572142248      28.515033242914029
    64   1      10.057364004179229      7.3455236082195272      1.3572746442808923
    65   1      8.6792423713937499      8.7438762310388736      28.478201657365762
    66   1      10.042766544782548      10.119974109552334      1.3364340623342403
    67   1      8.6672599571495645      11.319339286623689      28.599560125631172
    68   1      9.9501238165429502      12.727774958826638      1.2735538275054861
    69   1      8.5432137911922936      14.167005247239887       28.60171811956204
    70   1      10.087766360315216      15.784641807651735      1.4548944638323518
    71   1      8.5105770092266102      17.036750071233822      28.512909475059718
    72   1      9.8943072535406884      18.547640458975096      1.3282842679796547
    73   1      7.2236202508169862      21.692757987309903      27.128210049339891
    74   1      10.084978171267457      21.568164258717712      1.4445963296340663
    75   1      8.6611396505915934      22.917929384519507      28.695285798483813
    76   1      8.5715313753023885      25.877278683628063    0.034623286328678594
    77   1      9.9842303314284724      27.135633564085236      1.3680957925924866
    78   1      8.4681287057286116      25.859298905065899      2.9604619862467074
    79   1      12.679853163775428      1.4828042548229969      1.4798315564543147
    80   1      11.366554279723477      2.8378031648313251    0.038165743748027246
    81   1      10.131885611825558      1.5483850309651663      27.219201237591665
    82   1      12.849513702992418      4.3470745429615265      1.5018160899952591
    83   1      11.541376868004411      5.8435538291308617      28.674130086409324
    84   1       12.79558257845355      7.3459030546233226      1.4300673477914974
    85   1      11.619926662251343      8.4917657109387186      28.498735709510644
    86   1      12.907722153342155      10.013333156827523      1.3958066504460127
    87   1      11.529750993372037      11.299813050842678      28.491573556220619
    88   1      12.818899440050233      12.941294379835352      1.4821006978395186
    89   1      11.574902274456829       14.33062443426812      28.641099066207801
    90   1      12.999570901231939      15.668535255675103      1.4633017016132381
    91   1       11.60600470180629      17.293451993167324      28.587097461449577
    92   1      12.733897899527951       18.77719156405114      1.3915945971288235
    93   1      12.864397590701257      21.688152189926118      1.3580479967368786
    94   1       14.15173073652055      22.995552326832144      28.681726194409553
    95   1      9.9467495462393458      24.370065251285133      1.4467660087331506
    96   1      14.268027506408297       25.93932599594698      2.9355172437004082
    97   1      14.059869646452864      28.623539462223956      28.661456588354923
    98   1      11.297897377258842      28.656061852915894      2.9906489248949213
    99   1        14.4771586448273      2.9692311200384047     0.13703750542065324
   100   1      12.918355691424592      4.4611594119058493      27.353375164914357
   101   1      15.776093100785838      1.5735616728505564      27.247592167045486
   102   1      15.801318422560676      4.3069637851820755      1.6249384406033756
   103   1      14.512693054690821      5.8660778327754066    0.075109029683096615
   104   1      16.090666292867532      7.0670925367723889      1.5906704564486749
   105   1      14.532219167940172      8.4299959698258373     0.25971491275424802
   106   1      16.038108202489262      10.153924680636804      1.5478916376369753
   107   1      14.467208417394337      11.376351461688667     0.16051320750723325
   108   1      15.946827230000611      13.015453312738712      1.4544859678117741
   109   1      14.329876675575655      14.394306479886064   0.0085786134994578003
   110   1      15.750627011827888      15.783458870596608       1.375846857430598
   111   1      14.201084665592139      17.305923335949846    0.046030002704708348
   112   1      14.425180123875602      20.230960647397502    0.039819840359677873
   113   1      15.760682186132065      21.419600116211576      1.4129206645670827
   114   1      12.731863348646133      24.647849794864751      1.5950340754177874
   115   1      15.548761833802898      24.452879009187086       1.346112931125355
   116   1      14.338912099125976      25.762876951237452    0.060910980180801731
   117   1      15.800947556449291       27.30850555175412      1.5106557712039153
   118   1      17.224256576596545    0.029812969817728029       28.69618787513922
   119   1      17.183811109406253      2.8016051718586699      2.8001007992894063
   120   1      17.120527130167531      2.7599908422204185    0.072973513970532713
   121   1      18.642690306524731      4.0196357406038432      4.2205355437927894
   122   1      17.147037644821879      5.5533168548441667    0.029930302115383275
   123   1       18.56902825253027      7.1030897576641152      1.7040630624383541
   124   1      17.276130588761781      8.4445595094702064      28.587593403513768
   125   1      18.704804561225021      10.002494996340134      1.4085347331044205
   126   1      17.271587067145028      11.511791431449019      28.654805156084439
   127   1      18.617750436489299      12.929890850505799      1.4408265430184202
   128   1      17.293375784790694      14.444102240941676     0.13822356023971455
   129   1      18.557565156504303      15.889117553809969      1.5231737856997583
   130   1      17.161564790418961      17.227846041511771     0.10440637962808517
   131   1      18.772352774064245      18.707066807214492      1.5239164272324288
   132   1      15.737172523958279      18.781643960447862      1.4699087855178503
   133   1      18.762006633424257      21.460090228354144      1.4308997698805686
   134   1      17.074218073096567      22.916411444557024     0.18998566803039704
   135   1       18.77671442793617      24.497767287649761      1.3863434678907194
   136   1      17.250715394131319      26.019518469090059    0.074029666233695765
   137   1      18.696852971000691      27.058219925999872      1.5661289996033467
   138   1      20.175529738622345      28.477793750286057    0.031884320226288405
   139   1      21.403267356444754      1.4063618974922516       1.467473542531456
   140   1       20.08421826244459      2.7217354270081149     0.14432223350091811
   141   1       21.48276943219178      4.2251182032665779      1.3836045558139753
   142   1      19.958951020612382      5.5230672683704727     0.11681243558667795
   143   1      21.530827094154393      7.1393384253900081      1.4513966561942087
   144   1      19.945177455488189      8.3194004523478924     0.14964602975711611
   145   1      21.465173883456444      10.077830779855242      1.4552652848418914
   146   1      20.187879180269519      11.610687816632478    0.044503115823908979
   147   1      21.552747668845765      12.932662685500041      1.6659500466595432
   148   1      20.121266682882169      14.490336571360654    0.095943371883083606
   149   1      21.556406513472915      15.939396120172283      1.4084051133788766
   150   1      20.012947981250058      17.437939585098693    0.083333949101904614
   151   1      21.551818648984803       18.76403551412572      1.2204385058856253
   152   1       20.00454454285417       20.10136809383911      0.0970320048058739
   153   1      21.733816233191948      21.689938565135513      1.5445095734178591
   154   1      20.063345141737429      23.010068554821292    0.080519633088374468
   155   1      21.427066684932544       24.30046294012768      1.4255964055340875
   156   1      20.160875444439505      25.867303450272892      28.666133418120523
   157   1      21.529775262118925      27.325799865473343      1.6936849179008502
   158   1      22.994433677482153   0.0024829607149058643     0.10014992774665635
   159   1      24.370672649296015      1.6092958226728793       1.382253174957669
   160   1      22.936443604623879      2.8130376992884645      28.641696781624326
   161   1      24.368494474349362      4.4409872785250126      1.3544575397799226
   162   1      22.934581997643221      5.8072552352289364     0.04152156424815992
   163   1      24.420443583587183      7.1640988329082855      1.3623765040418234
   164   1      22.845563204559802      8.7445384339947498      28.621042711445199
   165   1        24.4024994565704       9.996695283030677      1.4642711077223336
   166   1      22.810822411036959      11.550418079255072    0.061250272185372975
   167   1      24.561697441638092      12.722882349645817      1.6004364563012916
   168   1      22.830831973995171      14.289192009626245   0.0062994289954531168
   169   1      25.809860542439985      14.506053960255423      2.6993239428337215
   170   1      24.179754444422585      15.946574626561469      1.4416371069148668
   171   1      24.180798386759456      18.859308931896596      1.2251482825438751
   172   1      22.822893642971845      20.383614914309177       28.55412087880363
   173   1      24.326438434681219      21.651703646580199      1.2410312682338265
   174   1      22.735002480768664      22.908537486244896      28.542562068297972
   175   1      24.172975809302539       24.54152265686665      1.0092998870187997
   176   1      22.730167007339045      25.957448324260387    0.083734039044679742
   177   1      24.420202217886814      27.333720737129617      1.4769013567338789
   178   1      25.823717158945563      28.674136184740821    0.042178731353510496
   179   1      27.261921079034462      1.4469254115165184      1.3016803510049051
   180   1      25.842178663446788      2.9582092576521402    0.036822707073974996
   181   1      27.256079719231948      4.2611845152516272      1.2476527281022296
   182   1      25.955080589159483      5.8322669697709362    0.012848883517983727
   183   1      27.356909506427581      7.3255720155909652      1.5407563432446987
   184   1      24.194257562337519      10.109346813402649      27.227567612080058
   185   1      25.807261182823385      8.7014880012685456    0.041020151067777941
   186   1       25.99047782133874       11.45990317423707     0.09982644667438767
   187   1      27.441864366795627      13.150895350975222      1.4178762410614341
   188   1      25.797685866377527       14.46367104479706      28.658177477650604
   189   1      27.149713793101363      15.911535078807166      1.4336787282073598
   190   1      25.800819346919329      17.465418521657657    0.011040821240658272
   191   1      27.204093654394036      18.655229509723288      1.5047477928574045
   192   1      25.931643759930822      20.090714607953664    0.065595389123166051
   193   1      27.352724803744948      21.657914529474876      1.4661888668761873
   194   1      25.767093337017897      22.935971735464442      28.582588729149052
   195   1      27.321369761944354      24.448571253106973      1.3311791421944694
   196   1      25.914758776432123      25.927216628566018    0.014898033647637018
   197   1      27.274066621449666      27.389599060449619      1.3818544296067672
   198   1     0.11673190021202819    0.042221370658330815      2.8029882508054005
   199   1      1.3612648822967106      1.4450177135476572      4.0953980729435706
   200   1      28.534335432473529      2.9587732645508091      2.8613707041880043
   201   1      1.2841740160950728      4.2599097138124327      4.1695608331681235
   202   1     0.03199068660679865       5.716498725388842      2.7345380101338583
   203   1      1.3536800646954144      7.1070633106141239      4.3822675736059828
   204   1    0.067020060994094174      8.4450020715671954       2.980230626751041
   205   1      1.6394658623616361      9.8169889438758151      4.2373555847725424
   206   1     0.01691590671037007      11.470583452421376      2.9815223634419783
   207   1      1.3696996587186634      13.020445381719394       4.204762079475957
   208   1     0.16064179438303758      14.628379847242805      2.7794552869251672
   209   1      1.5296797136152587      15.867910233180067      4.4141076965346189
   210   1   0.0034439831519319903       17.25646408397445      2.8093337875011923
   211   1      1.4335777489093187      19.016307197821749      4.2886735266374112
   212   1    0.060035486046651106      20.192261523102029      2.7407872116260479
   213   1      1.6237225381358609      21.526589151935994      4.3175477703868532
   214   1    0.052801573784064915      22.944181624161121      2.9062817638341576
   215   1      2.8713374068422559      25.866022018547962         3.0763808314965
   216   1     0.10747595361670115      25.931042145091482      2.7553573570785042
   217   1      1.4384279984735719      27.242803567801413      4.2417964199618128
   218   1      2.9891310761084404     0.14930880353033452      2.8924123917817499
   219   1       4.522365075682476      1.4559976478438561      4.3247698517281368
   220   1      3.0711384235858308      2.8913403180976656      2.6638516998669606
   221   1      4.4657344976191675      4.2114528596828684      4.2055929690416924
   222   1      2.6981849128001607       5.589647900490708      2.7888171631703238
   223   1      4.4107011585514302      6.8711487949382359      4.2355915512001188
   224   1      3.0867105079369801      8.1844906736707141      2.7353085599842188
   225   1        4.33178662057641      9.8391366288842672      4.0638594424571393
   226   1      2.8358381210840222      11.475393367900066      2.7757565038545731
   227   1      4.4888175352417194      13.051516205169303      4.2307139438720673
   228   1       2.931865359023742        14.4220687410266      2.7390981271706889
   229   1      4.3041157593651418      15.745062555509934      4.1106751360989557
   230   1      2.7768083364642973      17.342717228955976      2.8750791811087097
   231   1      4.4135963852739595      18.492739256011603       4.333357612662005
   232   1      2.9299244698069731       20.30412263086205      2.8730604218857447
   233   1       4.344101415794043      21.571036757910441      4.1768747670592514
   234   1      1.4903437458151083      24.407994920782226      4.2737981844295989
   235   1      4.4250305959853264      24.272046400648488      4.1260610606323178
   236   1      1.6388134136286454      27.267527576502186      1.5754574723481141
   237   1      4.3880064680528257      27.264613767786599      4.4591273069912267
   238   1      5.7510558298715857     0.14358893654831503      2.7851022238705343
   239   1      7.0891717912014309       1.410201090689077      4.2983939988916022
   240   1      5.8829079857193207      2.8727780477418157      2.6153231335943699
   241   1      7.4698427547234569      4.2501917849954083      4.3513489569277661
   242   1      5.9084479613508876      5.6928295758367478      2.7031094572321637
   243   1       7.124896392322154        7.11943315890381      4.0863479719847495
   244   1      5.8018232735982798      8.4986908819551186      2.6225402683980952
   245   1      7.2073564291730587      9.8727197844476731      3.9495593153970887
   246   1      5.6427744463021181      11.350257872438958      2.6935950213323863
   247   1       7.018971267577192      12.845539187630239       4.233081185276844
   248   1       5.642579746021128      14.389417911110908      2.8001052001346687
   249   1        7.29094657609987      15.653277747418148      4.0358312487967609
   250   1      5.7642214201653594      17.272112188800115      2.7397261928131695
   251   1      7.0630873761118425      18.578103747287898      4.2506977132423387
   252   1      5.7404439662136628      19.840281801457163      2.5564363313062808
   253   1      7.0267043575174002      21.407005678995187      4.1780884712885928
   254   1      5.8088475994427524      22.658964087317667      2.6221302238729307
   255   1      6.8523149387345921      24.350982092587078      4.0784238332452336
   256   1      5.8366441100460502      26.082971799181969      2.9837334301952181
   257   1      7.2665191792321187      27.322448401088597       4.290530750574713
   258   1      8.4689763307608281    0.041674614404610399       3.045183175242316
   259   1       9.859971170034223      1.5911831773877798       4.326280626404845
   260   1      8.6541137242333299      2.8812802884580746      2.7026596568211398
   261   1       9.854341976813231      4.2484293305164442      4.3339700002273833
   262   1      8.5530641345553953      5.8551479960833932      2.7800944950649296
   263   1      9.8647624747320677      7.2851336601241101      4.2985755074987368
   264   1      8.6057764173745497      8.5593787630810869      2.7259247759255896
   265   1      9.8742087694704068      10.074153893945029      4.5331074261550581
   266   1      8.6427197409755507      11.434257918526116      3.0571046623931442
   267   1      9.9740495607235964      13.050459774813374      4.4909395578487379
   268   1      8.6402517002592294       14.22309178373864      2.7902691910072468
   269   1      9.9617363767740201      15.797414219549403      4.3413748808855734
   270   1       8.509491047587785      17.206456676230534      2.8568874575067174
   271   1      9.8891829638086755      18.633726138154067      4.4394156034806125
   272   1      8.4978432350164201      20.126913583045845      2.8939099308834488
   273   1      9.8557796452484006      21.486591418201073      4.3607900768981089
   274   1      8.3651129585620154      23.000656896224864      2.8885151428381062
   275   1      10.014651950845781      24.299244081894891      4.2681000661369488
   276   1      9.8332458287874296      27.279755954062388      4.3972440902606591
   277   1      9.9035651226861532       1.326440599500232      1.4073784377204215
   278   1      12.945801498145013       1.446275200152616      4.2238030046259869
   279   1      12.733510730426071      4.0545735295057215      4.1786637450988309
   280   1       11.33242747589162      5.7404344801384708      2.6258447630834216
   281   1      12.754384895539877      7.1202100789284861      4.2745889504101209
   282   1      11.476771244579803      8.6784041533787857      2.8175967609034149
   283   1       13.06290127536699      10.186065151240156      4.1791417947000706
   284   1        11.2806540642935      11.362723952093257      2.8465782232766528
   285   1      12.899990137408782      12.888485271963315      4.3736492315010516
   286   1      11.408545152417302      14.234322089224245      2.8099154284187078
   287   1      12.767129902405376      15.868393865740156      4.1869496408403206
   288   1      11.448086385797737      17.354832540348827       2.813377762259675
   289   1      12.880997352103819      18.572468218697033      4.3671082047475025
   290   1      11.302210464624059       19.72482531558401      2.9546946116253934
   291   1      12.759869903449907      21.401130418978081      4.4030676422277635
   292   1      11.535300585602963       23.01327257344515      2.9764404518201175
   293   1      12.709523123752746       24.44163753187151      4.4595475298330793
   294   1      11.357358326244769       25.81772547794402      2.8148602317726503
   295   1      12.844934612721975       27.46322410067781      4.2845600555247199
   296   1      14.313261117310038      28.631563496076328      2.8096838104971638
   297   1      15.857086504659387      1.2515750512065311      4.1893521465632215
   298   1      14.441118939842749      2.6407154432382742        2.84635015081825
   299   1      15.803615334399947      4.3353621323328158      4.2467072267340011
   300   1      14.126302378879972      5.7117379459472586       3.069919343863539
   301   1      15.723195076852583      6.9603115155801873      4.3756488770785289
   302   1      14.319450174411834      8.5657590132539685      2.7415069847863709
   303   1      15.877175826054632      9.9461995314835576      4.3773957309493392
   304   1      14.379020308498943      11.479447777954336      2.7074563879574938
   305   1        15.7718611980884      12.758286546816619      4.3636062330594285
   306   1      14.301708603797076      14.156666426676731      2.8339590111288415
   307   1      15.677060689743087      15.726950317524967      4.2542460846361321
   308   1      14.293662536250327      17.565784423475655      2.5872795463023177
   309   1      15.638744430701113      18.634630625797666      4.3836436979108475
   310   1      14.162770686841565      20.051593422897046      2.9895266525116888
   311   1      15.778644094849088       21.57030917966603      4.3262459483977844
   312   1      14.201436181451971      23.018828972029649      3.0756395549384785
   313   1       15.70662389013185      24.357432316078562      4.2668504410888612
   314   1      12.927242299547439      27.344756347114224      1.6242203734566367
   315   1       15.75491703451695      27.430737307156477      4.0567116790582309
   316   1        18.5428653340607       1.306351122961507       1.511968544397144
   317   1      20.088471057291027      2.9046291441834144      5.8545027313973517
   318   1      15.785611741475025      1.3895250880426704      1.4155035049829394
   319   1       17.20981671099856      2.7740725669553745      5.7784669665951469
   320   1      18.430341286536528      4.2514519321725279      1.5374900225783898
   321   1      18.771522617198894       7.264732466220476      4.3685544424076008
   322   1      17.313193424232065      8.6965889682727759      3.0203801000751942
   323   1      18.714528052063454      9.9935856106457699      4.4856672610966477
   324   1      17.319658294996721      11.508416162842343      2.8670996526989021
   325   1      18.688159746013749      13.044586997130763      4.3730354952587591
   326   1      17.157129054799668      14.239374071764386      2.9841297527970903
   327   1      18.408220030581344      15.981399040007469      4.4356527847962886
   328   1      17.115650039062054      17.314219063402756        3.04690619874955
   329   1      18.580379851674323      18.658306165361999      4.2099919746093182
   330   1      17.094755553173187      20.167298068503722      3.0921902013947613
   331   1      18.727878110658089      21.550935361871602      4.4110267143579325
   332   1       17.09994370185073      22.987700320890472      2.9258550513547532
   333   1      18.591899837588816       24.45274058468112      4.3753098757970728
   334   1      17.136536574146387      25.793698374706633      2.8779234347166591
   335   1      18.381665409926079      27.247369958498549      4.4701431877551752
   336   1      20.248196845419002    0.083254371330019866      2.9868397877129924
   337   1      21.472922905473933      1.4117975370072817      4.3861047826964761
   338   1      20.147559621623387      2.7273875162407206      2.7634240372915206
   339   1      21.474227606936239      4.4130509677684397      4.2023526375493363
   340   1      20.043827688833556      5.8708108299515267      2.8796931625587896
   341   1       21.71493356136261      7.1063645616618318      4.3959575952384489
   342   1      20.108131753867987      8.6380724545652665      2.9616701288853213
   343   1      21.550398005486304      9.9148225222350721      4.2410105889162981
   344   1      20.220033531711451      11.508374562371257       2.998957588843667
   345   1      21.634067925934115      13.062688467636313      4.3992755962665235
   346   1      20.047494634723321        14.4320420919969      3.0262288093100516
   347   1      21.936239510882139      15.955517677218417      4.1889897182408973
   348   1       20.14799130541628      17.342407601667041      3.0565324260849156
   349   1      21.741985913183154      18.694527369840639      4.2638220587703035
   350   1      19.995457232236372       19.98402047882848      2.9287072676928076
   351   1       21.47680308522737      21.810362256058148      4.3124927484033204
   352   1      19.938109637945516      22.950748931382705      2.9247427044561403
   353   1      21.685335924202807      24.622461094142423      4.3572147182654719
   354   1      20.218587646487261      25.844395137619568      2.8995434428279516
   355   1       21.56160654527347       27.44514226476484      4.3827860805846877
   356   1      23.184607687375145      28.671379968526953      2.8458935698918486
   357   1      24.393285225238433       1.375754852716238      4.2560911249845228
   358   1      22.840954346432987      2.8476871168049915      2.8965813231230313
   359   1      24.395692079343817      4.1635898936160567      4.2618252210417999