dump/Fe_1050_20/steps_51 (written by ASE) 

1980 	 atoms 
1  atom types
0.0      28.699999999999999  xlo xhi
0.0      28.699999999999999  ylo yhi
0.0      28.699999999999999  zlo zhi


Atoms 

     1   1      28.634653179419576      28.590536764178921      28.626903007410874
     2   1      1.2596368511562335      1.3772656398569083      1.2917863076880729
     3   1       28.51165334591353       2.942570360361922    0.040202349115054443
     4   1      1.4092000250853627      4.2976030099500768      1.3283838788640301
     5   1     0.14165838916731019      5.6918024272923917     0.04077510039294345
     6   1      1.5069864829869399      7.1639049270829052      1.4475038585682793
     7   1      0.1622081244026167      8.5503798994104692    0.053298272331267042
     8   1      1.6210182168773037      10.242121101530055      1.4263808304282535
     9   1      28.650440214813358      11.330820102872007      28.677984408343143
    10   1      1.2611115816994709      12.808223136457405      1.5060453377065059
    11   1     0.05355337688239481      14.277869483271491     0.12057947507429397
    12   1      1.4257111409431684      15.662910037701444       1.336969085984981
    13   1    0.022780546087654938      17.113704913220623     0.14614662192817598
    14   1      1.3561370705415829      18.665278479496326      1.2933289953244651
    15   1      28.510702771870854      20.210496831947083    0.026522133297078199
    16   1      1.2832768924849134      21.548410427759208      1.5167655179734998
    17   1     0.15297557013181254      23.013390302504032      28.548171171181629
    18   1      1.3924628224971132      24.186519570488503      1.5168403505951227
    19   1     0.30124318653530918      25.579196129113623      28.542177685114069
    20   1      2.7620853664429683     0.06752557845947138      28.540729834365269
    21   1      4.2600271521939064      1.4995974413081741      1.5040860347435672
    22   1      3.0203710787549758        2.78924948307455      28.614507458968777
    23   1      4.2535310744736359      4.2920591066345892      1.5318837942111134
    24   1      2.9327752270415068      5.5668775162458042       28.63743340032093
    25   1      4.1853964477446217      7.0873659876744082      1.4296472206479278
    26   1      2.9031856360582533      8.6871174643455511     0.12724223512085461
    27   1      4.2521011676097027      10.205218377640186       1.583346160541258
    28   1      3.1418934837538033      11.411882563142125    0.036713706047623827
    29   1      4.5771399097222609      13.017283526062391      1.4272063947842293
    30   1      2.8917023644751718      14.406165112668855      28.577198873038558
    31   1      4.2634003204500628      15.891451951462882      1.4149789063958003
    32   1      2.9244747613098387      17.173768585129558    0.089660621741040794
    33   1      4.3812225143661072      18.673578995514429      1.4951826622294333
    34   1      3.1713718148396941       20.19653186635114    0.078306417955991442
    35   1      3.1843459490927861      22.716403190532041      2.8094956385911924
    36   1      2.8885543352787142      22.730895947425836      28.696044484867958
    37   1      4.2075076272416299      24.292340526174307      1.4859865533756085
    38   1      2.8921806272424755      25.703851849184002      28.559855631265311
    39   1      4.2958319738735824      27.167651975492831      1.1777023564749229
    40   1      5.7820946980039931      28.652061921290468    0.085633812004778168
    41   1      7.1741595790288271      1.2811372974935469      1.2090817213792311
    42   1        5.74590788785373      2.7635167475335614      28.538026181240927
    43   1      7.1578212207623633      4.1889100896017606      1.4091889416939229
    44   1      5.7057000806671905      5.6956200781759785      28.664809536387722
    45   1      6.9922707771515373      7.2887037718838492      1.4779490230619095
    46   1      5.7501158622020663      8.6560584564490934      28.544765121023147
    47   1      7.0269487149783902      10.029157318926545      1.4821548248536829
    48   1       5.786794000764127      11.366807449439996      28.611483215025093
    49   1      7.1546098268581364      12.949366945903884      1.5529175335070691
    50   1      5.9300993611810835      14.355889430241023      28.698669987687712
    51   1      7.1653697002605705      16.178397343389214      1.2557589990310238
    52   1       5.636678533559552      17.305087638950031      28.689954635495813
    53   1      7.0894741072165974      18.985637805519669      1.5506788479976747
    54   1      7.2510401054224651      21.574303952227375       1.315877541761119
    55   1      5.7065979409681553      22.772253199131505    0.081014085522156096
    56   1      7.0602743305395217      24.268265529045916      1.6031845993926588
    57   1      5.7711033181898834      25.607581937400877      28.605293623580692
    58   1      7.2627285424370633      27.019340552842987      1.2192619396802129
    59   1      8.6355391670238202       28.63563239071178    0.029912249510346187
    60   1      11.353126100698555      2.8523132889307798      3.0801772265645875
    61   1       8.674307175485092      2.7448989247615967      28.480319097499834
    62   1      10.126285766918791      4.3833193638578924      1.3870716551390496
    63   1      8.4750133477749667      5.7773204631292945    0.079310988635756974
    64   1      9.9810249458689881      7.2244204937335246      1.2748445598147105
    65   1      8.3930508449795855      8.5571606839700891      28.648100846618394
    66   1      10.191896888288264      9.9844744332481454      1.2571935207545957
    67   1      8.6728808794123218      11.539842954817313    0.012406143118096237
    68   1      10.147465341197012      12.907715332713764        1.38612120114991
    69   1      8.5764579743370568      14.485501921128817      28.695329768784376
    70   1      10.153991417072723      15.714117691438808      1.5902162823585619
    71   1      8.6426883458078603      17.242144053747037      28.697306782621713
    72   1      10.070069439331581      18.709389820732756      1.5673821016020602
    73   1      8.6170629121119688       20.06411689614303     0.11354036733304146
    74   1      10.158421974971166      21.501676313585445      1.3698509678907038
    75   1       8.739436744334002      23.020859942924531       28.61572893989575
    76   1      8.8425801815631111      25.331232450385002    0.010669899922481815
    77   1      9.9991015259102198      27.345873525630882      1.3673952115221708
    78   1      8.6188690202975646      25.844605466722282      2.7789266497399687
    79   1      12.743986479358741      1.7800363199378575      1.5391277970337909
    80   1      13.123474840022414      1.4394531156008177      27.276055374024072
    81   1        11.3750394137207      2.8747677194634655       28.64188761498993
    82   1      12.679141770547997       4.257830019701248      1.4352911625828935
    83   1      11.443282482719466      5.6868881169124252    0.045564250665654442
    84   1      12.882030484890539      7.1240947673338058      1.4252592382859004
    85   1      11.456997603009775      8.4389459225803751    0.090020947131927043
    86   1      12.887383588271199      9.9345061530246515      1.2224290549220305
    87   1      11.582437092573217      11.458993560444592    0.070163516484774271
    88   1      13.015876420223103      12.647586372828377      1.2535152479664693
    89   1      11.418177188892944      14.480245127022195     0.14605942943444469
    90   1      12.867508249633364       15.85280801947672      1.5757468870568452
    91   1      11.386853376724508      17.258679106571048    0.041959432313365005
    92   1      12.954500650278341      18.641197509887999      1.4219744780352364
    93   1      11.413960874329927      19.963620627017438      28.670503567668696
    94   1       12.95779201828174      21.482833484576378      1.3971897875262702
    95   1      10.132215068010845      24.358127820633928      1.4816096750227306
    96   1      14.308821256885903      25.906145695112716      2.8647121642194406
    97   1       14.26315870890167     0.04620214090976589      28.661871589574787
    98   1      11.230406444031471     0.13049611306239334      2.7275616178007351
    99   1      14.218855794802817      2.9669848699794157   0.0010725928594979462
   100   1      12.882533192040272      4.3498685125803602      27.324396336899838
   101   1      15.629321138769518      1.4371109048177246      27.316714829278784
   102   1      15.830019673551574      4.0517792317001495      1.5319517748780882
   103   1      14.242895422668029      5.7473418326076784     0.13798049931914416
   104   1      15.827310883796596       7.102489752184078      1.5102068528419759
   105   1      14.398536189259135      8.3342632736377027   0.0082194956655939622
   106   1      15.728105727114176      9.9990007460026256      1.2810476938272459
   107   1      14.240623253451771      11.356722848536974       28.66294108793258
   108   1      15.597156860635708      12.648929696574413      1.4253924962722275
   109   1      14.306562819342235      14.246589580421663    0.063579713277351874
   110   1      15.769148253243193      15.569743259180518      1.5010604850713665
   111   1       14.19741739697111      17.164081289548292    0.094787953096010916
   112   1      14.512912512992092      19.833741888617915    0.016506453413308021
   113   1      15.669313922974894      21.531556876790642      1.3997536506136838
   114   1      14.413013233816319      23.050669998055767      28.601331533777568
   115   1      15.847348789450681      24.242742818797389      1.5733043733697407
   116   1      14.151335359866659      25.888075876721313    0.078707698436960641
   117   1      15.717543064570146      27.317453730909186       1.512544488956747
   118   1      17.107978812903362    0.045691217127750726     0.01282501799106511
   119   1      18.697839872684238      1.3961483144726674      1.5311254819850759
   120   1      17.280863780414595      3.0068492653715029      28.562054047617483
   121   1       18.59470674627137      4.3337381505482648      1.5581317551573648
   122   1      17.136564375561296      5.7330256873977463    0.079350088614785305
   123   1      18.721835004228105      7.2166332796993711      1.5209050984719155
   124   1      17.265669371585709      8.6081424029881841     0.09940627838022903
   125   1      18.743667966469175      9.8225294196592472      1.4689308716454099
   126   1      17.243182367628386      11.255373324788199   0.0028888277473583918
   127   1      18.604269554396971      12.837101931291551      1.3898023207612937
   128   1      17.045228952116666        14.3058323175169      28.698891892851826
   129   1      18.621046766792926      15.585028579234665      1.5523695584396249
   130   1      17.299294146221463      17.102170405556596      28.590340630537966
   131   1      18.638055788493919      18.483989250521933      1.5061518052472471
   132   1      15.800291765735173      18.510076902096117      1.4019214204259796
   133   1      18.636414933340134      21.500093262044672      1.5322949417625871
   134   1      17.133554315183133      22.957122651297929     0.20841816597088608
   135   1      18.583304597548629      24.264706320935812      1.6531036482200872
   136   1      17.054218781220065      25.676029215974015     0.25517789872837982
   137   1      18.535517621566491       27.25450014994713      1.5817385856938704
   138   1      20.039054467176282    0.080925816907267675    0.021505831879733251
   139   1      21.628973433968664      1.6197799811778051       1.566573086539744
   140   1       20.05487309122249      2.9220782492327135     0.12094485390225593
   141   1      21.411206334522873      4.3855389023399871      1.3829771691561983
   142   1      20.176537019971487      5.7404714982279303    0.035066636381770808
   143   1      21.613110448812044      7.2930495371130695      1.5666541980976718
   144   1      20.240378374322237      8.6388722358983046    0.050710751943086017
   145   1      21.616848121736531      10.058459412406693        1.55970499218829
   146   1      20.064353827737001       11.28781853585893     0.12368961172803671
   147   1      21.512398809816162      12.808474309453537      1.4239274144553626
   148   1      20.104393321452147      14.427414713671411     0.12261795351741976
   149   1      21.470676573922951      15.711779264881672      1.4538502970564304
   150   1      19.998109552620598      17.140501095573381    0.044394752625146403
   151   1      21.483911275170815      18.502394574992046      1.5397733484231475
   152   1      20.207587504420257      19.987935093936954    0.084882504171980566
   153   1      21.281125339854405      21.563116084489604      1.4187300058807855
   154   1      20.112102649280278      23.022981147600007    0.039780472826782813
   155   1       21.68070850128121      24.260340385931212      1.4413160018420503
   156   1      19.913446789074495      25.780506397459686     0.16611559505834067
   157   1      21.462631363210253      27.196176262683657      1.5312203160536006
   158   1      23.031697030834167    0.030078867817007967    0.013230327575308816
   159   1      24.174004802340743      1.4086006178517427      1.5799937591420772
   160   1      23.006922570142105       2.907316618775575     0.15401897593181957
   161   1      24.354275349778323      4.3070099438866905      1.4539050565700091
   162   1      22.789568649553964      5.6572029120126315      28.584995889617847
   163   1      24.445008972847077      7.0275968890684393      1.4290632594891572
   164   1      22.940518601604076      8.5209518598964085     0.08396733694909253
   165   1       24.33374464204373      9.9741421144289664      1.5629331506404354
   166   1       22.99343252022279       11.35938738693601      28.676638363282791
   167   1       24.71916002758989      13.079130146001075       1.400994847344657
   168   1      22.897694695738871      14.030940160708024      28.604559341565491
   169   1      24.219992846549243      15.652790243926098      1.1961562410533575
   170   1      22.784723370313195      17.246543879921742      28.676023072759111
   171   1       24.13637500011497      18.606710586891307      1.0549379474274929
   172   1      22.756149511610747      20.122123128731499      28.632716925654027
   173   1       24.28730595732182      21.730502797653884      1.2657984153387576
   174   1      22.908482783974094      23.098088467412889      28.370654127784391
   175   1      24.372810249645408      24.416483287103983      1.2846706442275269
   176   1      23.013422922498812      25.789032360090179      28.658579776879439
   177   1      24.350387162297285      27.214151084456518      1.3411168783977709
   178   1      25.883838360851318      28.526407409876448      28.671601223202131
   179   1      27.122068317323052      1.5090231947803767      1.4380359464883323
   180   1      25.765875069820673      2.7952814806370601     0.13885946465809398
   181   1      27.100980688526057      4.5420533766755362      1.6394907962703198
   182   1      25.883967375168567      5.6395771994688886        28.4801310466964
   183   1      27.037947155087494      6.9160261380921861      1.3088019902832346
   184   1      24.453864062415732      10.048962416244885      27.122674348202551
   185   1      25.670654535929224      8.6128401738612492     0.11530695393859103
   186   1      25.722224784950296      11.349981744430263      28.669424135132509
   187   1      27.126799704934317      12.902467170197466      1.4752700254223325
   188   1      25.629508033361141      14.433088881822616      28.254083439020647
   189   1      27.062684791670787      15.758004328636535      1.3268809353706392
   190   1      25.610412013972155      17.229785695183121      28.495444477925432
   191   1      27.153777880164068      18.521689258972387      1.3897678035488861
   192   1       25.64239238455529      20.141444889681289    0.069377802163103158
   193   1      27.398173396121617      21.788638279762697      1.4010920930621187
   194   1      25.780032718307339      22.962784759703535      28.620496941462946
   195   1      27.231228445270542      24.610249755320527      1.3383145115204906
   196   1      25.825513785871884       25.76862221841013      28.633819927669126
   197   1      27.214360995785487      27.107349016598373      1.4721681158811415
   198   1      28.618153097149644      28.646044750783705      2.7737018275096141
   199   1      1.3909829972389609      1.5651569548743058      4.1565361450065454
   200   1    0.053182064320401852      2.8668468436764898       2.775864116087734
   201   1      1.4492065332337252      4.3793696388700427      4.3983944104794421
   202   1      28.687343755298674      5.7128576344213879      3.0093563726719808
   203   1      1.5459517410916537      7.2253875498608267      4.4622491997271609
   204   1      28.521569262741895      8.5829308845242398      2.6432412386906656
   205   1      1.2256571424700065      10.188675415080645      4.2592971469653298
   206   1      28.580899325828838      11.256221216734749      2.7338344240526222
   207   1      1.4640828346071908      12.840314846540704      4.3518768468474098
   208   1     0.12796176491454042      14.431811757603681      3.0290851378421668
   209   1      1.4732816422537454      15.811236117582538      4.2666358601469936
   210   1    0.061198171632112337      17.269807913429826      2.8393450968754448
   211   1      1.5697188919926368       18.66744802691808      4.2259132600083431
   212   1    0.021619183115764402      20.037266622069929      2.9306770951437726
   213   1      1.3515449843203122       21.53908159973663      4.2422602236190636
   214   1      28.567768349095033      23.075600801479908      2.9092164608387758
   215   1      2.8608738543278842      25.907171288590959      2.7564477572187105
   216   1     0.23318167409069199      25.796301583358442      2.8367796989285248
   217   1      1.1781022470827125      27.263265546777944      4.3032508676284387
   218   1      2.6659858920980466    0.084236001196484458      2.9573864669051657
   219   1      4.3806352615061455       1.653171056064479      4.4170226573491949
   220   1      2.7802797907464427      2.7964469914622772      2.6518019705890765
   221   1       4.251570013722807      4.2201292805635502      4.3024176650551098
   222   1       2.754170758309487      5.7244654240261204      2.9638065926047097
   223   1      4.1357284478025003      6.9539972718999659      4.2670822616604118
   224   1      2.9773608793064779      8.6154180144806407      2.8968904470318195
   225   1      4.2004114999574895      10.137437990837469      4.4875990534003796
   226   1      2.8637344911784326      11.676479207393021      2.9392334507300002
   227   1      4.3735572152134861      13.199853675361551      4.3738337210982623
   228   1      2.8812244591303511      14.447710093151427      2.8060389752372981
   229   1      4.3997638986581471      15.838445810490429      4.4422384789437075
   230   1      2.8210076637528254      17.290352696848363      2.8447693338503193
   231   1      4.3636989356501861      18.800167832048714      4.3104832624418901
   232   1      2.8587056171993028      20.159925221875117      2.8809554123116849
   233   1      4.3961120899593347      21.298062790313637       4.414586865280449
   234   1      1.4155689878529429      24.333440797126961       4.334477087653597
   235   1      4.1763548185407684      24.478115315007237      4.1058527768481774
   236   1      1.4097197533640287      27.146542246001246      1.2602940455223794
   237   1      4.1709210238165175      27.260984049648101      4.2339642920838179
   238   1      5.6977095260760962    0.079645599039861389      2.7007471381711734
   239   1      7.2504416368477482      1.3965410094603175      4.1746964019852699
   240   1      5.9581269706316897      2.9883313507521985      2.6581221695313837
   241   1      7.1731360184131043      4.4272844100033311      4.2152938141131173
   242   1      5.6095325180542783      5.8479569181961075      2.8166312930054347
   243   1      7.0912754479212596      7.2301588476400633      4.2530739411335432
   244   1        5.47696057537829      8.5543400580463711      3.1000639322888435
   245   1      7.0598734455929852      10.128613939605565      4.2905140305870297
   246   1       5.767913937197565      11.434444134826421      2.8603961818718528
   247   1      7.1705744814563195      12.865642894497135      4.0686817436037348
   248   1      5.9510729550425525      14.590680509058815      2.9878184679123696
   249   1      7.3582483226801099      15.803023534096591       4.430021203862351
   250   1      5.7116177752085182      17.364296288013403       2.989038267437147
   251   1       7.055961275985144      18.641900957701043      4.3279085379041495
   252   1      5.7423334137596829      20.355097648683753      2.7442069894878967
   253   1      7.1136533929177261      21.604092361800181      4.4833056720703164
   254   1      5.7197190454370599      23.014298156841321      2.9555727828774105
   255   1      7.1880953748092455      24.348103970965216      4.2331594449867911
   256   1      5.5287730173922913      25.672562198114836      2.8063166128578705
   257   1      7.1288006390909988      27.338196410474556       4.218636700851639
   258   1      8.6606508587781512    0.017794813582986683      2.5721046384669202
   259   1      10.019595502013932       1.223386498106231      4.4689021920688825
   260   1      8.6771761526220814      3.0935950670817829      3.0495560995105033
   261   1       9.987988071897945      4.3969238746010815      4.3987390980921877
   262   1      8.5421463627740017      5.7684788793226129      2.7942656662279979
   263   1      9.7622327885062052      7.1682977981556828      4.2137854894821052
   264   1      8.6396684792694085      8.6645773957522483      2.7986108416549667
   265   1       9.874219006237114      10.091993802418797      4.2699236420423974
   266   1      8.5226444445923342      11.475800817053861      2.7743299056225612
   267   1       10.03026902262045      12.981069094389081        4.38176162040509
   268   1      8.7819115996746522      14.348014146267877      2.8771905493155989
   269   1      10.067268108087241      15.633666272559736      4.2872356942557071
   270   1      8.5751401149383497      17.251319005345152      2.8772363200587807
   271   1      10.226713032384614        18.9029911233152      4.2693105884065279
   272   1      8.4972310323611246      20.037458610709276      2.9459962576509464
   273   1      10.079348770880733      21.425662533834018      4.5361838463688224
   274   1      8.6240374822134065      22.810730790636185      2.7998579086125912
   275   1      9.9976335030857424      24.695332351890499       4.305283138258039
   276   1      10.006363168634596      27.385419644260192      4.4656119319174881
   277   1      10.028614058482489      1.7363810165359832      1.6457690431050085
   278   1      12.755794420300925      1.4596529187975649      4.2673379006960594
   279   1      12.639988222563815      4.2990016575881427      4.1402380267424528
   280   1      11.428122477256929      5.8437521558221324      2.8975002367232507
   281   1       12.82342397315365      7.3362599757795692      4.2175921386815842
   282   1      11.201311696324476      8.6166353556689241      2.7897803490280588
   283   1      12.988912368572086      9.9626548295705053      4.2387503313955692
   284   1      11.461463940695193      11.476873632146766      3.0092807248628159
   285   1      12.983968200768309      12.864084552226952      4.4249427057131054
   286   1      11.647829147838005      13.995406264473131      2.8767513302993093
   287   1       12.75458626398458       15.93879450892857      4.2221229842042964
   288   1      11.288156262712041      17.461902012477019      2.9661225770074213
   289   1      12.932756448132816      18.737395447361081      4.1080026029877095
   290   1      11.445568421965893      20.222307063637938       2.928283424134321
   291   1      13.012653744525583      21.587480670583741      4.3638221567823159
   292   1      11.480235746778126       22.89910939635767      3.0285006039619762
   293   1      12.667112078702575      24.563673802997801       4.306515597791237
   294   1      11.465373508007973      25.982418147998725      2.9447549021417649
   295   1      12.921752486921218      27.199371302446309       4.327264251526687
   296   1      14.317579516011538     0.25102907651657941      2.6671391986024671
   297   1         15.767275466207      1.6071974691845186      4.4370705987905508
   298   1      14.380776287333193       2.838241176238399      2.9336410975305198
   299   1      16.005231833962945      4.2811365604746587      4.4530870942972038
   300   1      14.377448191748078      5.7370296049888267      2.7504228967577986
   301   1      15.848537512656327      7.3954313482767491      4.2894979276670533
   302   1      14.331318351677416      8.5612198871966942      2.7976607839441621
   303   1      15.815322708881203      9.9945941557310221      4.2846962085913116
   304   1      14.265832231049616      11.316840022206993      2.6691509824940551
   305   1      15.565547521839829      12.727576703923761      4.4055311706411722
   306   1      14.331685415059443      14.302797624684562       2.854881440916369
   307   1       15.73268208132404      15.833132439170594      4.1533720445673374
   308   1      14.460738198792338      17.107294016721571      2.8783765722863661
   309   1      15.792714885352067      18.693327173481066      4.3758675365259121
   310   1      14.327844164019979      20.062912115453933      2.8190909989266175
   311   1      15.653925467536798       21.34575788921611      4.4126226401401167
   312   1      14.122911451280334      23.120624981785642      2.9219387220038953
   313   1      15.663507761343524      24.134388642010791      4.3475984418646778
   314   1      12.722721287905129      27.680065253958997      1.2799899531259356
   315   1      15.735573865952569      27.434453898584522      4.2473953755369402
   316   1      17.287822242328478      28.558905482107665      2.9555862355566984
   317   1      20.195657794910794      2.8676298607389543      5.6409312281625894
   318   1      15.957671044722982       1.544688672989559      1.4387492025792643
   319   1      18.708834527931167      4.3150814396941115      4.3695083501291947
   320   1      17.282649158968649      5.6488947302618575      2.8973468891060077
   321   1      18.667269276480337      7.2189515342167478      4.2887591039314001
   322   1      17.153553013661771      8.7005270686208629      2.8292259446864687
   323   1      18.547781649601927      10.084334852238758      4.4735955757874528
   324   1      17.158447875755691      11.500476110186359      2.6713164421145614
   325   1      18.412235527824524      12.860232729294088      4.3279515558061279
   326   1      17.156899678250703      14.345142102730122      2.9298479736764067
   327   1      18.571132670190131      15.624584683384374      4.3745749380218735
   328   1      17.367519609241995      17.080184732850451       2.949607196118893
   329   1      18.621598415052798       18.48879774179613      4.3884316463103517
   330   1      17.224860361440928      20.013490612946949      2.8272615866974657
   331   1      18.628130388729208      21.491236319609776      4.0518942782542737
   332   1      17.150635244622972      22.763950672362895       2.916989242658282
   333   1      18.889389348616255      24.332495529094029       4.217267619607596
   334   1       17.02925225955541      25.813475294176158       2.953758706199531
   335   1      18.454805634527801      27.249529460295694      4.4751674818258973
   336   1      20.235042660827041    0.060068718817126457      2.8458005479370381
   337   1      21.579369310108326      1.2215449684198121      4.3309329393209612
   338   1      20.309976349267426      2.8999608805593828      2.9692481751723734
   339   1      21.533224738952661      4.3575238977921611      4.2991737565384005
   340   1      20.029992734027537      5.7990419425479081      2.8420669225376383
   341   1      21.480491559158843      7.2818366007059705       4.407793868765042
   342   1      20.064024667596499      8.6665202332921343      3.0954509185105779
   343   1      21.503416637198605      10.208258027836093      4.2308196511677432
   344   1      20.043710254657874      11.428367443059507       2.965386779340875
   345   1      21.577360380117053      12.848644824582045      4.3392984567191331
   346   1      20.102027810678869      14.245395319616735      2.8905536778877661
   347   1       21.57882657140755      15.784653182360103      4.3707152275438323
   348   1      20.050212892405703       17.11064355609604      2.9235573442180232
   349   1      21.532187172956842      18.708088651489824      4.4297156007172225
   350   1       20.01699468426775      19.903213183331214      2.8894745456966948
   351   1      21.674806721201222      21.683133238635374      4.1939393731356267
   352   1      20.227014879029561       22.83773805663003      2.7893309688607255
   353   1      21.591176453087371      24.497440657454657      4.3455208384461184
   354   1      20.227213755658035      25.821751173628961        2.89711209484001
   355   1      21.478481129030879      27.154860367012269      4.4180446841462535
   356   1      22.793668316018032      28.599922056279997      2.7979142952151275
   357   1      24.114445012993333      1.2899739899955533      4.2968814624561489
   358   1      22.962945224196218      2.9910516384878445      2.9246908496513595
   359   1      24.247649362447586      4.3583197442323618      4.5664129807327507