dump/Fe_1050_20/steps_31 (written by ASE) 

1980 	 atoms 
1  atom types
0.0      28.699999999999999  xlo xhi
0.0      28.699999999999999  ylo yhi
0.0      28.699999999999999  zlo zhi


Atoms 

     1   1    0.039857419891042661     0.23783497426525338      28.651628844585108
     2   1      1.4908659353178773      1.5421328613285696      1.6534566867560783
     3   1      28.523711317218289       2.847424769763427    0.069580586103859393
     4   1      1.4625415091427043      4.2452826564213657      1.5395077366997507
     5   1      28.652877028951512      5.8101235925490782   0.0020513074717428015
     6   1      1.3826100886346113      7.0669550152170979      1.5552456520539981
     7   1      28.692639496829901      8.6633277538190931     0.21324880805650545
     8   1      1.4793947973635224      10.186155688635205      1.4509866692772568
     9   1      28.431760194246682      11.522654900376788     0.10761977243224684
    10   1      1.5462529807637915      12.982931184973987      1.4906483032843985
    11   1   0.0038189548338672967      14.279497087280115    0.033911573433738351
    12   1      1.2312619408510856      15.985498167050334      1.5219220805729599
    13   1       28.53194579948951      17.205052580818453    0.060755483877699232
    14   1      1.4488488084705979      18.761462326181945      1.7077046057490632
    15   1      28.590365045801438      20.095898802190867     0.24034259988302428
    16   1      1.6018622068481589      21.520160495437672      1.6286069975099289
    17   1       28.58093532883132      22.870739635279243     0.16737268301289979
    18   1      1.5030683776156144      24.157447093961341      1.5463966224445238
    19   1     0.20943019050606765      25.777957657996431    0.058964673139325997
    20   1      2.9422688482482262      28.577145337004527      28.646725652549463
    21   1      4.3570352508410544      1.3849852214379426      1.4912170157847766
    22   1      2.9150719245289447      2.8421313604659195    0.014795063887299863
    23   1      4.3063889822347985      4.0104726594723283      1.5401174907645208
    24   1      2.8881225504104515      5.7852068348823558      28.669816442837401
    25   1      4.2962739133411452      7.0586586777455782      1.4534742048823532
    26   1      2.8132680619343544      8.7291131232325583    0.097878534975325254
    27   1      4.3560386128800799      10.177289067472383      1.4242893673565726
    28   1      2.7489497904751277      11.734745213306976      28.552524632809043
    29   1      4.3915944888343006      12.840564946841676      1.5458745103389224
    30   1      2.7138662462557832      14.469323194365574     0.10324233258527339
    31   1      4.2265122235451829      15.671196398524165      1.4812736651560372
    32   1      2.8726924735833599      17.177672031993865     0.24828555261460694
    33   1      4.3793869367376494      18.813741895275424       1.479783808303341
    34   1      2.8088566501594197      19.868495762125317     0.27414401336560545
    35   1      4.3634563837674722      21.587021148969512      1.4779976361941964
    36   1      2.9494273009235044      22.974242165698186      28.634462369830079
    37   1       4.123135033409226      24.361864890649453      1.4494710458527138
    38   1      2.9659106085275408      26.001515264074378      28.685882944142492
    39   1      4.3458487364231999       27.34940150210873      1.5164099379710583
    40   1      5.8682569408733052     0.14238535255760779    0.032490447055317763
    41   1      7.2982334687167132      1.4541682043970563      1.2984138250130848
    42   1      5.7825730758637217      2.6971295388775958    0.076688642066426449
    43   1      7.2309347184585153       4.219581124315412      1.2138083938711697
    44   1      5.7551789476354847      5.6137381350958275      28.616944615039873
    45   1      7.1062604981415802       7.161145484670457      1.3297594592939728
    46   1      5.6490480299190482       8.592559725933441      28.679940776840429
    47   1      7.2457586105775276       10.03138174656962      1.4558943776763946
    48   1      5.8651932418326265      11.550000431976045       28.61352467659383
    49   1      7.1960900012399573      13.022807340745349      1.4539916608406871
    50   1      5.9790944121572194      14.405788439156257     0.18617638873669182
    51   1      7.2149925960879511      15.648329265373917      1.4322027783250868
    52   1      5.6602586095805592       17.13727464482167     0.12598891403735013
    53   1      7.1173587114534591      18.780720959937138      1.4566968528883637
    54   1      7.2213655993819126      21.447800433524989      1.4407538235277793
    55   1      5.6763438496633638      23.177578058517817     0.22047330018860964
    56   1      7.3507044121957881      24.378668803450431       1.352181183305379
    57   1      6.0260311977145049      26.040300228649759    0.001399464682140205
    58   1      7.2471743479255748      27.454915575193013      1.2244269739269489
    59   1      8.7672760637158689      28.598874861638791      28.619262161401366
    60   1      11.309623429796872       2.779380292572466      2.7682505243749893
    61   1      8.6837246537998389      2.9139872344602682      28.572915618498829
    62   1      10.191641447517384      4.2817155763651034      1.4354039822709175
    63   1      8.5826259562428771      5.5979487458929835      28.540051926048651
    64   1      10.003119294197983      7.2190849460250854      1.1929388220106727
    65   1      8.5194332341266836       8.670244980285748     0.10816135032233672
    66   1      10.100096296782725      10.036933773374015      1.5635367761910746
    67   1      8.6747744443207004      11.430163586058562    0.076583308473664166
    68   1      9.9485399469857896      12.718907114477911      1.5667023656701069
    69   1      8.7130353437493966      14.467881009705588      28.655911929848504
    70   1      10.127549695489723      15.611567966775567      1.4310081601671989
    71   1      8.7019807160492597      17.202596090052868     0.15970974924256323
    72   1      10.040206110085313      18.577414794740115      1.5401531126803205
    73   1      8.6914465679424868      20.008089639294777      28.549405190556058
    74   1      10.128151874312682      21.555009612111515      1.5273038376803343
    75   1      8.8080503098425726      22.661282891289332    0.059385842412075285
    76   1      10.314675231896471      24.491958757024165      1.4786900807896228
    77   1      8.7945771192884639      25.857678073549412       28.57967192848848
    78   1      8.8478953483530525      25.916727526192528      2.5868951487375638
    79   1      12.720128331717452      1.3247208422312042       1.341115224820838
    80   1       14.10179120564702      2.8330535674094555   0.0027077775392513109
    81   1      11.550281121797591      2.9625499267634496      28.563636792922129
    82   1      13.001792833805775      4.4024215870471464      1.4162510640304502
    83   1      11.561883259989665      5.7942106109060765      28.603682381081104
    84   1      12.900375791688091      7.0917933623699527       1.432893706029311
    85   1      11.495843885087069      8.6693753800630109      28.690849526520172
    86   1      12.972780691235121      10.011391672676085      1.3119141142049777
    87   1      11.496761039258207      11.500239173114105       28.68294052587213
    88   1      13.085663539441258      12.863812090708892      1.5094124316373141
    89   1      11.477955517841382      14.334997233583627    0.076942564833484675
    90   1       13.05385258429871      15.675861367151564       1.730252047204988
    91   1      11.549716592747824      17.006244991751636     0.24326268834408898
    92   1       12.78655961340362      18.524158309241976      1.3768851922624441
    93   1      11.376104921435633      20.224274344813086    0.016370831065978551
    94   1      13.029639920325238      21.574737850079782      1.4057293727404709
    95   1      11.615320312427732      22.979284455539034    0.053804594781365692
    96   1      13.127640610693799      24.465727599051966      1.3814312797352037
    97   1      12.706114545653795       27.37269929724998      1.2410229969362716
    98   1      11.271619444024699    0.073372005559404541      2.8285919672817381
    99   1      14.455162304787201      28.639448063840092      28.624993461796269
   100   1       15.68314389287924      1.4694324677520978       1.491538466418775
   101   1       15.75665797375096      1.4718090456778117      27.288462929938238
   102   1       15.81307224976508      4.2913966392016967      1.6028855228573644
   103   1      14.419290091469522      5.7842082614048591     0.17267642880497086
   104   1      15.757740103986846       7.393942428816958       1.442297048983302
   105   1       14.24638936146896      8.5203560463470414      28.633508670272665
   106   1        15.8788394285859      9.8492514256952646      1.3608599968878474
   107   1      14.185654046368224      11.597492158515678      28.497481753426786
   108   1      15.994304302623975      12.824904737520955      1.3863343078390011
   109   1      14.309066818980462       14.30678704068052      28.653867285458631
   110   1      15.823947038739318      15.942712159532402      1.2671503697387254
   111   1      14.249208662407039      17.118466896457214     0.11541412393017926
   112   1      14.266160810794597      20.197705234325142    0.085011437692219138
   113   1      15.795094068708398      21.636943057175493      1.3705538080669599
   114   1      14.289369156434187      22.957084654903131      28.640503892802602
   115   1      15.755996672345995      24.390780380515533      1.1699340578279813
   116   1      14.480950548516878      25.977701190947858      28.538775369727084
   117   1      15.802853866424332      27.191849267483381      1.4683797584051477
   118   1      17.236968345210055   0.0088679736865969975     0.21098193619866384
   119   1      18.720634036879019      1.3831156771118347      1.3985225232116809
   120   1      17.318224551701835       2.922979923474065    0.016202264733158243
   121   1       18.78699304387089      4.4345863107048888      1.6003308508085972
   122   1      17.156664261896907      5.7533791926379942     0.33017214757099911
   123   1      18.775626005017777      7.2933889078134078      1.5463496289852858
   124   1      17.344039290964542      8.4470855375610974    0.098375441125483451
   125   1       18.60700200241196      9.9940571898782444      1.3957223046548168
   126   1      17.228229799526144      11.322441274668147      28.617254107126048
   127   1      18.717478337479843      12.848952869416838      1.3218103392729967
   128   1       17.35019128098903      14.359961065715426      28.643548527896954
   129   1      18.594701946824664      15.826164911744963      1.2909940975966487
   130   1      17.179617504708137      17.190640463040417       28.47250936109662
   131   1      18.549637302596253      18.815611660846326      1.3104370565783694
   132   1      17.058745980882897      20.032398835049744      28.633299707381216
   133   1      18.592890573928358      21.394240605524441      1.4651155111711878
   134   1      17.178154645427604      22.912903822196931      28.552006854223833
   135   1      18.685672941004519      24.327561706463857      1.3255002572011563
   136   1      17.214349156385776      25.765216261285829      28.639703287031963
   137   1      18.630799455895321      27.182182253680079      1.6020407946575459
   138   1      20.123595321756294      28.463116578004435    0.020232162864772359
   139   1      21.536483268617165      1.3179964180742001      1.4478969230694132
   140   1      20.242241993136588      2.9023606792281145    0.032370890231004514
   141   1      21.641156823400593      4.2926656846681341      1.3985247423971152
   142   1      20.077575024762972      5.7098764735315068    0.078420072698815985
   143   1      21.607094270674921      7.1306476488696076      1.3965000577831346
   144   1      20.182264098212286      8.3210718210541916     0.11357975255690472
   145   1      21.502717645287525      10.185075978365177      1.3733414272188826
   146   1       19.93936082829844      11.418455454180714      28.493246184132644
   147   1      21.529329088222571      13.010461782412458      1.3562015722415235
   148   1      20.250440851283088      14.368090125361539      28.533269387339168
   149   1      21.370652620055022      15.759460149440503      1.3815606184314673
   150   1       20.14168562501613       17.24681807349717      28.555004667112541
   151   1      21.610655822107422       18.76037497904861      1.4545494490671902
   152   1      20.232335654159805       20.23293936185501      28.566606304077922
   153   1      21.416163027750621      21.526341998541827      1.3789450145288913
   154   1      19.979362424273162      22.750851611603615      28.602018553596892
   155   1      21.272287502885089      24.114145250833523      1.4944673248688791
   156   1      20.103299722578072      25.776882468388649    0.092133512095927059
   157   1      21.570543337673858      27.289835880017815      1.5823681116308095
   158   1       22.97088765756315      28.649571092281008      28.658724970787631
   159   1      24.578739450305605      1.3988655392857359      1.5530595949360519
   160   1      23.095927635732625      2.7918278451337741      0.2391666702653312
   161   1      24.313814862871382      4.3773106443203114      1.5585403756705425
   162   1      22.787773953125978      5.5907382796249214  0.00021823282488639962
   163   1      24.228076107033086      7.3217129389925164       1.366418369777205
   164   1      22.982557383021639      8.6493281717364301      28.577005770747576
   165   1      24.262662627670377      10.086002086776011      1.4083482538377661
   166   1         23.007069645365      11.484826659776934      28.502458960305834
   167   1      24.405205811503947      13.061891972836188      1.2847548127501329
   168   1      22.791315906104778      14.460750976128224       28.67164796043599
   169   1      24.177356122134007      15.884309336439077      1.5606322666208947
   170   1      22.612828688445976      17.205028698230286     0.10107104038444267
   171   1      24.174605362756623      18.614136071259349      1.6415855071126759
   172   1      22.969224516944948       20.15790558041056    0.067048181146606239
   173   1      24.248118221519174       21.54605206645034      1.6649498899513331
   174   1       22.90013593041661      23.017075731911927     0.20158230720596751
   175   1      24.265708670377819      24.336000989253691      1.6617633139986989
   176   1      22.705940429846706      25.665992818462591     0.13585187571992485
   177   1      24.239522048487622      27.437671547113837      1.5475820995043708
   178   1        25.8490853015102      28.605570768311058      0.1363758577823774
   179   1      27.248133486551843      1.3622594189609216      1.4579227749302279
   180   1      25.723228268823213      2.9534357585448801      28.665617703216743
   181   1      27.385566486825006      4.4923489003425665      1.3139175554967759
   182   1      25.652067752603362      5.8648043889988966      0.1013028762520549
   183   1      27.153767325325362      7.3258977492402888      1.4092813774029416
   184   1      24.489259405629017      10.130866344486723      27.147321504547083
   185   1      25.686009339296106      8.7059412413600015    0.064689133544311508
   186   1      25.662519230418695      11.407742192096938       28.69896572956527
   187   1      27.032110215850707      13.053237795104506      1.3844352258022341
   188   1      25.649970821185622      14.772114084899025    0.044767116798050212
   189   1      27.219049873364551      15.852620112582876      1.3650388491980392
   190   1      25.715063034540904      17.339263987274148     0.12529894589031293
   191   1       26.97169134646164      18.547814260375976      1.6629039613887115
   192   1      25.856027563130581      20.080673812745577     0.10959301253357127
   193   1      27.189769617439747      21.375509131389901      1.5725190684037567
   194   1      25.737113500430361      22.864250690725644     0.31592027701823233
   195   1      27.357925281640476      24.413758334333153      1.5516480592777275
   196   1      25.790832293292677      25.813654215373187   0.0026331707792792238
   197   1      27.384349130366786      27.249470114785318      1.2919147747827773
   198   1      28.659644393887408     0.15396372880073866      2.7049351202802878
   199   1      1.3186764293940303      1.5723399147020034      4.3991291668748875
   200   1      28.644678490255547      2.8458791254089997      2.8221939849641897
   201   1      1.3115619448952192      4.3218854439656829      4.0895893045698966
   202   1      28.681728633629263      5.9589060183362319      3.0389588412703818
   203   1      1.5260917475544258      7.2169812971490837      4.1923569084735997
   204   1    0.095353770124598572      8.8050400005607976      2.8496566403804549
   205   1      1.5558090538934966      9.7894965086939063       4.290892749305363
   206   1      28.597701585568402      11.638702641402613      3.0116559824001872
   207   1      1.2808543213509456      12.976868270128341      4.2693826273234885
   208   1      28.615006417380531      14.490788886825673      2.9413624461462655
   209   1      1.6211409177148661      15.907701167548668       4.234368702127024
   210   1      28.663611835358424       17.15830360739966      3.1478056875596239
   211   1      1.3453516632612734      18.681472053905257      4.2879732901200631
   212   1      28.665032821863353      20.144112281279117      3.0872973363115683
   213   1      1.5519427141118642      21.327031561476172      4.5105131641004261
   214   1      28.556700017353435      22.884055961008933      3.0886516336065042
   215   1      2.8571134501311364      25.962990036212428      3.0071638637213116
   216   1      28.658644422994715      25.773335940878599      2.9240608865432636
   217   1       1.190499700786918      27.438834519937714      4.4107463118269994
   218   1      2.8087432903454572    0.087139590242498136      2.8674268400876941
   219   1      4.4952352214572473      1.2339179841399532      4.3339511992930788
   220   1      2.9364086780362135      2.6917093000353813      2.9530907901964825
   221   1      4.3287279633245692      4.2424554057685198      4.2199606164279437
   222   1      2.9976025367362928      5.7000712229122605      3.0111154296661264
   223   1      4.4175931517953266      7.2417469082981984      4.4486385622643585
   224   1      3.0176855777628573       8.717681135367501       2.824596398078687
   225   1      4.2742882104964126      10.029442964535724      4.4611532498337194
   226   1       3.109860323234134      11.420579119372277      2.9759972835970387
   227   1      4.4643814740837273        12.8928527698354      4.2933908700019767
   228   1      2.8155441608261857      14.319975069967093      3.0711813956485696
   229   1       4.294985487370333      15.872416104726744      4.3487698860193289
   230   1      2.9997403467670565      17.258520198863966      2.7189645973026249
   231   1      4.2417626355868503      18.708188532280545      4.2035106238531297
   232   1      3.0556182596872672      20.207945510127825      2.9968842867741805
   233   1      4.3191399965151822      21.923126755780096      4.4292763214661477
   234   1       1.561336236245713      24.489774875148104      4.2900174350043745
   235   1      4.5152037243900844      24.491215568918253      4.2294605501126714
   236   1      1.4405508215659129      27.240928713228787      1.4451746368547456
   237   1      4.4592692773420719      27.217547927626104      4.1246774000762487
   238   1      5.8449186703634437    0.067746896704022785      2.8184238732810845
   239   1      7.2408002580629276      1.3893992979614258      4.2942933977068796
   240   1      6.0871031729604059      2.8726633603287004       2.829088259318429
   241   1      7.2881971621398636      4.3878534420379376      4.3476629197689345
   242   1      5.8025192637416927       5.641763331305242      2.8899699773885326
   243   1      7.2577497146304166      7.2231958486813319      4.3332515475630569
   244   1       5.799393912460685      8.6049901857894859      2.8786218742793084
   245   1       7.221197083090825      10.001721675491023      4.3516656578990434
   246   1      5.7382928704192802       11.32225505554878      2.9026129657568349
   247   1      7.3675858530243099      12.720829258965622      4.2269418171250512
   248   1       5.794230649483767      14.396902685002743      2.8906072972638013
   249   1      7.3531549862232941      15.791368386370911      4.4164213585328147
   250   1      5.8509529587268378      17.218927217588071      2.7549135540459249
   251   1      7.1051094823825753      18.652682865148623       4.253442677728124
   252   1       5.641756720367983      20.250647265503812      2.9812461345210095
   253   1      7.2518871629048061      21.500977707922814      4.3992273395279646
   254   1      5.8594212396266983      22.933946457273134      2.9860992785129552
   255   1      7.3237672106867846      24.481897330724724      4.3192255271999107
   256   1       5.703944207773195       25.81437550421747      2.6700760488967838
   257   1      7.2769789018216056      27.315424715832055      4.0688686842809938
   258   1       8.558725935016799     0.14468666067422206      2.7122048554348552
   259   1      9.9894749052004244      1.3347228679798715      4.2797684764504833
   260   1      8.6619965178266014      3.0350334229057614      2.9085476904715972
   261   1      10.040657594854622      4.4555417135593771      4.1982537670124422
   262   1      8.5292948630320122      5.7182822210163735       2.678787623173001
   263   1      10.203773005617228      7.2041642512165316       4.201729472960813
   264   1      8.6722072267197081      8.4746994978816641      2.8755304981564538
   265   1      10.218633725926781      10.153234567382693      4.3387579190788603
   266   1      8.5800594893986695      11.300040143693904      2.8875579312320063
   267   1      9.8228950776958381      12.862103912981041      4.3949991952410885
   268   1      8.6747835141915619      14.303712081325681      2.9191156634415734
   269   1      9.8282135284116787      15.697523604220114       4.587255584820328
   270   1      8.6393421950988092      17.244762554429805       2.746315156706304
   271   1      10.092728182807795      18.545786570330176      4.2764298619404366
   272   1      8.6598693921029213       20.02075743244923      2.8003574878249413
   273   1       9.990120302859113       21.24944227387763      4.2481886712997721
   274   1      8.6724608148723235      22.923916831555584      2.9848264618065645
   275   1      10.199236595289943      24.250761716978399       4.275425812791835
   276   1       9.831432677031998      27.412147578065849      4.1507458346064521
   277   1      9.9724792463893621      1.5908581328998708      1.2602154011562456
   278   1      12.742891225338296      1.5213637082704385      4.1705860233366687
   279   1      12.687187281100069      4.4186222206450037      4.2003162682565511
   280   1      11.495254443672961      5.9147412276346847      2.6799143731297925
   281   1       12.87391926000455      7.2442552353814529      4.2842917732971868
   282   1       11.62898065426384      8.6102735898918503      2.6227355483601178
   283   1      12.880769289877597      10.057358671070206      4.3550402643734749
   284   1      11.597874143155732      11.636416092013562      2.9027551237226499
   285   1      13.075333191859885      12.779469434382779      4.2539194547901618
   286   1       11.54659486793255      14.311830962961814      2.8815227503980871
   287   1      12.903822900144316      15.727654654141102       4.420983437955452
   288   1      11.398576425406658      17.073054624766744      3.0387427758076666
   289   1      12.833054216886897      18.587047364874806      4.5080433549888062
   290   1      11.508958572433061      19.940053674353553      2.7832772276694535
   291   1      12.648548448302138      21.336389931607709      4.4566594038970599
   292   1      11.637115175054978      22.871327231987411      2.9227789028027327
   293   1      12.819664645035655         24.267165394785      4.4503091492432993
   294   1      11.567495157561735      25.938366248858411      2.7464715664075934
   295   1      12.879856879310164      27.351278362929111      4.2425423810959897
   296   1      14.115032995409962    0.021716188350910826      2.7188944570748501
   297   1      15.705653588729918      1.2781860711767086      4.1771254190462894
   298   1      14.208077972931243      2.7116298126610894      2.6263290506596157
   299   1      15.635101200839495       4.240591202959699      4.2226896071801461
   300   1      14.336785260493865      5.8773734707447307      2.8934015798875019
   301   1      15.688592091115218      7.1687271739819929      4.3351676543635458
   302   1      14.364752116765516      8.4470341004680893      2.9267411488684463
   303   1      15.883972112861677      10.039527140565122      4.2501088165612666
   304   1      14.448602622392404      11.343938755771475      2.7815800246748821
   305   1      15.632980709590976      12.766611151345508       4.305083168075214
   306   1      14.477161712758287      14.390556915081126      2.8832782729835018
   307   1      16.072820928642127      16.024862515910513      4.1008605218187144
   308   1      14.311999689325765      17.240240644180417      2.9300764297762587
   309   1      15.711072966659547      18.667307409273715      4.2961214815104514
   310   1      14.214710473598331      19.922390793931111      2.7431117702751533
   311   1      15.851627613799419      21.378754411361196      4.2243886893229101
   312   1      14.416463980158083      23.080823103527106      3.0727863156663551
   313   1      15.756364281273525      24.531553374192548      4.4627582281514204
   314   1      14.200099555730871      25.855956952480348        2.84653764075731
   315   1      15.694231407309058      27.140522353602687      4.2623166973372895
   316   1      17.114058046932826    0.010185359608851934      2.9590841192444657
   317   1      19.926371672328596      2.6159009292648205      5.8551175782944007
   318   1      17.228373447233317      2.8730207035026587      2.9883814128047912
   319   1      18.699759325723804      4.3136851930062061      4.2174869709473723
   320   1      17.373548713075071      5.7702967962097622      2.9690256411223901
   321   1      18.781727906345541      7.1281959710131195      4.3572602101197901
   322   1      17.361552727306933      8.5195720906452816      2.8024058005146788
   323   1      18.578188150243584      9.8772801257930549      4.3845423438448066
   324   1      17.155134858154518      11.393977210107037      2.8204245703422304
   325   1      18.798302101379122      12.929738952135121      4.1634931224322251
   326   1      17.161754687762073      14.267052340166341      2.7768927434397481
   327   1      18.656873481326059       15.95891294140548      4.1991731999969044
   328   1      15.829245901357625      18.466480022985504      1.4785483675842788
   329   1      18.560414623645737      18.708955710164552       4.512082393011223
   330   1      17.404932617200505      20.114321993523895      2.8929455497727403
   331   1      18.722868826701543      21.404632187634398      4.4208295008654668
   332   1      17.209410612446728      23.078003338969516       2.767778663029981
   333   1      18.540158485199388      24.294833354367576      4.3245927636214541
   334   1      16.972365147630139       25.79366694715883       2.940885002860365
   335   1      18.575104467851563      27.092708398884568      4.4594607256923284
   336   1       20.06545971352347      28.562780285674823      3.1103188802142503
   337   1      21.420777697458309      1.5563428208884158       4.399113433006951
   338   1      20.114912526629286      2.7233963558866106      2.8705459412691261
   339   1      21.619767201176185      4.3527424878269434      4.3114718869849442
   340   1      20.344112228314632      5.6241834737243721      3.1451006211498078
   341   1      21.488887321423512      7.3991668429249717       4.619907272597878
   342   1      20.179450901421685      8.6068025409129891      3.0715525210197461
   343   1      21.429095259118888      10.035401152443278      4.4185090949606423
   344   1      20.010277116900884      11.266860365601314      2.7451510440809668
   345   1      21.422629210456186      12.873227202140463      4.2507513920961983
   346   1      19.970121861814732      14.259318801250105      2.8925311993958509
   347   1      21.265976871157598      15.782172040454196      4.3367523827320458
   348   1      20.282239858875148      17.247604439203421      2.8093599624107237
   349   1      21.546838343297143      18.644215651201428      4.3853998035445096
   350   1      20.034884649501826      19.900098433785324      2.9688762780123046
   351   1      21.466588260394524      21.416745623931465      4.5148911508567267
   352   1      20.072545989437753      22.708133577874626      3.0589188657333928
   353   1      21.627916540857878      24.418262560283758       4.385158648050826
   354   1      20.120365698037148      25.672845100560302      2.8966420796496215
   355   1      21.468343654128212      27.332373389197322      4.3632304609868005
   356   1      22.955638951531782     0.16700731297495419      2.9990854558876281
   357   1      24.514949906979194      1.5082726241604301      4.2294998060671798
   358   1      23.087925840564115      2.9425075119713444      2.9901372455759896
   359   1      24.315614584973179      4.4884428909895142      4.4401209349510538