dump/Fe_1050_20/steps_41 (written by ASE) 

1980 	 atoms 
1  atom types
0.0      28.699999999999999  xlo xhi
0.0      28.699999999999999  ylo yhi
0.0      28.699999999999999  zlo zhi


Atoms 

     1   1     0.24481329922406653      28.528674410444072      28.618073509455545
     2   1      1.4335079377851001      1.4551035750577619      1.2778781739189076
     3   1      28.653248361591228      2.8389607485302149      28.558338417136596
     4   1      1.5509064764819533      4.1426060796412782      1.3408486596025571
     5   1     0.14830706138576513      5.7425637507370517     0.07635418383009672
     6   1      1.4785574617271882      7.2272430080130921      1.3771331296614677
     7   1    0.013336285761693554      8.4558631827770174     0.10032652539719024
     8   1      1.5333350196572484      10.068794517243383       1.223063694370943
     9   1     0.19907407965480473      11.561234004114215    0.051006069144420921
    10   1      1.3697269247060844      13.131978445977634      1.3168976795725946
    11   1    0.079468054260190504      14.429302349080887    0.057670478222814708
    12   1      1.5380495032321293      15.894862056088119      1.4988573234074243
    13   1      28.677387101874448      17.021400061476506      28.588361909696776
    14   1      1.4360476052338309      18.419039196375586      1.3298247636457294
    15   1      28.580999793374364        20.0168404489959      28.690781506066472
    16   1      1.3323977199787826      21.787834355943662      1.4152416864647526
    17   1      28.466634382410604       22.99037960489402      28.601668229520019
    18   1      1.5318732820761078      24.628947960992658      1.4418385746828459
    19   1     0.13031172076230521      25.562107774057974       28.54986074893505
    20   1       2.997874714376628      28.577748374607811      28.493430070349419
    21   1      4.3588206474613003      1.1765786423756817       1.374601235275599
    22   1       2.985660301874681      2.6988015766594566    0.034336071737504914
    23   1      4.3535016953947752      4.1996141884329994      1.4542406264529975
    24   1      3.0155752372863809      5.6996844954352772      28.631314001527901
    25   1      4.3121953381960214      7.1405997434338246      1.5647276618842612
    26   1       3.013231105313753      8.4721136763745672        28.5165034193104
    27   1      4.0517995694940572      9.9367219468260881      1.5143401536569041
    28   1      3.0483724514135373       11.61083125380341     0.11119689020031261
    29   1      4.4018765727207754      12.843618487462278      1.5107164692184922
    30   1      2.8824325794774168      14.486624813762873      28.673626424061528
    31   1      4.3386756515163425      15.919307403092279      1.5525412037904731
    32   1       3.163252242348761      17.043181801454651      28.611602468031013
    33   1       4.256487753021525      18.529787876143054      1.5848053808203424
    34   1      2.8685588551467172      20.094703668815328    0.093948993649382778
    35   1      3.0124212783430293      22.829866590904196       2.855760591765772
    36   1      2.7688087322154638      23.075487467301841    0.069341463802254658
    37   1      4.4456280473046927      24.350385770100971      1.1897933227302937
    38   1      3.0257369877959803      25.845546296250589    0.017420160462461358
    39   1      4.5154645494667696      27.107170349098059      1.4319241781129093
    40   1      5.8303587515042503      28.413792069865796      28.653623054922647
    41   1      7.3292100065376777      1.3082460311631749      1.5178682525260911
    42   1      5.8655902650875413      2.7237220176202865    0.070342457986271159
    43   1       7.243887073247393      4.3587372978229961      1.4381141439536012
    44   1      5.7338787710463262      5.7684551616989799     0.30046860178691726
    45   1      7.1726481767371313      7.0747162122618281      1.4632253100297141
    46   1      5.6415003200758287      8.6260298400909203    0.065622416210737666
    47   1      7.2183105564972925      9.9852676721075397      1.5033226051652264
    48   1      5.7312269748524791      11.472752399440026    0.074361205417892373
    49   1      7.3010496122640127       12.87402870150728      1.5920654363203426
    50   1      5.6166246885651621      14.344232395830058     0.07573630382605652
    51   1       7.273473081956455      15.443434561897577      1.4367512772183895
    52   1      5.9048758632987308      17.231292252172555    0.031824766545219103
    53   1      7.2712206075219123      18.625597051916031      1.2938444373478313
    54   1      7.4337089377600858      21.616262668356701       1.458544155791502
    55   1      5.9127224575302346      23.046432603082778      28.529996433856841
    56   1      7.4120447997118797       24.34647381968562      1.3920256948912528
    57   1      5.9931268836352798      25.705048634035183    0.020866566001245701
    58   1      7.2992033447588698       27.47197408726274      1.4199194108869382
    59   1      9.0372404942994216      28.294652151884325      28.413602669072166
    60   1      11.546242642903724      2.6511046176179418       2.823447577216756
    61   1      8.4949676892575923      2.6105245095929619      28.558367309126925
    62   1      10.058717081192182       4.284996487769833      1.5951447583455429
    63   1      8.5110768988857419       5.726521163666118    0.012641705789428678
    64   1      9.9274455830526325      6.8661089221854432      1.4726829066765499
    65   1      8.7097239178785451      8.3868872662030221     0.12902656780001964
    66   1      10.016776208211647      9.7901782623424083      1.5042529357337562
    67   1      8.5476705592517082      11.133821452702286    0.080965247118785874
    68   1      9.9479364381850885      13.012733067729615      1.5243363036712922
    69   1      8.6852201253846495      14.383051421555001      28.622128358904579
    70   1      9.9086342836358288      15.566535961942618      1.5266944137827958
    71   1      8.7160831572959871      17.144044010191028     0.11360045296996744
    72   1      9.7643881590870958      18.868093996388637      1.3518909768524174
    73   1      8.4481258804189672      20.203926720586345      28.682947627668472
    74   1      10.135980978859086      21.633004677354528      1.4325829541077142
    75   1      8.7798931984213358      22.999320130000537      28.497362002793054
    76   1      10.248982302531555      24.394176076428113      1.4418584961875793
    77   1      8.8030161638440383      25.828222000513794     0.06569150698105658
    78   1      8.7752965407978092      25.658519060904887      2.8537269865480752
    79   1       13.09118485548548       1.236151207346007      1.3075597730848931
    80   1      12.913215114631107      1.3211560880679054      27.176479128505793
    81   1      11.330337572871638      2.8108747463789299     0.01263313235219812
    82   1       12.90339789672133      4.1647590459713832      1.3727744027181079
    83   1      11.528258681882866      5.6635708885723952      28.665264395989798
    84   1      13.003414570641745      7.0628758120412458      1.2075249925794773
    85   1       11.36248022371549      8.3865364211969631     0.16781005741461275
    86   1      12.800396675953742      9.8554412718298945      1.2980848779668133
    87   1      11.576810234504562      11.545928129935209      28.512877216008668
    88   1      12.848237272838896      12.826627536807722      1.3628131092975417
    89   1      11.514339752482718      14.454784916033553    0.065784793350905951
    90   1       12.97609556402241       15.95545370732752      1.5604669724939517
    91   1      11.518256802477833      17.318319958948596     0.24663327187869288
    92   1      12.983280929981625       18.69257861031614      1.4881950671316189
    93   1      11.606527643015319      20.094442490141152      28.582952754143221
    94   1      12.997650798478357      21.519953073735596       1.551559526068343
    95   1      11.704436744413796      22.757840446671228      28.480788813901441
    96   1      12.859767844533348      24.235800618240503      1.6111587396139153
    97   1      12.947994910989294      27.419579170444493      1.1011176219010732
    98   1      11.536961267519198      28.636239379510542      2.8944914148335812
    99   1      15.944335484157211       1.372247293259909      1.3952022894574942
   100   1      14.237648410612811      2.9716573378609965      28.463070879312287
   101   1       15.67813440325132      1.4333968519620288      27.158959836348604
   102   1      15.580889635363125      4.3964155198529244      1.2943169061893278
   103   1      14.328517257006512      5.6482671679277603    0.012635480634060049
   104   1      15.764533417690004      7.2495368478507869      1.3078823623848974
   105   1      14.471531990201496      8.4799939151205859      28.550743031123307
   106   1      15.621167495259016      10.135827311013129      1.3998551846550631
   107   1      14.359265864180692      11.448777366408468      28.582136086324461
   108   1      15.842340657886812      12.771605762676856      1.4343333348795346
   109   1      14.393794666119687      14.455238645477385     0.13361698077612791
   110   1       15.79027007916741      15.746823752393407      1.5904209476466469
   111   1      14.467897229308393      17.133240522052983     0.10366895089150592
   112   1       14.32982051751633      19.951357131629585      28.452436432946129
   113   1      15.844209076774337      21.427954252176768      1.3905075864991199
   114   1      14.523166409760133      22.876983963957134    0.063734023062045203
   115   1       15.69293036717885      24.399862333628217      1.4536131487660204
   116   1      14.170275903762777      25.713802613486589      28.633586885569194
   117   1      15.808126946799526      27.375093081077697       1.218670014251255
   118   1      17.137275664577764    0.068225570040762601      28.350458636203147
   119   1      18.575472232539177      1.4248988655222432      1.2371288654041803
   120   1      17.029479568326497      2.8312396361257717      28.613481553055042
   121   1      18.555206448665174      4.3509302869463653      1.3818068534745187
   122   1      17.210248423001712      5.7409162117776527     0.13257245005307833
   123   1      18.784178769171096      7.0236071998804839      1.4547628629663676
   124   1      17.153570140310059       8.752838019807923     0.25597024350869313
   125   1      18.665269207614976      9.8566492703011477      1.6452534942734813
   126   1      17.319757657979142      11.507987219273364    0.057333998984268088
   127   1      18.545336670837308       12.96305306711511      1.4181937383252956
   128   1       17.30218390165814        14.2626909141366     0.23450040984815804
   129   1      18.811676734124788      15.624525957485293      1.4213961868839073
   130   1      17.100342677350621      16.919368715403525      28.596022611620342
   131   1      18.547730193036429      18.591323913229285       1.315291152009626
   132   1      15.674053208830095      18.545487082680523      1.4005163807429648
   133   1      18.739846784537569      21.388524010395905       1.311492060158697
   134   1      17.315396133872511      22.812863283979667      28.546991088116513
   135   1      18.741324149883262      24.032707183044206       1.440677316019799
   136   1      17.118730028913131      25.610645726792082      28.694804965791832
   137   1      18.344439259084176      27.232522734873864      1.2457452586411577
   138   1      19.886995733283914      28.595169286407842      28.520708164283807
   139   1      21.511359708686754      1.4535006262451475      1.1619293113935774
   140   1      19.916896175267333      3.0287661691511518    0.033939101555495337
   141   1      21.623433651829771      4.3877137002041531      1.4363192384674324
   142   1      20.171057503390742        5.95947950680738      28.596662203638122
   143   1      21.654000237394641      7.0739742198395632      1.4470145405741517
   144   1      20.180157102532721      8.5721065490715453      28.624871980265119
   145   1      21.455384883322512       10.05857689532554       1.237107603738467
   146   1      20.113865685600253      11.506145026508465      28.607972315228839
   147   1      21.684154312563987      12.927781722219514      1.4983025449849154
   148   1       20.31741922985405       14.18914599209335      28.679295850532483
   149   1       21.52352461406872      15.751697436542127        1.27608738936134
   150   1      20.189589749208043      17.278990039312568    0.019642903290457505
   151   1      21.382373609119565      18.500865232946193      1.5931961714009624
   152   1       20.13155508798776      19.896185433827672     0.15558386137716987
   153   1      21.553545537860874      21.586919139073082      1.3946754379180792
   154   1      20.165318193545502      22.840801162576287      28.599576269499195
   155   1       21.37675195773247      24.486101972505178      1.4700525104492383
   156   1      19.955760905859279      25.768223837218446      28.644256258506715
   157   1      21.351572866356019      27.187916303907873      1.3138162540743337
   158   1      22.933255700357538   0.0022597944526523894    0.088469435193724022
   159   1      24.341347975677063      1.3413863499725838      1.3301957485202238
   160   1      22.885137739735519      2.8467040180074044      28.555896235683718
   161   1      24.577177353625032      4.2494581750967129       1.318014328998141
   162   1      23.031699439631403      5.7003816350576297      28.675796067139174
   163   1      24.475008022755755      7.1175210835721447      1.2034654030979015
   164   1      23.055568885154887      8.5193134535811144      28.480979868081121
   165   1      24.523080034599232      9.9642133976273168      1.3863007599722215
   166   1      23.113885510184616       11.40336662090168      28.647451569859314
   167   1      24.387570372167783      12.742205644672053      1.2434353930750934
   168   1       22.96278219435656      14.412907532517648    0.056914061755946994
   169   1      24.407158404774105      15.805636838773689      1.5922907352774009
   170   1      22.947267954641763      17.152776877335235     0.11060700922014365
   171   1      24.458274437755101       18.69341565600266      1.4097684073173566
   172   1      22.773678027013787      20.000935196067601      28.696780253723844
   173   1      24.563183653984986      21.677984902371925      1.5258286820905487
   174   1      22.791947418370018      22.951130152961913      28.694548059967687
   175   1      24.481900184820802      24.399253765850197      1.2649983263094786
   176   1      22.818693409877223      25.704200526292762    0.094001324805162587
   177   1      24.287366342028118      27.076170011290287      1.2761599203625789
   178   1      25.849981353573657      28.554197065172577     0.11120844799486355
   179   1       27.30233033613484      1.3239094663415141      1.3021876735852635
   180   1      25.908891759097703      2.7281638277607065      28.688699205297855
   181   1      27.305240911011968      4.1053885892329696      1.4264138803246273
   182   1       25.97349938051515      5.6130016667027878    0.030774617363897368
   183   1      27.437863420216985      7.2140291896999882      1.5960294404871878
   184   1        24.5493064286078      9.8201635251987991      27.207387624031785
   185   1      26.034143092093657      8.3191059187109158      28.639673574459039
   186   1      25.792986245088581      11.592398558779268     0.04734245071628039
   187   1      27.050013397438562      13.142623866762206      1.6445267373604684
   188   1      25.732799121040419      14.109641805815828      28.625097769490711
   189   1      27.119965985380038      15.913407990512114      1.4717240494710935
   190   1      25.908545189494831      17.284078452518482   0.0039554810976483046
   191   1      27.274925938710812      18.536670754293528      1.3837014912543051
   192   1      25.799671054322992      20.061269088108997     0.17334418186645728
   193   1      27.228789336200759      21.517695979707067      1.4758825383123164
   194   1       25.80265106089518      22.733555245885437      28.587583848066302
   195   1      27.339892633091942      24.489431945228603        1.36370718298091
   196   1       25.79291383389781      25.929017381817648      28.585003424619401
   197   1      27.290656376368272      27.222400975322675      1.3457769532146477
   198   1     0.19284384768641316    0.039830803467543904        2.74438089493658
   199   1      1.5505734212679385      1.2692450690372528      4.4467703498899835
   200   1     0.14035577200576235      2.6223618376931181       2.891669999309324
   201   1      1.3642667837355011      4.3535871228995893      4.2547209268048416
   202   1      28.635919618685381      5.5538152896218609      2.7070485168600849
   203   1      1.2852647531173824      7.1775471792875711       4.232534390293555
   204   1     0.06356799764425955      8.5971378863317423      2.8277105705146823
   205   1      1.6161350475735183      10.177737876008086      4.2808357667408679
   206   1      28.571045476281952       11.35881982846297      2.7237786200648433
   207   1      1.5149511913576943      13.033320793284336       4.061137748837699
   208   1    0.052382857115072706      14.539275143197166      2.7345208266897987
   209   1      1.5426259556689625      15.807737277600387      4.3377173131991844
   210   1      28.559291725360467      17.372347177285373      3.0988773338199938
   211   1      1.4973988915999725      18.597666490166088      4.2759368082155413
   212   1      28.676685724973229      20.003877594209687      2.6930352708897529
   213   1      1.5785331624064975      21.467143389843422      4.1445847505271605
   214   1    0.039986296527412674      23.128294046024539      2.8039353253073944
   215   1      2.9719318981340868      25.925527643659059      2.9004889331269461
   216   1      28.630400709187072      25.869899193786456      2.7499897548500263
   217   1      1.6167043926940348      27.107599740536934      4.3268293929489827
   218   1       3.002675872640217      28.664137059596346      2.9013245928001767
   219   1      4.3820813494488506       1.436091501403292      4.3228991503892233
   220   1      3.0231127871727499       2.774392832617536      2.8989317378983861
   221   1      4.3274962183244217      4.2923144632999772      4.2519062352383568
   222   1      2.6952256574919944      5.7115743220310593       2.781988049708513
   223   1      4.3914041913888529      7.1185465214468886      4.2390445283592477
   224   1      2.7213402743136719      8.5807714455003747      2.8793031377946861
   225   1       4.199126575888009      10.059809320390388      4.2365722768564762
   226   1      2.9887539768151585      11.597872203107139      2.7401458285609004
   227   1      4.3320239884801808      12.981479587227927      4.2728790886339452
   228   1      2.9739326647257842      14.290043809514813      2.6948081334069802
   229   1      4.3348986592474166      15.629751139225355      4.2015011512496576
   230   1      2.7715513323989742      17.216307033427988      2.8945734434179462
   231   1       4.330504374097913      18.348660987602202      4.3044858501148937
   232   1      3.0617179060202395      20.344387415083581      2.7101456627737091
   233   1      4.3744728888672597      21.627992765346278      4.2387905348022263
   234   1      1.4371190380330652      24.459762845824532       4.034917752443719
   235   1      4.4007124343159809      24.500584302204775      4.3738191174880718
   236   1      1.6241802944805839      27.171957261800262      1.4515636359911019
   237   1      4.3723437235596521      27.309874370035079      4.3795359309313637
   238   1       5.906742773207414    0.087800921485870903      2.8400544716782838
   239   1      7.2179119958183051      1.5600770251465963      4.5885133678909424
   240   1      5.7198470995347614      2.7661628430299512      2.8721669585081564
   241   1      7.2460106008396208      4.3942339338089944      4.2364789093046022
   242   1      5.8716446134914344       5.803830957188775      2.8743750856829249
   243   1      6.9389042689915996      7.4702294490241572       4.296721357698309
   244   1      5.7478961242022768      8.4892859698233831      2.6741644683426213
   245   1       7.320826368074135      9.9195072144547929       4.340297254325745
   246   1      5.8219570039824644      11.643302693091528      3.0120365893667174
   247   1      7.1499673854923662      12.754909393005928       4.599259407592684
   248   1      5.8253954471239107      14.213259628994166      3.0718452384547157
   249   1      7.3172226011076313      15.955546528909771      4.2822341037461493
   250   1      5.7806534531774787      17.310463591351283      2.7070255399763949
   251   1      7.2241778810515864      18.712557301001688      4.2043143957425961
   252   1      5.7845204730466566       20.10556628135275       2.716616181942721
   253   1      7.0529875356014902       21.39672696788751      4.3360278834893258
   254   1       5.809883220463135      22.990504944283025      2.8370183860101288
   255   1      7.2067348052681801      24.363412808870784      4.3796004894662284
   256   1      5.8247328930796671       25.82692522880761      2.9684065524944052
   257   1      7.2287598994610791      27.410723076481073      4.1193535054038666
   258   1      10.144388547867599      27.231917558952293      1.5891054770865354
   259   1      10.072497047497194      1.1736366448514899      4.2545247943678488
   260   1      8.7406702861909498      2.7058380451673556      3.0219011457553071
   261   1       10.04216537744443      4.3834866983648872      4.0084765552076842
   262   1      8.5550454466780241      5.8201142062660782      3.0544724042746467
   263   1      10.267996091828199      7.1152337472612919      4.2127950923608433
   264   1      8.6174230309635771      8.5315259800210033      2.9822129789603258
   265   1      10.044282960724601      9.8107725834828408       4.522729073952604
   266   1      8.7164286476356239      11.414967556780091      3.2379697773284177
   267   1       10.16697014348283      12.856769914707103       4.314845487655071
   268   1      8.5406648391470465      14.345036366313822      3.1503038509501264
   269   1      10.284037358204055      15.738809419604559      4.2411642343532696
   270   1      8.6593985873707133      17.212190199563128      2.7870064596986941
   271   1      10.247091827242095      18.446153544111723      4.1811667010286593
   272   1      8.5146907510124166      20.081404221026098      2.7545569340514477
   273   1      10.121123460082897      21.387390039251574      4.1617270982115011
   274   1      8.6949021835029683      22.944627059722226      3.0185436375949157
   275   1       10.21338450376653      24.473906798108683      4.3002773959732492
   276   1      10.014905683677995       27.29837525279687      4.1490008325381913
   277   1      10.104899292061798      1.2832436224368049      1.5276167595743682
   278   1      12.871701949455495        1.44312792118435      4.3240117197463563
   279   1      12.859743778088998      4.0947658803199749       4.257309003463349
   280   1      11.640672219734588      5.6836213273343184      2.7949628694784683
   281   1      12.986940410889767      7.0410652007883536      4.6858748153577476
   282   1      11.594144840101581      8.4610363817970278      2.9492667432351163
   283   1      12.811113278582972      10.056223520650908      4.2408622655241839
   284   1      11.319897523388994      11.348700715806212      2.8681040536569644
   285   1      12.924831390771333      12.825283670266732      4.1131411122480017
   286   1      11.597934593506531       14.21830943126769       3.058918423508123
   287   1       12.94205293858642      15.802095932642111      4.3432185874550759
   288   1      11.554882218839346      17.236574507027608      2.7374175775665428
   289   1      13.104350504979724      18.797922807860928       4.288569427865724
   290   1      11.374365308453216      20.092404975268472      2.6946153570105817
   291   1      12.962107604755595      21.402262071877985      4.3153819805762499
   292   1      11.527960260435428      22.940278570051323      2.9432955348142467
   293   1      12.844270872961978      24.431440137415599      4.2710138778836786
   294   1      11.669636257917166      25.890900392612178      2.9054168319420208
   295   1      13.020465844361546       27.45473235791637      4.2832634202139168
   296   1      14.432669667372453     0.10774763308435266      2.9943445740506553
   297   1      15.754647024124571      1.5515982606091363      4.2435045795255784
   298   1      14.434642454034234      2.7269047820470176      2.8557742324515627
   299   1      15.603980312798535      4.2726070218150172      4.2427905679990108
   300   1      14.167060558083911      5.7248640083735651      2.7845288056575104
   301   1      15.769493017718007      7.1129800121479079      4.3480908177860078
   302   1      14.162669364892777      8.4951397777276973      2.8883864549815201
   303   1      15.685878352085187      10.026795021099931      4.1637982137106428
   304   1      14.176102080199023      11.453541226623486      2.5870551831165476
   305   1      15.474404193982975       12.85880902880151      4.2118192102578904
   306   1        14.3445372876332      14.449711844730656      3.0662450846999048
   307   1      15.922501645012494      15.862916789044764      4.2363080101556374
   308   1      14.475135307689525      17.194954185104187      2.9122637554220407
   309   1       15.89957672134617       18.83936561902933      4.2682787929029908
   310   1      14.459309472364948      20.107718304679821      2.8651358482786229
   311   1      15.762298996891564      21.501812548555158      4.3805653845807937
   312   1      14.146505829421189      22.868102452193654      2.8213840016199248
   313   1      15.710287633623603      24.141683899793055      4.2922921771666767
   314   1      14.299342684105341      26.028565147525242      2.8765204649845582
   315   1       15.74345412130633       27.42115512246475      4.3131718921772801
   316   1       17.38737146180166     0.21488656354517846      2.9849692010521629
   317   1      20.039257722916425       2.975846576766243      5.6133614860641297
   318   1      17.175519129374798      2.8724503261490804      2.9893386813991603
   319   1      18.447516759282671      4.5573651070087271      4.2528873617474972
   320   1      17.037999513208799      5.7398000490136019      2.8664911634665597
   321   1      18.545202552838955      7.1188070999561335      4.1312809796422076
   322   1      16.913081808624675      8.5842042088687656      2.9704001245981426
   323   1      18.550217557262297      9.9548106994311496      4.3112375483021426
   324   1      17.164553822021158      11.423553736499688      2.8993812846812261
   325   1      18.583760396391988      12.824438629626545      4.1904410688941907
   326   1      17.326190373399598      14.223759066387446      2.8459130915095776
   327   1      18.682529796521838      15.702349388754842      4.1354996998538711
   328   1       17.27239149636388      17.118598356718824      2.7079183500606736
   329   1      18.713972348829415      18.639639853734995      4.0279757121496367
   330   1      17.082886397605559      20.087471356110573      2.7728926476263371
   331   1      18.558090603589037      21.542790652365184      4.1102372356242363
   332   1      17.260912032955815      22.963357703542815      2.7203840401253934
   333   1      18.536296017168642      24.311735562829622      4.1421158687850959
   334   1      17.004177928583712      25.903027560761284      2.7364265996320682
   335   1      18.641095305798761      27.212093014874924      4.3484180009527087
   336   1      20.098794271108662      28.661201777845179      2.7562851430417581
   337   1      21.493588336559711      1.4933901626496544      4.2992754897222873
   338   1      20.061533726068934      2.8310185095714337      3.0090662756015121
   339   1      21.673588122998236      4.3895911805216663       4.277686535201334
   340   1      20.113177789221531      5.5904090359335417       2.786388619275828
   341   1      21.417314786334483      7.2502290917832575       4.223618635168755
   342   1      20.270202562921778      8.5143233723154506      2.8546784695792549
   343   1      21.535302370751172      9.8053060380979904      4.2641243577731709
   344   1       20.06700634424887       11.53476858569169      2.6817053493155876
   345   1      21.445561015227113      12.747128636227302      4.3086113361127305
   346   1      20.115118360242352      14.075461768735666      2.8754604464683351
   347   1      21.528631076842025      15.774606948491018      4.1514179195895524
   348   1       20.14949189545624      17.083448701237934      2.9314620516642385
   349   1      21.518507861362011      18.669342708732792      4.1898702541377739
   350   1      20.248293166360849      20.176256409364491       2.782688064674379
   351   1      21.460047056029786      21.653474502947507       4.477016314916197
   352   1      20.214352931496915      23.029488803889134      2.8764474971286424
   353   1      21.557426072389713      24.532535966709332      4.1218776557985244
   354   1      19.663644892195308      25.854145496046257       2.637653851109667
   355   1      21.382574704806203       27.13951162203514      4.0336323820410822
   356   1      22.820907975007945      28.672697829165546      2.7258262998473137
   357   1      24.389044860303628      1.4557924994507401      4.1469868151113189
   358   1      22.962712661145652      2.9442556831503999      2.7641401696167005
   359   1       24.47143142970334      4.5399446923731688      4.2129480790066465