dump/Fe_1050_20/steps_21 (written by ASE) 

1980 	 atoms 
1  atom types
0.0      28.699999999999999  xlo xhi
0.0      28.699999999999999  ylo yhi
0.0      28.699999999999999  zlo zhi


Atoms 

     1   1       28.49966477688794      28.691115860080419      28.582144826008506
     2   1      1.2909727132916144      1.3983966731534234      1.3688690723432277
     3   1    0.022945270064260184      2.9471060525213972      28.620238599435314
     4   1      1.3689701061889641      4.3688049230937196       1.380922547169688
     5   1     0.26028369122868783      5.6962385996586988   0.0023532527172392282
     6   1      1.6100411669886967        7.35818874477593      1.3920529920581097
     7   1    0.068957230800697808      8.5459498278766031    0.029372975834576279
     8   1      1.2229163792334692      10.183556125242934      1.5454095714383598
     9   1     0.14468630345174968      11.476003238140541    0.042366266962153634
    10   1      1.2878996709564263      12.887919806342863      1.6362578669765293
    11   1    0.034941786943194129      14.334179742433347     0.13995603280551433
    12   1      1.4284852282926079      15.869647754047252      1.6313340118690813
    13   1      0.0992378639508983      17.003760556379344      28.631714460217399
    14   1      1.4270729146428041      18.540378217387623      1.4780100241982725
    15   1      28.550739085582283      19.802253989546742     0.14667532014427712
    16   1      1.4105705370464554       21.42830741847467      1.4934346791188764
    17   1    0.091701669332316216      22.884154784730061    0.081303084982562251
    18   1       1.508816485673232      24.447587113201465      1.6088977995454665
    19   1    0.034941152349053303      25.743381021618102     0.13214598563738492
    20   1      3.0458188283687027    0.066872609500434749      28.645562973466784
    21   1      4.3581157763051372      1.4218875098598462      1.4758506859659177
    22   1       2.835147916432041      2.8098176611896535      28.698208400659485
    23   1      4.3942776960204464      4.0927143528270076      1.5238224611372178
    24   1      3.0177226391009193        5.72787572344778     0.10248596834624095
    25   1      4.1743581212632597      7.1616985036671341      1.7463427772532552
    26   1      2.9314692364877319      8.9879739966344303     0.03154312050107827
    27   1      4.2141259491851768      9.8646298634971199      1.5534920098240048
    28   1      2.9839615578734509      11.559170358764986     0.35557156761038838
    29   1      4.2198487974607541      12.992546514868835      1.6152867194248526
    30   1      2.9324430089607065      14.384506495546916    0.070045446223821264
    31   1      4.2926432099965286      15.745638720753108      1.5493905431946571
    32   1      3.0459329714011631      17.114660528988509     0.16875416930919304
    33   1      4.3916298218541714      18.441651643130204      1.5817254009175694
    34   1       2.857845000043552      19.931284485743333    0.087655843704430886
    35   1      4.3569647201819075      21.399525458586258      1.5206764630185254
    36   1      2.7482738649401437      22.894378837885725     0.15145719016276196
    37   1      4.3184659432927983      24.638151491161878      1.4911429354306152
    38   1      2.8490034056947282      25.767397453697559    0.039167045934993927
    39   1       4.476003841799792      27.238079985421042      1.2613170862970597
    40   1      5.7706265510174051   0.0023609533424081963      28.581633719804174
    41   1      7.1908029145351779      1.3721119691662469       1.361321584230939
    42   1      5.7789420859364915      3.0792407783405635       28.59040250347002
    43   1      7.1283112744712742      4.3572709261968807      1.5431755664722795
    44   1        5.76768046239326      5.8817035106839564    0.067296841271593077
    45   1      7.2937715953610924      7.1778483441597407       1.697179979207089
    46   1      5.7905475239410835      8.4995441562726608      0.1996087575420688
    47   1      7.0767875167267356       9.929847485537012      1.4639902413826464
    48   1      5.7703688309503267       11.55373070707417      28.687434000151626
    49   1      7.3085965016698289      13.009253605285918      1.4363708826348336
    50   1      5.7462246364457403       14.21051458809986    0.078838235446699059
    51   1      7.3083953206508481      15.696317065987841      1.4065367016368906
    52   1      5.6666734550808213      16.965555768198421     0.30532650198353045
    53   1      7.1809203400751542       18.70647553293519      1.5569144823478602
    54   1       7.101218725854519      21.424779989796917       1.541662487453983
    55   1       5.504786592473689      22.819430944612755     0.15925795740997728
    56   1      7.2125707469882316      24.243337813791996      1.3724634104610234
    57   1      5.6754937979047719      25.775983298424229       28.66214629138868
    58   1       7.142477798407592      27.113873941703048      1.4050371116749722
    59   1      8.5900519448296002      28.624042881921316    0.065656654439646786
    60   1      11.219571774453023      3.0735266413266769      2.8465026072668582
    61   1      8.4585109585140632      2.8291864379750553    0.035266891522314874
    62   1      9.8946779194818095      4.4329737268273171      1.3287248067545645
    63   1      8.5308041659291884      5.8448401170656652     0.13805533752996563
    64   1      10.104528706695815      7.3479050562840467      1.7548836984030898
    65   1      8.5444969433393858      8.5850604721735575     0.22718727084660495
    66   1       9.892204141831245      10.007899609904069      1.3572730887938869
    67   1      8.5309785228727808       11.56248055452301      28.583281134548319
    68   1      10.150904482479158      13.018968700931273      1.3116682625521534
    69   1      8.5647185308032032      14.389876260279262      28.532081988817357
    70   1      9.9075705574587936      15.760441101630635      1.3693472924296657
    71   1       8.662719852695604      17.056964043078533   0.0011307317427622352
    72   1      9.9238730264480939      18.623748604313942      1.6137357982351215
    73   1      8.5101317784298125      20.002489672058665     0.07730773741255903
    74   1      10.025540931695927      21.262261756811192      1.2736511925864085
    75   1      8.7001925130580933      22.835532454304236       28.66440659247613
    76   1      10.149913498182181      24.108144437703416      1.4718412895845163
    77   1      8.8469003425518942      25.704595111437335    0.070045465683233457
    78   1      8.7439664129701349      25.794639613946273      2.7981228966098115
    79   1       11.48059937447435      28.597314930946755      28.517200680358318
    80   1      12.823137353529763      1.5510241945288494       1.278333464011528
    81   1      11.262630679524731      3.0262893345750275      28.519758817383181
    82   1      12.740357332094915      4.4722666944719114      1.4139298097422386
    83   1      11.381751053193975      5.9756034794406707      28.506695868299207
    84   1      12.849606668102501      7.1189647147575386      1.4877383069365246
    85   1       11.47934656865414      8.4791878944226458      28.658623870630127
    86   1       13.10223906799928      9.9809795141940061      1.4324791936570367
    87   1      11.606378726923547      11.367604874471175     0.21997945837382529
    88   1       12.98389502912041      12.866913851570235      1.5318554930475663
    89   1      11.625959282694494      14.532719457864832     0.15111867081496946
    90   1       13.27918940288116      15.701738483191431      1.6779157677624654
    91   1       11.44635490795247       16.92730139490974    0.014108009056371868
    92   1      12.890108295782936      18.624400710973706      1.3545341092650225
    93   1      11.305385149084545      19.947521356812601    0.012415671616361132
    94   1      13.040431843382883      21.203035962844066      1.2318145310359352
    95   1      11.574872817996724      22.790684598424388    0.017437366116485015
    96   1      12.816617751837045      24.366600102844419      1.3575637115131722
    97   1      11.325095609085198      26.080811358399675     0.35018569301668234
    98   1      11.436231513308174      28.533490990875862      2.3606851543534488
    99   1      14.275900615394043      28.585118356368202      28.481825799318969
   100   1      15.646383760220745      1.4572103274294252      1.4645338674835446
   101   1      14.095958601124801       3.190214015072232      28.666759861685254
   102   1      15.676536265057308      4.4931384822844143      1.4245494667250911
   103   1       14.24356022843773      5.8016529164644277     0.16348888390990612
   104   1      16.019327287150077      7.1464758020470835      1.1591767045173014
   105   1      14.411671525286298      8.4901518662909243    0.040447904651353055
   106   1      15.777890232498601      9.9864727894992704      1.2549209084810853
   107   1      14.330613130375832      11.752088810428191      28.666391785010781
   108   1      16.028963660236023      12.796840312265457      1.4271961189910272
   109   1      14.368098179753845      14.308683104234227    0.066234159413102137
   110   1      15.760897288030852      15.760737595659835      1.5685308231048349
   111   1      14.474067467504327      16.992135129584305     0.16518907963743457
   112   1      15.816514385225585      18.733217308272298      1.1373426176696622
   113   1      15.809899072521548      21.559610655375614      1.2432216483267555
   114   1      14.225534556117838       23.01407082438547       28.63393310485533
   115   1      15.557035901624879      24.316720699773164      1.3719214759488181
   116   1      14.103035320144581       26.04970194678852      28.614740898314469
   117   1      15.510296198798642      27.469861711218826      1.4809398129838203
   118   1      17.045419848076033      0.0920357266995325    0.011766547512854688
   119   1      18.533494776157358      1.4043104463197322      1.3409032847209006
   120   1      17.115787423595567      2.9444159687528848       28.48284522101331
   121   1      18.536899041999654      4.2883141842437542      1.4068136265907456
   122   1      17.307556115118022      5.7632346689659615      28.623399334962347
   123   1       18.71633379942767      7.0863161962343417      1.4300264812639285
   124   1        17.3073622035566       8.664367044400441      28.623297017589898
   125   1      18.733888460472823      9.9319185686527369      1.4392494786956826
   126   1      17.362953799579916      11.385000220499366      28.522244360268122
   127   1      18.694188096760392      12.970236111116842      1.4259316862372873
   128   1      17.227445640528341      14.346274687890554    0.012903715430104514
   129   1      18.937383844481751      15.801290039330866      1.5256220221833472
   130   1       17.25785150957114      17.287091492069351    0.085175699462104057
   131   1      18.511558365772181      18.588401231383894      1.7488050145881628
   132   1      17.406856479075955      19.823994764587638    0.093950731100164969
   133   1      18.501180438779407      21.644905260545002      1.3875788762165826
   134   1      17.106423940666602      22.985722328248617      28.663035659147312
   135   1      18.561493161120719      24.441896166840955      1.4499236318733766
   136   1      17.168177826913407      25.948272173950748     0.12200823571880606
   137   1      18.451811026257449      27.184757785037601      1.4315808448902421
   138   1      19.951312720846087      0.1788590320902603      28.640885786535822
   139   1       21.31102916056145      1.3301520597546872      1.3793320574904548
   140   1      19.894283293090396      2.9368716369546277       28.53725716224335
   141   1       21.49945735516614      4.3832637702814115      1.4186181970152572
   142   1      20.068124382758004       5.699592891870612     0.13710639642529254
   143   1      21.690772769878375      7.3652068354286193      1.4252385655969524
   144   1      20.138687822583101      8.7306950441371214     0.11612408791534115
   145   1      21.468282161501417      10.072028314017784      1.3042142088532964
   146   1       20.09248623716049       11.47831696607366       28.59135156299357
   147   1      21.498944004390065      12.955373731334459      1.4164818646990969
   148   1      20.123754668507381      14.396254293638767    0.048292795939573828
   149   1      21.546923412711561      15.705842597635334       1.498904832342056
   150   1      20.175150575897241      17.069844922323963      28.570371158163269
   151   1      21.430324316853834      18.584298783362634      1.4366154595199652
   152   1      20.029950550938903      19.909698179284934      28.610324265987742
   153   1      21.332759545193088      21.349299944448166      1.3683361988074449
   154   1      20.077753558605426      22.913488141442819      28.668135910067733
   155   1      21.489523152931085      24.405701644436849      1.3557353145938231
   156   1       20.20332755445498      26.052342315148888      28.536632874707411
   157   1      21.434392849674396      27.354006154470554      1.6734418137499012
   158   1       22.78987548114468     0.11329854901536192      28.617395192683777
   159   1      24.395348283503331      1.2384381367319635      1.1981489133354679
   160   1      22.659231923606857      2.7049229152416734    0.013426520462405717
   161   1       24.27392635287255      4.1608884096565903      1.4122412089204888
   162   1      22.863347750366316      5.6723059283775754      28.696323147181236
   163   1      24.429218515742079      7.0392906503759347      1.2718568660373317
   164   1       23.05426698060786      8.5586678066756949      28.691594443200401
   165   1      24.382117670901774      10.161001208279588      1.3752076001430955
   166   1      23.000465325865029      11.467639110856981    0.072172240494728562
   167   1      24.407905460911309      12.857423264867011      1.2023589075505814
   168   1      22.868132869790145      14.261797738287809      28.573517889654475
   169   1      24.328219990126382      15.820044458755255      1.3621804117178606
   170   1      22.928817077159177      17.027681603425261      28.642220571742058
   171   1      24.429302471020335      18.498859611152852      1.5994846763900916
   172   1      22.825520017055467      20.256569958719144    0.093612915929247836
   173   1       24.36121189821451      21.374613990623384      1.5510517579313938
   174   1      22.861690251532234      22.904042060581823     0.23863571965489416
   175   1      24.470492375249304      24.325309763561009      1.4811085627747844
   176   1      22.859206607946639       25.89930845409981      28.511669626364522
   177   1      24.325741460917406      27.199175616146714      1.2986980656128946
   178   1      25.829583163610735      28.571534558590105    0.081255791713294931
   179   1      27.369290194647451      1.2937953237751918      1.4631203249477152
   180   1      25.841909673257497      2.8034825322417185     0.17132676201487135
   181   1      27.318294219459702      4.3240089604839289      1.4272587853688725
   182   1       25.76281366328735      5.7262380737655718      28.646445175885809
   183   1      27.156163864180382      7.1761009829053037      1.5654892246184775
   184   1      24.437023962286215      10.077364652589514       27.33369372641809
   185   1      25.795957329993364      8.5433138727471185      28.664760128701928
   186   1      25.851366231938485      11.424938618923477      28.618635727088332
   187   1       27.17595883873139      12.907626147046326      1.6330495220267733
   188   1      25.990432351893439      14.166824613307895     0.13663850620338286
   189   1      27.351770233515879      15.551575773017079      1.3053909252068034
   190   1      25.947806296632749      17.006888534070857    0.001710659138962001
   191   1      27.244800513793283      18.621675222116334      1.5101528002036175
   192   1      25.808838988492958      19.993702511708946     0.21052152877983865
   193   1      27.284797425374592      21.399238082857817       1.509412540070354
   194   1      25.731298305572739      22.923805267443381     0.10819179355801233
   195   1      27.210005813274233      24.262824354241673      1.4451493212981732
   196   1      25.888166432029209      25.764149451620742      28.527877102697943
   197   1      27.187908873861186      27.145498902677566      1.2312825392588478
   198   1      28.616794828031743      28.528460838972279      2.8636126440426435
   199   1      1.3697953096550683      1.2666806261350523      4.2614522340306564
   200   1    0.061084698549621411      2.8709507775857124      2.8747159427932569
   201   1      1.3515865357317469      4.2220774729297208      4.1484730938531724
   202   1      28.683664698229993      5.9118205109615243      2.9214524680286531
   203   1      1.3575311861530173      7.0580986895744529      4.3987035865475521
   204   1    0.017982127245353016      8.5369990407230905      2.7813857609646777
   205   1      1.4865206819782197       10.19080938878815      4.2983706763749563
   206   1      28.625564232361146      11.692975316993271      2.9528765855906238
   207   1      1.3444119416241296      13.046683145042905      4.3897128579226994
   208   1    0.053209461309735154      14.382667714336062      2.8880330747671041
   209   1      1.5841799903315186      15.868972823761361      4.4853129925065351
   210   1      28.574282373024918      17.342902808750125      2.9659390646355113
   211   1      1.4686068168500244      18.681062553170161      4.3700771015255429
   212   1      28.612294304253897      20.076891803707067      2.9372825908647426
   213   1      1.3141148432825158      21.568481855539765      4.3104846797748868
   214   1    0.081978817649452904       23.02237176584168      2.7731095718775336
   215   1      1.4482497614775534      24.517925299507425       4.347447647208754
   216   1      28.699353842226774      25.793460813807535      2.8399842285642536
   217   1       1.628099973516044      27.090966764713947      4.1446790527507602
   218   1       3.145365340030744    0.028400376646061602      2.7857728866492488
   219   1      4.3115594235519898      1.4190536224543859      4.2083858611722613
   220   1      2.7536309616179673      2.8025695563561595      2.7772006205040052
   221   1      4.4011245768196341      4.0335093721629933      4.2882185577816916
   222   1      2.8294996143423421      5.6659524267068404      2.8464955560326861
   223   1      4.2330834136144677       7.077137276498604      4.1794698962668564
   224   1      2.6199468579453669      8.7160409702626289      2.8990097731594693
   225   1      4.3582412428198261      9.8217716077495698      4.2903035580771975
   226   1      2.7776338124567945      11.637653684981441      3.0580703138602181
   227   1      4.5575022070706526      12.905111669607688      4.4095011875836594
   228   1      2.8575893254660754      14.330203900747795      3.0359395244733718
   229   1      4.3546548879030444      15.719455644140066      4.4913849340299183
   230   1      2.7948413154052103      17.229798732065937      3.0294215326097715
   231   1       4.410830098766974      18.615082103893176       4.217229681578007
   232   1      2.8990746585530709        19.9718953395613      2.9122037396516918
   233   1      4.3089301616544038      21.271838233281439      4.3177252738527931
   234   1      2.7334296372589972      22.923593166904446      2.8648193452882769
   235   1      4.1204680366312703      24.448772214170013      4.3337182117343245
   236   1      1.5618885605896724      27.375097216326779      1.6050771162139754
   237   1       4.571716453293643      27.241925566212345      4.0927263054185712
   238   1      5.6638170521826723      0.1412667376139668      2.8763474630183623
   239   1      7.2328127860332803      1.4111720764038866       4.239019367929818
   240   1       5.935417804581717      2.7760639202162669      2.8533092671739615
   241   1      7.0792788577758632      4.1628605830858776      4.3398239464423041
   242   1      5.7384882904799399      5.6357239248716811      2.8791458840234667
   243   1      7.1366669169225441      6.9542442829474291      4.5075134436134219
   244   1      5.8596248901083889       8.497452517792178      3.1282015060393151
   245   1       7.075225068745711      10.206152861843741      4.3065233681655339
   246   1      5.6835527474943044      11.444706196615664      2.6880481526360978
   247   1      7.1643560199232335      12.847512213341986      4.3772515209095619
   248   1      5.8290661295144544      14.205607151737683      2.8169454793370958
   249   1      7.3910806364969428      15.665785305765588      4.3929407503773454
   250   1      5.7468662925593241      17.080730325856123      2.9898341058703934
   251   1      7.1316683003912793      18.839463976514157      4.3147328449256737
   252   1      5.6432873122993525      19.951579908488227      2.8910907147165035
   253   1      7.1995943935790443      21.465620097534341      4.3844204160783757
   254   1      5.9428563436671036      22.945009436235821      3.0900946630053321
   255   1      7.3257465592228934      24.403589074121818      4.2557847338441297
   256   1      5.9057262843717968       25.74477444562104      2.7870429130084182
   257   1      7.1202789196238365      27.536358160486195      4.3122008753091201
   258   1      8.7766450911808089        28.5642444279747      2.7135257438033369
   259   1      10.019578757176671       1.319405584372896      4.2178274109332836
   260   1      8.5872542836388561      2.7523290421239817      2.7329624110356918
   261   1      9.9283696643992787      4.3086932374865814      4.3240867953854902
   262   1      8.5564125074516557      5.6194571236765842      3.2195540790469717
   263   1       10.02556527842893      7.2339656262067722      4.4437110439878094
   264   1      8.5517284015495161      8.8024824710650549       3.049781143491836
   265   1      10.014237068261771      10.148212570811429      4.1592966255545019
   266   1      8.4896489950771841       11.54544097810253       2.701097034850636
   267   1       10.09306714111476      12.975990576043012      4.1118862934455809
   268   1      8.5918657461065244      14.179531510996261      2.9163753201550842
   269   1      10.067953729554945      15.653372107954723      4.3085761173141224
   270   1      8.5586061095064299      17.148868995219303      2.9149425248246228
   271   1      9.8048449485425984      18.638746032175668      4.2349339423263102
   272   1      8.6536090862067834      20.227350985987741      2.9023212700943581
   273   1       10.01143539978618      21.473543043640941       4.050646046179029
   274   1      8.5727504097956047      22.826463916609498      2.8611928279490266
   275   1      10.067236841983355      24.474974947601936      4.2410468958171172
   276   1      10.047196395247834      27.257057524015519      4.4059662906517101
   277   1      10.145551956746781      1.4537648247890957      1.2982558223024516
   278   1      12.986244773505293      1.5557089060089533      4.2355194846340991
   279   1      12.837685351188904      4.5138332533022458      4.1727080545412329
   280   1        11.3073911005198      5.8590943070178554       2.970889723624798
   281   1       12.89691157912962      7.2535263838138073      4.2241578797631041
   282   1      11.412469876602307      8.8940818698772883      2.7493165981342482
   283   1      13.008367019900209      10.114094036201976      4.0593882360685631
   284   1      11.444585038448798      11.581417240724408      2.9433620470460511
   285   1      12.979192785685466      12.769491912099573      4.2186125886300117
   286   1      11.614061876194343      14.334302173012178       2.880505250772607
   287   1       13.00152318226402      15.699969062180886      4.3512026918872841
   288   1      11.629333087146851      17.014826574110032      2.8774723055677591
   289   1      12.845732538549161      18.734255615781343      4.4372289066165651
   290   1      11.468655102958795      20.053832481254528      2.8019406362875654
   291   1      12.879274142361801      21.520184773814734      4.2752069893653122
   292   1      11.584959210167337      23.039209009111516      2.8728016798536542
   293   1      12.859218434043868      24.340748276395662      4.3477056266269978
   294   1      11.396796971659564      25.791002821117285      2.7768208055264143
   295   1      12.868920202050699      27.315074925999891      4.2039226624459953
   296   1      13.871081128281212    0.019027888378161769      2.6164543371234688
   297   1      15.698906626423259      1.4580015149750698      4.3950170821931289
   298   1      14.238396258657385      2.9202104796382913      2.7455760758251686
   299   1       15.58120997662464      4.3221312956707036      4.2755937662836994
   300   1      14.350409806587839      5.9976095977113992      2.8406410518964429
   301   1      15.881921542824674      7.1515840287031889      4.2997210557860823
   302   1      14.394681696353965      8.5096977897994197      2.7665193314188969
   303   1      15.755775991087251        9.97243008161667      4.1157991023166218
   304   1      14.456806035499829      11.457222271810133      2.9986454069032424
   305   1      15.986397054830469      12.905092102747815      4.3799229077589974
   306   1      14.557517331404492      14.194142898157276      3.0399548611405218
   307   1      15.839803084448976      15.854657718621803      4.3335597428396042
   308   1      14.434737781798898      17.328699868948107      2.9250923015278798
   309   1      15.844166834061079      18.441970923967965       4.536437527739988
   310   1      14.437847479092133      20.074023925915903       3.032164644699173
   311   1      15.630191701557772      21.563901167881291      4.2886979132289138
   312   1      14.287005414023577      22.964691755939377      2.9940844759415848
   313   1      15.815953516323555       24.55430447147792      4.5030902817762124
   314   1       14.15713936341858       25.76744544005993      2.6815164717709972
   315   1      15.409771854609316      27.276267444705013      4.2762861603414173
   316   1      17.220564255701813     0.14139564372984531      2.8321082355363276
   317   1        18.6887842379763       1.534433580498727      4.2495685047499876
   318   1       17.33896257431077       2.934648553267178      2.8543517522540345
   319   1       18.96713324637723      3.9271776081823404      4.3751995404762667
   320   1      17.120409117381016      5.6442193336571806      2.8836407135576874
   321   1      18.686530199140748      6.9603598313071471      4.2688841895146385
   322   1      17.311781747225453      8.3068659686930513      2.8154370432973557
   323   1      18.855210115554993       10.05644293202317      4.2059792479668063
   324   1      17.243320898887017      11.311059140932967      2.8677104817787393
   325   1      18.614421858536538      13.038742986606556      4.3102114350089442
   326   1        17.3406919509898      14.416861407486179      2.7233218936692194
   327   1      18.553234992379203       15.69186502851676      4.3390097386762871
   328   1      17.203954879245106       17.23421824215389      2.9772622141221379
   329   1      18.669070626660222      18.742645256713342      4.4358241057452812
   330   1      16.954682706974641      19.893475972011672      2.9446667743400492
   331   1      18.596924246791147      21.591524124750769      4.3052430395224048
   332   1      17.072339266856996      22.982142589016483      2.8730511687851568
   333   1      18.477135906972659      24.500544212817076      4.2435172704100044
   334   1      16.904821281170062      25.875980744954266      2.7595433018941757
   335   1      18.571160086237544      27.154047198220287       4.090753575255663
   336   1      20.050072411336149    0.018998629598798018      2.8918151774744367
   337   1      21.322342000106296      1.5589569228108429      4.4220312965348967
   338   1      19.985358335471627      2.8452035413110006      2.5491213887395809
   339   1      21.726244555924168      4.0238052826750721      4.4024274242508898
   340   1      20.083534811324551      5.5262435960745373      2.9839373228004127
   341   1      21.604349316117876      7.0933758014547958      4.2344960424682414
   342   1      20.091636751395402       8.416466716411497      2.9331414158723974
   343   1       21.31598585318882      10.047983974687583      4.2138104384193138
   344   1      20.084249774140343      11.633588050882437      2.6829483251112496
   345   1      21.381287772932598      13.038922130820039      4.3995200779558354
   346   1      20.007271927013932      14.215160199131077      2.8030477292688603
   347   1      21.397584036278154      15.647738406039498      4.4635967663102649
   348   1      20.027720096760884      17.283261862096893      2.9776172583251288
   349   1      21.460234326962354       18.63087099443716      4.3476967461754477
   350   1      20.067411848420726       20.20175609486386       3.071744668140413
   351   1      21.564312198545768      21.336552129978401      4.4410899176189202
   352   1      20.038148990512259      23.013342842492033      2.8445889301325682
   353   1       21.37805111290665      24.574611281636585      4.2749546247477079
   354   1      20.010856100430765      25.823875642712196      2.8140411116927213
   355   1      21.567179066946792       27.36870260876529       4.220014304913609
   356   1      22.768756945489258      28.643875616402966       2.731724758133192
   357   1      24.309291268736782      1.3993712309983377       4.214502369408935
   358   1      22.775346952033615      2.6433382399941241      2.6661922598138852
   359   1      24.372145001555818      4.0037044755346605      4.1956169168772428