dump/Mg_500_0/steps_91 (written by ASE) 

4000 	 atoms 
1  atom types
0.0      32.100000000000001  xlo xhi
0.0      55.598830921999998  ylo yhi
0.0      52.130399999999995  zlo zhi


Atoms 

     1   1       31.81952203722626    0.040493007906156432      52.080058758379487
     2   1      1.4873865795139511      2.6141944836154081    0.085036501194303102
     3   1       1.309840878502303     0.94029855618733948      2.6240253171585062
     4   1    0.013652853916153555      3.7312305616872488      2.6455597607976067
     5   1      32.027123197480087      5.4830416369480606    0.020175507796455456
     6   1      1.6085304610941329      8.2393569226948191     0.11620927073834871
     7   1      1.4316570428808988      6.6792776350211298      2.6712589371983158
     8   1      31.877587198781136      9.2835935351079293      2.5970147723649415
     9   1      32.021662948888519      11.195943549837189       52.01811521821071
    10   1      1.5222235141409828      13.575962578554959      51.933248516246017
    11   1      1.4620587345757172      12.108605225833012      2.4128174959948741
    12   1      31.994065940720535      15.030092706162106      2.1858506318724888
    13   1      31.955212351894463      16.954138519470195      52.082374173403203
    14   1      1.5761261601010916      19.373032032957415     0.11752305246583714
    15   1      1.6304889951479142      17.367695668898524      2.7595528419633077
    16   1      32.099816384150266      20.397689910311932      2.6384453426061909
    17   1     0.20972776307411786      22.165492494962425      52.094969180660257
    18   1      1.5952042803250535       24.96664119983204      51.996932492589465
    19   1      1.6024401801816479      22.791185935445721      2.6490065879760469
    20   1      32.018173982016144      25.556521479141335      2.6592235295514919
    21   1     0.23299251463683002      27.528843111068362      0.2363208403831209
    22   1      1.7456899453221846      30.695204470958263    0.058244978650291268
    23   1      1.6368113180944672      28.471752290104206      2.7625429401752783
    24   1      31.978338468251199      31.169142233378974      2.7122547605208407
    25   1      32.014435089874631       33.01217869975725      0.1015183727413955
    26   1      1.5177828992561349      35.781239099399151    0.044348415522818228
    27   1      1.2474533322960524      34.120813978095484       2.722901185678249
    28   1      32.096520024514057      37.135145551091206      2.6326699145392936
    29   1      31.944104025565832       38.94003667829061   0.0048221697234387666
    30   1      1.6791371060739542      41.881578369491649      0.1984886001553689
    31   1      1.6633884105122705      39.768259045590767       2.686191863533538
    32   1      31.805523330444348      42.570634531208938       2.262485059767517
    33   1      31.923138688949603      44.410624313326409      51.750002437036819
    34   1      1.2894641396597255      47.181942898295624      52.108088800819033
    35   1       1.328166479071176      45.271303376853815      2.4312181835306035
    36   1      32.018614791567799      48.166777868740084      2.5219416623599979
    37   1      32.017770392652217      50.050491223492934      52.097738061574375
    38   1      1.6835618538623145      52.896243004312488      52.041772319580929
    39   1      1.4174470722890455      50.914245740552907      2.6299591925196415
    40   1      31.966249630934325      53.868645758272855      2.6455143773312653
    41   1      3.0991299710369637    0.078672005683613405     0.13443713886470832
    42   1      4.7619424397911434      2.7678103842573347     0.04574852466497898
    43   1      4.6088913948239751     0.78382842813581566      2.6433672662799244
    44   1      3.4127409116385792      3.8581403640226339      2.6137388861213688
    45   1      3.0838502352760231      5.6309124773263042     0.20350889863790145
    46   1        4.91775646637024      8.1606843540063352   0.0017380934369924054
    47   1      5.0718638833354897      6.8034049231661289       2.646836961820215
    48   1      2.9703510034659555      9.3294708660691228      2.7081878954991789
    49   1      2.9711724742757162      11.114314217792016    0.081687517587369612
    50   1      5.0185058732315744      13.790231765200623    0.016243348141061213
    51   1      4.8352130706904202      12.073716279984501      2.4540908691455603
    52   1      3.1445384862483152      14.712694853087006      2.3460680296118004
    53   1      3.1108847549251606      16.545860106237289      52.042961963962163
    54   1      4.8040424719419654      19.427367356349851    0.008963265954660073
    55   1      4.8043835830828092      17.353590454263493      2.2333311651599468
    56   1      3.3557089931578998      20.046883995392104      2.5604375386692855
    57   1      3.2926980330471798       22.36217130373695      52.011212660652326
    58   1      4.7429002177641593      25.153629930124229    0.043342349701894059
    59   1      4.8017792099735006      22.749946560437476      2.4388307902458228
    60   1      3.3190251619014273      25.730127668168258       2.666079653220562
    61   1      3.1663662011463276      27.780332362299614       52.07523661031459
    62   1      5.1602448672398662      30.338591591372605     0.12877599501889134
    63   1      4.8841606473963521      28.665711957083918      2.6956728191210741
    64   1      3.3969178975750784      31.552027725752705      2.7460111521289403
    65   1      3.3829686149718574      33.233547547586141     0.11076308620236031
    66   1      4.7519002416188973      35.881773520164423     0.10773349180696677
    67   1      4.8450124263292524      34.083910809139986      2.6357598557419015
    68   1      3.0917765433751279      36.677082216371382       2.576236373599162
    69   1      2.9617401354992938      38.663728593531182     0.07532476137934814
    70   1      4.5544062520821189      41.483623609183269    0.096525869009949569
    71   1      4.8021777660114031      39.770077682056005      2.6036590808901345
    72   1        3.35687646307372      42.513986389769514      2.7092224093655792
    73   1      3.1162123221208193      44.678454144506937    0.051446397562908766
    74   1      4.7007287505229858      47.314583352922277      52.026139113916507
    75   1      4.6887117952338659      45.258076349095091      2.6734704983859596
    76   1      3.1163293819118434      48.235373336246056       2.489657131510262
    77   1      3.3835852939763007      50.103193718964278    0.063530995850020436
    78   1      4.7935740970723941      53.035042900713677    0.072261514659692189
    79   1      4.7147506623779369      51.021860079758667      2.9019281461469459
    80   1      3.1318625947551282      53.783101046853304      2.6199032056746723
    81   1      6.5834825541845889      55.553578016615127    0.080082570830614028
    82   1      8.2796426441478861      2.4408481466551897      52.000131916442776
    83   1      8.2720607623335027     0.69025772725320622      2.8775568907706508
    84   1      6.3384861474811558      3.4324473213411522      2.4674192811481181
    85   1      6.3265796795848583      5.3038668763786125      51.993914097995145
    86   1      8.1188993424135667      8.1422310973210532     0.06262347662459454
    87   1      8.0335990353661568      6.2529218776421382      2.5156909079023579
    88   1      6.8023350743728024      9.2683615454709134      2.4780806094505263
    89   1      6.0887455120237792      11.012989542728524      52.093793523681668
    90   1       7.918565291360161      13.792362349557976      51.863672299361376
    91   1      8.1670579230319493      11.944297830694662      2.6104810468255071
    92   1      6.6788131718883479      14.653551604021931       2.349100942691976
    93   1      6.5964259676425279      16.794177371379231      51.937913936018582
    94   1      8.4539861989356826      19.597515273928735    0.036825804270678601
    95   1      8.3348466919963631      17.566907998577292      2.4910848584488727
    96   1      6.7026590628689595      20.210595708945576      2.5529284998523329
    97   1      6.5379111897864943      22.222030875666665      52.031546465798591
    98   1      8.1826284555332354       25.02785533235291      0.1829121243898634
    99   1      8.1550478117400509      22.913244126402208      2.4953413434127132
   100   1      6.3897541431519187      25.773845862596513      2.7055244432984629
   101   1      6.6226469578087102      27.762346385661338       51.98999858865254
   102   1      8.0494824994987013      30.639843136674074    0.068856466425772866
   103   1      7.9911748475487254      28.692153489400507      2.6149444965281661
   104   1      6.5815219233123177      31.566162680530095       2.533725936286082
   105   1       6.695020778068149      33.431549832206827     0.13334878942017936
   106   1      8.1239197530995533      36.104197713582465    0.099180869650055598
   107   1      8.0336972424455855      34.146619662162287      2.8019931223321701
   108   1        6.72801329814751      37.075242353776417      2.5520339914394303
   109   1      6.4581990151264543      38.791722921734682     0.10313099226395026
   110   1      7.9925897274592348      41.439696321153512      52.103008358741469
   111   1      8.0228232468028029      39.955817931471358      2.6232565312784071
   112   1      6.5048662072386314      42.578867490763265      2.4502174972083419
   113   1      6.3683046571781246      44.462862797555744    0.016654626475703229
   114   1       8.134309823934629      47.314164209304266      52.105150620626397
   115   1      7.6877437096747592      45.229346720462402      2.7128013966390148
   116   1      6.4667773082583491      48.165319589644398      2.5389578364385064
   117   1      6.3155553660635579      50.077442976719617     0.16627295116062882
   118   1      8.3069989767102701      52.713013693781086    0.034995032123543407
   119   1       8.007172895579787       50.91465794992714      2.8452556917218268
   120   1      6.5931317748976266      53.636770202289313      2.3858178590402686
   121   1      9.9089880700222999      55.188139493404123     0.10838583979086594
   122   1      11.398539504506738      2.4997612141463588       0.119941166882971
   123   1      11.318419571022984     0.81287687335079317      2.5158146272941653
   124   1      9.6063406601218073      3.7578348920875171      2.6412462028592834
   125   1      9.6795816516521107      5.3099735343848229       51.85153108368479
   126   1      11.212256975610201      8.0804343969229624     0.11898254006593283
   127   1      11.304389472338643      6.5789732524474829      2.5766726718075939
   128   1       9.791467352631118      9.2185504906607676      2.4461496781855567
   129   1      9.6515691915950335      11.260848830915135      51.999574861659326
   130   1      11.296856236005192      14.045412164502176       52.08469931175788
   131   1      11.210100070484136      11.835166633538282      2.3439214800764478
   132   1      9.6262950331638528      14.847109587248314      2.3018232867803419
   133   1      9.7427973475542871       16.93183646653516      51.906485225559145
   134   1      11.607016226308323      19.590620153675182     0.29046989999530032
   135   1      11.274103673490313      17.607520467247429      2.6481079538317318
   136   1      9.8650548766962647      20.473518900051292      2.5899384048500589
   137   1      9.8473491431507192      22.104218321945734      51.965269424275832
   138   1      11.475975781785159      25.081073640598994     0.16955196636437009
   139   1        11.2845198074506      22.977094968232109       2.500005106687627
   140   1      9.6982434943951077      26.020811885512888      2.7430855369100149
   141   1      9.6791050842354718      27.626043003680604     0.13320561994681474
   142   1      11.294927623591832       30.63026937518983       51.99004520898194
   143   1      11.633250842145435      28.622931221070424      2.8106761090557137
   144   1      9.7176504739734337      31.334425622215864      2.4609424231912711
   145   1      9.7553851981378248      33.280240699308216    0.074001974001214915
   146   1      11.350255397841059      36.237471633407985    0.058736721344380675
   147   1      11.231092376900502      34.272676468087909      2.7453359366188317
   148   1      9.7004629202992998      37.075184895855635      3.0007047097644319
   149   1      9.9041145988824972      38.928080173311933     0.20453917781344741
   150   1      11.180996875541627       41.72887910183519     0.20549058368634135
   151   1      11.379711953517612       39.88276540633921      2.9723193964113048
   152   1      9.4549742284906912      42.625169720247243       2.701482529290113
   153   1      9.4513914030758102      44.427811598683597     0.20945706949585341
   154   1       11.10627906245951      47.211614185532461      0.0626708498972217
   155   1      11.256547488577347      45.463700979271465      2.4812320225903131
   156   1      9.4678564506277976      48.390866031542579       2.887501468667427
   157   1      9.4567334340478855      49.901410209717966     0.25900433423658742
   158   1      11.487158219040721      52.480837905876115     0.13714005728426032
   159   1      11.089141924312981      51.233927907980423      2.9843260577832056
   160   1      9.5282249449737204      53.560385236245459      2.7367488801306594
   161   1      12.882160913962498      55.288458177981028    0.067448305645942952
   162   1      14.446075557392996      2.3708059044904806     0.23529197070480784
   163   1      14.387934797099559     0.70223447930294602      2.6850613255672182
   164   1      12.868951136755134      3.4481632429834304      2.7789243199829965
   165   1      12.924638185199488      5.2028037034031724      52.066150456826207
   166   1      14.634039105164266      8.2708937656504471      52.035710260963732
   167   1       14.41995276643455      6.1570507430188988      2.6123015970003491
   168   1      13.096967337873728      9.2607748723762295       2.406617454136788
   169   1      12.786879267699367      11.203983794472357    0.011523823026106387
   170   1      14.953344742990231      14.013049920404329      51.972785338655939
   171   1      14.766767375558709      11.931240900773016      2.5764535697156901
   172   1      13.180801262619781      14.826148237012065      2.7134421781082705
   173   1      12.716298273756799      16.611039171122115    0.039776228224467823
   174   1      14.622137566948874      19.471055994484171    0.094007098166741146
   175   1      14.611937933630447      17.630734327561562      2.6673675376855233
   176   1      13.143053675049224      20.341573029849148      2.6744236962135104
   177   1      13.004706040969101      22.206886282915203     0.14704225370887042
   178   1      14.869373949287692      24.944989044252633     0.26370863819431867
   179   1      14.442635500758049      23.216762937862452      2.7364553291770113
   180   1      13.045982127322715      25.972353559100515      2.7301684499136019
   181   1      13.126023885053829      27.734190359088636     0.36321365287339091
   182   1      14.598688495650276      30.680239840212682      52.039659263680797
   183   1      14.756387493428155      28.584984619928409      2.5372782807856296
   184   1      12.967567486074843      31.284881491099963      2.5066631580241898
   185   1      13.021410443249005       33.26553748877658     0.19862540611866394
   186   1      14.234978594619276      36.230914647136395      52.103319912355524
   187   1      14.382786833022369      34.134771296752184      2.7461043834415571
   188   1      12.980331554985163      36.741383495292787      2.9432401818479672
   189   1      12.964949385112918      38.876864621951704      0.3657412482521718
   190   1      14.767773562500123        41.7323681334979     0.24658282461921083
   191   1      14.480171485972321      39.803775307653275      2.8503484011066917
   192   1      12.795398496616521      42.668141606679725      2.5092916245535273
   193   1      12.863819459248662      44.422303126964401      52.099651455540183
   194   1      14.406532935829162      47.286854920793004    0.082692073426569923
   195   1      14.172640738932028      45.487655625865486      2.6190524314193597
   196   1      12.652563985282141      48.313669188155039      2.5218545304293314
   197   1      12.792418293456034      49.893366533515817      52.001940978096236
   198   1      14.725430371917406      52.462139226050148     0.20221753184452002
   199   1      14.289912944568597      50.825724058748271      2.6365648135022761
   200   1      12.811395401350801      53.651008972089421       2.716570609256646
   201   1      15.882196567942772      55.339546168274815      51.985357509910045
   202   1      17.477131476766314      2.7197760995695219     0.11485971956637751
   203   1      17.472314977232415     0.75133384672475279      2.3626439879379704
   204   1      15.997030708194531       3.411811961364879      2.8090725974640334
   205   1      16.035380627567896      5.3248923367300911     0.14853546686748717
   206   1       17.57032041176868       8.109210766466294      52.112030661871266
   207   1      17.741367230570336      6.2627715001560054      2.9318200558357441
   208   1      16.297117829107069      9.2037273037856711      2.5418025994177742
   209   1      16.366561172630959      11.002156480744588       51.87779968466095
   210   1       17.95974289710901      13.854172773379812      51.967544982388354
   211   1      17.925842554366902      11.987125027750229      2.6927364836204157
   212   1      16.400234376313968      14.569420168997393       2.569025306259324
   213   1      16.296673079201671      16.698412227707802      52.096431003444664
   214   1      17.728035849707325      19.141118947395043    0.070522493084998888
   215   1      17.835532949301683      17.486082566823704      2.9132275881161087
   216   1      16.345687898539964      20.433237173363057      2.6104884680452298
   217   1      16.162186913292796      22.145273804545546     0.28300676431338551
   218   1      17.842292648245625      24.952613650873001    0.059171825331229222
   219   1      17.763909033235578      23.263474608116603      2.7693256282431946
   220   1      16.266549791398855      25.886604393991735      2.9667138341379471
   221   1      16.274399350224147      27.818546164463349      52.089656737832122
   222   1      17.854873990404037      30.772692387461763     0.25916124767107274
   223   1       17.74471326774481      28.646238131131138      2.5735392457236159
   224   1      16.110957133034258      31.620298633218614      2.6365417372136797
   225   1      16.201552973407253      33.638198771074933      52.036205203711056
   226   1      17.730462798544732       36.31595957689867      51.873208301535563
   227   1       17.64370558578868       34.63356266052115       2.646875277436807
   228   1      15.965159033799562      37.059793621961617      2.7302713863330799
   229   1      16.062886015830863      38.886531105427196     0.22761618760310615
   230   1      17.760266935666163      41.696494892626241    0.055345444132165168
   231   1      17.624107465336728      39.804976915684293      2.8350541568458025
   232   1      16.000307042266286      43.014004183485973      2.7108588450993629
   233   1      15.989998343570731       44.43407260391637      52.004862072079042
   234   1      17.442784231828551      46.889372838339796     0.13046117311538175
   235   1      17.239975761528495      45.719045065293059      2.7282364903875727
   236   1       16.00899004303108       48.33781129897806       2.637267181077589
   237   1      15.958027126938747      49.934332021409077      52.119619614712093
   238   1       17.74402889676383      52.880559731246656      52.031860898878556
   239   1      17.438782781376805      50.901930299404768      2.6563985363017344
   240   1      16.046026293789186      53.653166204534209      2.6200023970421995
   241   1       19.15052962914687      55.383012654824491      51.995374573235402
   242   1      20.607862203205542      2.6264215827331201      51.990021116718374
   243   1      20.812110406381244     0.89708948538761768      2.3739458642809854
   244   1      19.331527244446754      3.6052922796104823      2.6803760850198493
   245   1      19.142491447355415      5.3715023412039953      52.051174275935708
   246   1      20.700522529618059      8.2812362139542479      52.071942664626725
   247   1      20.875201066916436      6.5598232874102722      2.5375709179734436
   248   1      19.350721003858325      9.2186593844211444      2.4636578154076707
   249   1       19.21470862556674       11.01108441355078      52.119823190332156
   250   1      20.845330498792134      13.489619400428015    0.022034582741420592
   251   1      20.847553068612857      12.122286215407057      2.8221393625433686
   252   1      19.573947987556124      14.819081984899036      2.7008934615493883
   253   1      19.666069480567664      16.411885640491597      51.814864104054145
   254   1      20.897524520636541      19.137600790388003    0.086569648774367972
   255   1      21.063220286494566      17.692955440914378      2.6858845331365715
   256   1      19.327668848073614      20.192634232485968      2.8244804808065287
   257   1       18.99697256129199      21.926705050931158    0.029366088012881944
   258   1      21.071591849152725      25.015916149507426      52.076455576837859
   259   1      20.908416322409156      22.992571535329958       2.632947369359087
   260   1      19.525949506352109      26.149235115540236      2.5863555482510496
   261   1       19.44025235770107      27.907263345062479      52.020120460196104
   262   1      20.871886925502512      30.678814699332136      52.079457755333294
   263   1      20.910181249358612      28.809933887881396      2.3807506010939319
   264   1      19.364222590686079       31.74150931845216      2.6222767613154012
   265   1      19.443782799170481      33.440914496271745     0.14707012331216179
   266   1      20.979528258126361      36.140245945145189    0.049542680052110252
   267   1      20.955019846884657      34.334665128442204      2.5154873287885997
   268   1      19.190225058028105      36.998939642172488      2.7855989859308727
   269   1       19.19029094731453      38.669544389784527      52.111925226860919
   270   1      21.001553902443369      41.782867934853797     0.11809218277374359
   271   1      20.723116398925288      39.732992612949808      2.4672487941109149
   272   1      19.273210958771926      42.776225588086689      2.5478352984757251
   273   1      19.032196190705388      44.435621308143538      52.129082022684962
   274   1      20.472418598663864       47.33465561510129      52.032508887533488
   275   1      20.523612951071541      45.476696678524476      2.5674418285371301
   276   1      19.023350070687517      48.181188599714901       2.654831121269936
   277   1      18.987429617398469       50.04639901322426     0.26915557701294784
   278   1      20.711130961762208      52.507020776185051      52.025639372138336
   279   1      20.684294024522949      50.942953732752599      2.6316082020191547
   280   1        19.1932940435325      53.787298857116348      2.4562661963546364
   281   1       22.52776306811305      55.350274634815875      51.949132340271071
   282   1      24.134190364299275      2.4848087934600582     0.21553929966791235
   283   1      23.790341619622353       0.720912399859992      2.6746425257319686
   284   1      22.375766300356513      3.7865983230676643      2.4530833764507878
   285   1      22.154234224336903      5.5626776905648523      52.054710489287402
   286   1      24.049229141680129      8.2287496173321202      51.979168541985175
   287   1      24.059696368421157       6.448842818986166      2.5066476359528069
   288   1      22.721070785260896      9.0613675351282499      2.6910624720859992
   289   1      22.294021899848619      11.002211214654801      52.072413997919064
   290   1      24.139580561246238      14.073394186197014     0.18053437002645017
   291   1      24.184388421212457      12.029530094059043       2.698094427826383
   292   1      22.590083517051418      14.653533059934691      2.6536450252002504
   293   1      22.607244110619892      16.808413026350369     0.10482667077938056
   294   1      24.315856923817588      19.510392453138643      52.023635040605868
   295   1       24.23045255297335      17.663729491931033      2.5621903479133357
   296   1      22.485808170803871      20.358451250546981       2.627253950771824
   297   1      22.304966748890369      21.961960833095379     0.15977092082232844
   298   1      24.088091644405999      25.066324493163236    0.026845328157548441
   299   1      23.998915404148281      23.261301990646871       2.430190380576208
   300   1      22.608781098879835      25.871023311634183      2.5520803137942214
   301   1      22.270387142294087      27.813512850732291      52.085435418410157
   302   1      24.091477953005882      30.518810121257772     0.15081794190745054
   303   1      24.097774494673644      28.758590610221368      2.6880079863634765
   304   1      22.502954643433888      31.208963514350092      2.5847816236673702
   305   1       22.45988629989743      33.162817376086402    0.082541858796173401
   306   1        24.1304302594624      35.911945666549457      52.125500818799509
   307   1      24.116288884483883      34.073281274511295      2.6566925088813194
   308   1      22.112509107039305      37.113334285324846      2.7768718118649822
   309   1       22.38966083877688       38.81699226665603     0.12830748838107117
   310   1      23.925253881362639      41.711035464416625    0.026169440897797991
   311   1      24.120632571385595      39.709013340651254      2.7671548255031611
   312   1      22.534816017906873      43.016888938970474      2.6904850435074441
   313   1      22.176315597989106      44.590824514665428      52.092590925649382
   314   1      23.989070610994727      47.111285176236706    0.086142304193411567
   315   1      23.937053076273425      45.686476051045275      2.6573833677850209
   316   1       22.38301764466771      48.130598263560671      2.5316165641456192
   317   1      22.398202826783997      49.699656862537395   0.0081128527323265018
   318   1      23.832875048846851      52.579468545727273      52.070625006221775
   319   1       24.08825674590069      50.820940940435214      2.4550046308196194
   320   1       22.24499521313885      53.425736222775598      2.6947371241746993
   321   1      25.497577570056361      55.226313354048671      51.943728395918541
   322   1      27.271855395001278       2.788425720332997      52.068701501027022
   323   1      27.055461294710863       1.105799757019392      2.7316282370706806
   324   1      25.725862718691591      3.7420094944898357      2.5196210576012352
   325   1      25.597143959905701      5.5900016735918232      52.028688120759433
   326   1      27.223347259640931      8.6544776072701897    0.027137217226321102
   327   1      27.202548532026498      6.5892324553528692      2.5366682478373845
   328   1      26.017532216746744      9.3795045607689236      2.4166917231200067
   329   1      25.805133787024072      11.125524308970126      51.986010660557909
   330   1      27.294589263251911      13.893143732756478      51.884232559954455
   331   1      27.413711730840376      12.395815267212418      2.5061331701563696
   332   1      25.545244352855931       14.91414790666717      2.6952224193974219
   333   1      25.736288019042743      16.832151411701609     0.13189595021302064
   334   1      27.320173787611406      19.437357406138446      52.091775906739322
   335   1      27.188048744843361       17.81451638265796      2.7491968316299862
   336   1      25.733638259914684       20.52161422645834      2.5323654211804505
   337   1      25.865057983374264      22.255680514373708      52.122817943521525
   338   1      27.290877141546666      25.088144793732567    0.061229481236241695
   339   1      27.392344946532713      22.943056378964002      2.5727571645748366
   340   1      25.752792816349551      26.004097380813281      2.6654422807210123
   341   1      25.464199654719589      27.854236007558743    0.076559061859677702
   342   1      27.575095498318063      30.162014923308284    0.018672578389082074
   343   1        27.4367495157611       28.48956274981483      2.5722658172343271
   344   1      25.699605281492079      31.290926221955164      2.6075867503200305
   345   1       25.68658233838088      33.242276981119424      0.1516478530043463
   346   1      27.143690861341565      36.090539814389771      51.991187031190663
   347   1       27.23830202086549      33.985846161816497      2.6326126678994002
   348   1      25.626410756373506      36.873730600303219      2.7529366606503314
   349   1      25.491230406676554       38.94521675007546    0.048592980738356148
   350   1        27.2886064463829      41.555111349149747     0.15472319389631342
   351   1      27.414985199433374      39.617640465352764      2.6486734398151679
   352   1      25.436073647718771      42.443893590566304      2.4194451774452395
   353   1      25.542326049869228      44.423912570457937      52.091204227903496
   354   1      27.217831988114757      47.017486270811027      52.096354826637842
   355   1      27.127235692595132      45.146824754663591      2.5380569447920105
   356   1      25.814837419880437      48.295138486916159      2.8662750465606441
   357   1      25.764721059139614      49.807752779684954     0.13134364589241226
   358   1      27.401713179323789      52.732964139527198      52.080615785515619
   359   1      27.399624454424071      50.952515344415289      2.8092150876906872