dump/Mg_500_0/steps_21 (written by ASE) 

4000 	 atoms 
1  atom types
0.0      32.100000000000001  xlo xhi
0.0      55.598830921999998  ylo yhi
0.0      52.130399999999995  zlo zhi


Atoms 

     1   1      32.076114542563985      55.534326143980728    0.032683338030763009
     2   1      1.8036783424493414      2.3708946561945039      51.794710711477748
     3   1      1.6286248603949756     0.93086083471646053      2.6815523070703455
     4   1     0.16097916789042344      3.4050415919697525      2.3707154362890508
     5   1     0.11446223648975207      5.6544416002333948      52.063507730332631
     6   1      1.4861225243361802      8.3978961948671778     0.11824252242450867
     7   1      1.4342755188716769      6.3752508112272279      2.5819685415724321
     8   1      31.982849347444546      9.1905969071195539      2.6444961373356626
     9   1      31.957054977072147      11.561560170686175     0.16004666462029812
    10   1      1.6944232545668365      14.172303485358348    0.080500103004696899
    11   1      1.3588740082956532      12.035171657915379      2.6696317922647368
    12   1    0.041198383078325324      15.026655650437156      2.8166102149948262
    13   1       32.03700630704153      16.858112904591646      51.968346361196978
    14   1      1.6131589704295535      19.638051196757058      52.027750359080279
    15   1      1.7579676151197425      17.853316668335971      2.7713494268012058
    16   1    0.012931280691294945      20.424227832150667      2.6187377693349103
    17   1     0.17750945477638574      22.338769064047785      0.1146946315066581
    18   1       1.524378003774908      25.164063222575265   0.0005240291463826899
    19   1      1.5802967236803398      23.279594317845028      2.6572005896839808
    20   1      31.838964211794227      26.175112980335655      2.5134574574943693
    21   1       32.05651805364225      28.145448655002816     0.27733023490219022
    22   1      1.8173864086574463      30.652278280472689     0.11164059049394194
    23   1      1.7540025224492193      28.937530127128401      2.7003367369779423
    24   1     0.15695372628523696      31.473003287130542      2.5248166775599312
    25   1    0.057191624466229975      33.572431930105154      52.026635229040167
    26   1      1.8557114386014359      36.004998244549043      52.053997346094256
    27   1      1.5887523407812543      34.323458543158068       2.825101211260812
    28   1     0.15662519054040125      37.185036179824621      2.5098978281151538
    29   1    0.027260680128383816      38.970111515860971     0.17590888204394642
    30   1      1.5580177796830657      41.625482846378318    0.056981981820221315
    31   1      1.7272545060356514      39.848593749989909      2.6245176408550472
    32   1      31.986247897623681      42.866325935636169      2.6892037115558516
    33   1    0.064437286520776973      44.651214210594006     0.17275366520908819
    34   1      1.3417208977653043      47.647852154699471      51.981210000225815
    35   1      1.4761401622193064      45.474545594653712       2.727205820587828
    36   1      32.080316814834568      48.178454636450006      2.5395441809932207
    37   1      32.083811250628216      50.289453229282053       52.00430317783082
    38   1      1.3401429375074061      53.021465303461461    0.038205072407826147
    39   1      1.4120280923910205      50.980726767759975       2.472272854180444
    40   1      32.076709587492054      53.777412756738144      2.8090331463875104
    41   1      3.2715301297039847      55.403314332059928     0.20010108857692555
    42   1      4.7956984802281681      2.9780602782229764      52.116571946478558
    43   1      4.6539345848060467      1.1865863407585862      2.6221065421696714
    44   1      3.3556150112528491      3.8503065620855299      2.6096968397318934
    45   1      3.2278820402711768      5.7516866337012598      52.036857703799605
    46   1      4.7540442311203197      8.4626858852512434      52.026625195611864
    47   1      4.7161342155086485      6.5629515706385018      2.4969243319582612
    48   1      2.9313493452520785      9.3008449315916888      2.7210770060723366
    49   1      3.0443246469576857      11.318213553488146      52.099632762778612
    50   1       4.783764452058187      14.143393341025536    0.092616500629899443
    51   1      4.6005338689904356      12.228874535921154      2.7589793413534465
    52   1      3.1602472316585484      14.954639953778093      2.7026686600300645
    53   1      3.3695748440211593      16.993923385551664      51.979434390229869
    54   1      4.8263993070610312      19.585207065071575      51.951818998673119
    55   1      4.6785152052413181      17.753957422075739      2.5049717722737848
    56   1      3.0541691055718729      20.619773452928825      2.6136077424635991
    57   1      3.2458891296301542      22.364318854748973      52.060044749657351
    58   1       4.807026498392446      24.906277912373554      52.124952381060488
    59   1      4.7237283834972699      23.265614784428692      2.5948000242632081
    60   1       2.977392859984207      25.999133962366514      2.8283813805575315
    61   1      3.2801383729796281      27.727547787671881    0.045381214716649174
    62   1      5.0044744074943921      30.327595999119637      51.989226304270495
    63   1      4.8977314003034644      28.883699719286696      2.8201796483711461
    64   1       3.382533923215516      31.658165740838609      2.7034920699255789
    65   1      3.3763134791320781      33.245511322098288   0.0048481194536245274
    66   1      4.9501680907278525      35.910924239131077      51.925056859151525
    67   1      4.7248313383906524      34.357474352714796       2.642019902042819
    68   1      3.3970923075771857       36.97744123797164      2.5238855506308218
    69   1      2.9560669530432442      38.770748288164178      51.862564195205202
    70   1      4.7682424959483667      42.017226151972096      52.044144974245299
    71   1      4.7268141772028596      39.720895387623571      2.5845997799328253
    72   1      3.2569398726748346      42.550876349389021      2.6263036738396686
    73   1      3.1225388439701005      44.835802943738734     0.09439607753189079
    74   1      4.9756895696607817      47.392406869661201    0.019849230961251768
    75   1      4.5999539697521916      45.292388667640076       2.708892343384969
    76   1      3.0863333327257507      48.114221505829683      2.4124878982228002
    77   1      3.0669686147298836      50.007902385851651      51.870242265515877
    78   1      4.8138272653888006       52.71806171775421   0.0046513262166867188
    79   1      4.4227301305477429      50.757830591938912      2.5018744191501998
    80   1      3.1389872779332961      53.612624615672232       2.547206124829104
    81   1      6.4980408067525763     0.08940432455524143      52.119518201419403
    82   1      8.0265559366939456       2.949197800003323     0.13319446098849394
    83   1      7.8438752104396414     0.88427875031359493      2.5575645992578782
    84   1      6.3777127729617105      3.7736953393586172      2.7403408634832416
    85   1      6.7187761110053392       5.552353009319277      52.028305180369969
    86   1      8.0211443580667705      8.4675760291137188      51.936111373927808
    87   1       7.868968181402697      6.4370417902652042      2.6955964482704449
    88   1       6.177717828798305      9.1856276444353107      2.5090878450397374
    89   1      6.0695055262800794      11.398142511341003      52.034637209093241
    90   1      7.9391185849628831      13.910018000663271      52.052416621904925
    91   1      7.6112105102322127      11.880120795047986      2.4269103422619565
    92   1      6.1609594321742795      14.964664406420647      2.7220139351673973
    93   1      6.2917114675244887      16.669429120333074     0.14311163987891579
    94   1      8.0032482754720906      19.587183425642355      52.050397585538377
    95   1      8.0180739632901972      17.625196344243165      2.4610488426799821
    96   1      6.3021662842287558      20.530697803208263      2.5968694180961922
    97   1      6.3264808274321824      22.280238172778979      51.997805136009717
    98   1      7.8109727174126595      24.887470161904371     0.32180265494859661
    99   1      7.8207235763471878      23.112738756172178      2.8913296634589516
   100   1      6.2781620650044632      26.195369789555201      2.7595985735842627
   101   1      6.4784042088725746      27.866381171793641      52.122525475574953
   102   1      8.2788363388037602      30.310666725967277      51.826622651751734
   103   1      8.0645310643978085      28.845742213006933       2.487011050663011
   104   1      6.4420497784643107      31.563338411471438      2.6037781729222274
   105   1      6.7054449729261236       33.11241559424947      52.110805129914787
   106   1      8.1517985562974342      36.023812380131304      0.4130433530569228
   107   1      8.0387836507269803      33.956340513976237      2.8995907346977021
   108   1      6.4549569016940804      36.931920105762906      2.8601897896333237
   109   1       6.280768653690985      38.945105176108108     0.10947789540923965
   110   1      7.8705158834206683      42.138341096936436    0.077329014385165748
   111   1      7.9075785145271684       39.86762966578754      2.5676937984808563
   112   1      6.4133884358525899      42.739342187308978      2.8189702835129116
   113   1      6.5524974379453491      44.611033679806305    0.042061904923751531
   114   1      7.8571675745192291      47.378188381823279    0.012923591593700825
   115   1      8.1255055243149812      45.570041072707099      2.9478964356036363
   116   1      6.4182962268903951      48.144386761477421      2.6573280171816829
   117   1      6.4023672233862321      50.087812845329637    0.051490362464415254
   118   1      7.9419614318111185       52.90284087036153      52.072865052027581
   119   1      7.9321988781374984      51.217311693237555      2.4577262848170243
   120   1      5.9827231244941439      53.964215293147952      2.6647289098064717
   121   1      9.5828744846307661    0.035541839011451824     0.05840414987735864
   122   1       11.16703264449581      2.6419580267872669     0.15598984443256692
   123   1       11.01519477074129     0.73198219113490648      2.4815952597845734
   124   1      9.5813537909481976      3.6967475063045776      2.4833324138767794
   125   1       9.984381375701032      5.7015450154228322      52.012990789496051
   126   1      11.241851545824478      8.5885064138017437     0.02205878491858718
   127   1      11.329176100253502      6.5754422950890596      2.5160074308789819
   128   1      9.2892680346915686      9.4135878753280284      2.5443639019413138
   129   1      9.5012291181334838      11.287684888268899      51.961307987443078
   130   1      11.184651990191215      13.980989975931427      51.919930559007291
   131   1      11.108193392823033      11.827430779011854      2.1914962615292222
   132   1      9.4916856717466835      14.728344951902423      2.5407217785048322
   133   1      9.5917112710482879      16.692291234697148   0.0060669302807479604
   134   1      11.230919131624137        19.4316627836767      52.112049443859867
   135   1      11.157934737496005      17.672174536861466      2.7493732324358207
   136   1      9.5600421433034057      20.400152437013212      2.6738907277226178
   137   1      9.6189705381602604      22.229694669573352     0.23011134391525431
   138   1      11.184227164117402      25.096908186585424     0.14093839750819293
   139   1      11.402308266840295      23.002065746252772      2.8181059485154658
   140   1      9.6873743365608913      26.012877322265695      2.8258958360862798
   141   1      9.4226321132437985      27.549642580149481      52.013230825897459
   142   1      11.295291333506757       30.49641941093217     0.11984462984691298
   143   1      11.227884961993238      28.919988798247118      2.6045644535404358
   144   1      9.4100223716478837      31.410146977618947       2.270928523218414
   145   1      9.7018575472289843      33.382527756753156    0.093704029248593099
   146   1      11.423119336040664      36.356285625582053    0.095950303943105802
   147   1      11.020471439644512      34.294545985307806      2.5335681461918256
   148   1      9.6541152815813316      37.281434225740583      2.6940127904110605
   149   1      9.3319801231308102      38.919264182839875    0.020820415998708243
   150   1       11.00115879680091      41.549418058416293      0.3900091187832454
   151   1      11.256845073111299      39.719732520076555      2.7508433169448581
   152   1      9.5340677323032192      42.536120195891982      2.7771804988174016
   153   1      9.5165949391078026      44.666652851763871     0.30787621117083047
   154   1      11.016640016799315      47.219826246891792    0.050355544824791931
   155   1      11.255868034573925      45.560121560913736       2.899309710642703
   156   1      9.5788232945616905      48.268376622352029       2.640753429456864
   157   1      9.5087313780901983      49.928815390849991     0.14633313418618232
   158   1      10.717156045384273       52.70659907828923    0.027351950883126468
   159   1      10.968343131768234       50.82299254569967      2.5704651382217349
   160   1      9.5937128710683517      53.852744001096411      2.7327352382325167
   161   1      12.713642291911011    0.091544532553823832      52.079629253589395
   162   1      14.388885048251295      2.6135275530844355      52.108208544438668
   163   1      14.037684137645247     0.68950646828319317      2.8520299125712136
   164   1      12.927284169686999      3.7083772980059444      2.3937505755098751
   165   1      13.157931272102026      5.4180254076800836      52.082093840430211
   166   1      14.498667294560532      8.3627775150498866    0.071591159345285343
   167   1      14.322115575805961      6.6366069055672758      2.5279367264941497
   168   1      12.863893465103594      9.4364713828226687      2.6189269910135793
   169   1      12.708839570944701      11.288219517047757      52.100174950293372
   170   1      14.435406893184524      14.044688833099739    0.044383669921314525
   171   1      14.428974133819237      12.071213210306196      2.7299738960317814
   172   1       12.84360720009211      14.928135757791773      2.6530953967896411
   173   1      12.682590693253239      16.865716683804269     0.10676873173187697
   174   1      14.481719529131309      19.579554008870058       52.08011805490893
   175   1      14.458682403892189      17.702207892643468      2.6036799128097621
   176   1      12.839819853511191      20.419793410442779      2.8391675761277799
   177   1      12.918389067492104      22.197752575746591     0.15176856187368484
   178   1      14.468418105732676      24.824704902385065      52.016394794021778
   179   1      14.403377665784038      23.243236574580454      2.6799548105496553
   180   1      12.802233196472029      25.897923746405802      2.6292004452150484
   181   1      12.691830311554234      27.912504705060961    0.045736446820286811
   182   1       14.40653843353469      30.609907235061169      51.852792990114423
   183   1      14.535736066540842      28.381950938641481      2.5587577199669149
   184   1      13.002822355012167       31.60562861495184      2.6744616634562086
   185   1      12.776654071041136      33.573470083549523     0.10836533191668424
   186   1      14.627620464836133      36.459075495983157    0.089465721564731163
   187   1      14.572080502378938      34.140072289216228      2.5000922874114995
   188   1        13.0568429725929      37.065971960381759       2.760022075823183
   189   1      12.865296076134127       38.93676406621443    0.037433524937732263
   190   1      14.125717664430672      41.759494809333766     0.17081911093702545
   191   1      14.563164838344369      39.799945766662802      2.5326047249044152
   192   1      12.923166857754911      42.579290594776346       2.640267925234693
   193   1      12.636275833208009      44.457788446177517    0.080893238397735337
   194   1      14.457641476231913      47.102230587478992    0.056313077939246517
   195   1      14.350571562766282       45.53585381718225      2.6055411237391253
   196   1      12.674946578222039       48.27235238246115       2.585883459511507
   197   1      12.830956267070325      49.988646263301703     0.11428673578639231
   198   1      14.365095394438091      52.762821163383187      52.082477902858955
   199   1       14.17392336586907      50.923141746301937       2.818519358531836
   200   1      12.815445847303327      53.537828681689618      2.4283369078949888
   201   1      16.058106664238533      55.444575374988482     0.22329549810471969
   202   1      17.544384954060511       2.531439474298538      52.049161534538797
   203   1      17.560193862162489      1.0284597284984183      2.5823511337569092
   204   1      16.020567371109721        3.77035368145786      2.5018260258370106
   205   1      16.201240864262239      5.4461402033138793      52.031158874559573
   206   1      17.739524366718033      8.0974880914528491      0.2134578275398194
   207   1      17.860955626953828       6.586628031070016      2.7336935509725513
   208   1      16.126640963152187      9.2660006643863131      2.5376698217555962
   209   1      15.912543969466396      11.103408433584441      52.121623785552359
   210   1       17.64882176493601      14.012888318845924    0.026090819449403623
   211   1      17.524777644106365      12.009060296029931       2.539387765008823
   212   1      16.015853074344019      14.817026538627825      2.5832146200737789
   213   1      15.942610439516175      16.666923426229335    0.053036202714391877
   214   1      17.922776855439317      19.625754893028532    0.039657219353589249
   215   1      17.575368223029241        18.0034452516702      2.5522815646310542
   216   1      15.690454409661369      20.339376310762301      2.7685666048981301
   217   1      16.084552532890122      22.271883007123659     0.30847955620797007
   218   1      17.601640645839939        25.0756763751757       51.84894641251347
   219   1      17.615480108786038      23.021027921416902      2.5197410879231938
   220   1      16.464201711210709      25.676683773856638       2.669625305826369
   221   1      16.148542525881084      27.853516326437624      51.834266113126382
   222   1      17.664349807927508      30.467371275028256      51.998973003099266
   223   1      17.579056977407777      28.694955343341125      2.6623249872605967
   224   1      16.052552881119087      31.329616354208522      2.3593496121847779
   225   1      16.187880265716018      33.320070160104436      52.014904726407046
   226   1      17.810095101968905      36.021074300264026    0.030303917782056666
   227   1      17.662369400248568      34.201389068703747      2.7099081844296502
   228   1      16.217468599691742      37.114704693186376       2.498356752373069
   229   1      15.957385132899747      39.188922049635352      52.022744151735601
   230   1      17.936828314371258      41.578450535482155      52.066828610003824
   231   1      17.478299279163249      39.779225601250495      2.3173302808301428
   232   1       16.18570374745287      42.680848080965333      2.4981095978974466
   233   1      15.955914544783813       44.35106549197085     0.23375259693853878
   234   1      17.757550410915595      47.225040425044611     0.21842742119842004
   235   1       17.67914202945553      45.317302053685509      3.0115644545594629
   236   1      16.160681740646439      48.176115678657744      2.6515378696806899
   237   1      16.028143471894186      50.100697438428142     0.21368381107400047
   238   1      17.447540189939318      52.696233583477188    0.089427350161616223
   239   1      17.626700477585718      51.037144411494289      2.7204280992273984
   240   1       16.03311788046032      53.576250239462603      2.6848656035109566
   241   1      19.262289082795977    0.093747182846766294     0.16955876337123207
   242   1      20.912244507232142       3.015718575491614    0.011707875025134219
   243   1      20.753465507949421      1.3315904715298343      2.4180596353658284
   244   1      19.209554540008373      3.9184044004130021      2.6717036341322493
   245   1      19.285014218884296      5.4807737577927389     0.17402009872136198
   246   1      20.912458247387086      8.5179099317030822    0.056676398549560393
   247   1      20.929061259210666      6.4901966339007586      2.5802209694224221
   248   1      19.395248031021751      9.3756218190548779      2.7260759469155555
   249   1      19.500237922996778      11.151938343992466       52.11167217476352
   250   1      20.860380701536641       14.12762022764637      51.940908827483021
   251   1      20.755929959142051      12.183451822374446      2.5915240811527651
   252   1      19.299878655835322      15.301719298080585      2.7395796458958861
   253   1      19.142249754589066      16.861568295088748      52.118427509989864
   254   1      20.919153828218892      19.591911171910606     0.14640211109695825
   255   1       20.89956469532159       17.93145185114539      2.7795094039507338
   256   1      19.291417148687582      20.809557742228201      2.5333850402879161
   257   1      19.254123612260365      22.824100016844582  0.00053563503103605471
   258   1      21.029527977838782      25.186533393099349      51.799092681207547
   259   1      21.024860802845591      23.184924173490309      2.6728679506699975
   260   1      19.589832628201819      26.080667778905827      2.6101784638362573
   261   1      19.292706085353743      27.966748948715175    0.047637339878276834
   262   1      20.845630432020595      30.580422605587955      51.878660683748123
   263   1         21.051732767876      28.862085697016255      2.7138786241661013
   264   1      19.234568296833462      31.519266609474801       2.418947779717489
   265   1      19.207456209726821      33.463151346398988     0.12104016229041654
   266   1      21.046051738034642      36.121711294850883    0.032390667944726753
   267   1      21.015505183203011       34.39493379327881      2.5455220102502767
   268   1       19.31407293273309         36.926405552534      2.5454812103287319
   269   1      19.293799509103927       38.79083708020778   0.0019561179179176198
   270   1      20.870358316104223      42.088814473281211    0.071683205231305114
   271   1      20.845358434123856       39.92126706573211      2.3410418691111849
   272   1      19.455505962115886      42.757296082212477      2.8314036884434604
   273   1      19.076200906071154      44.563901956299908     0.10464383524424023
   274   1      20.872293444748706      47.216620963914956      0.2804619269041756
   275   1        21.0202742100651      45.429430020869937      2.7014674754035668
   276   1      19.363416978327507      48.353702175415314      2.6176128730853092
   277   1      19.115771732365147      50.140570707555248   0.0022145946280455087
   278   1      20.867658419364652      52.949383157427064  0.00096213561931126506
   279   1      20.972838201472427      51.049253104356332      2.4490012547600695
   280   1      19.428685323245695      53.886257284714375      2.3868444230928896
   281   1      22.342942044413128    0.071445111284156204      52.025897329535368
   282   1      23.938092589016005      2.9394804495904556      52.095886783790327
   283   1      24.013259484143923     0.96862324807646327      2.5679262449487505
   284   1      22.423818942555737      3.8370397607558866      2.5861630739625903
   285   1      22.682544664614166      5.8210791047756958      52.060039573820035
   286   1       24.16373622006725      8.7249518168925313    0.078382842123451632
   287   1      23.916684478928037      6.7820066983268479      2.6531551726458145
   288   1      22.426422747972531      9.4744785413863593      2.6624543342284031
   289   1      22.489718808936612      11.380269581075403    0.073863276191423521
   290   1      24.001614972242212      13.943619752747749      51.982987413469424
   291   1      23.953450565670472       12.17071756992096      2.7402622115664985
   292   1      22.199233823246388       14.73907795872962       2.782747491984181
   293   1      22.388640440929624        16.6931976941523      52.112855185574119
   294   1      24.039423329787223      19.355323049243278     0.11012884987978515
   295   1      23.795430972430868      17.690133644801818      2.5555771183671077
   296   1      22.482921988275329       20.61585533819807      2.7963542401364201
   297   1      22.639702806202873      22.317069657521657     0.13163922475999959
   298   1      24.272258944064195      24.892298343092683      52.083997910244207
   299   1      23.948511767437125      23.401834727112526      2.6576127138603849
   300   1      22.596701574411256      25.995434392900648      2.6120638257848907
   301   1      22.301652227601245      27.735931121434959    0.050426460864002882
   302   1      23.925697242687693       30.45055833018829      51.999507548772925
   303   1      24.152808858249841      28.755218339053226      2.7783056364431356
   304   1      22.755821539959388      31.585604649340691      2.3107100470555748
   305   1      22.586095953246364      33.227560123336708      51.953561752999235
   306   1      24.202930731811769      36.243689670073437     0.15590054969990488
   307   1      24.451430183541088      34.382718114966877      2.6176534654594148
   308   1      22.728017044059825      37.062175299690345      2.5972528809724165
   309   1      22.517782950125941      39.235621436552414     0.12944264281412785
   310   1       23.97334742130656      41.609010206765703      51.991995918828074
   311   1      24.148520743363537      39.837661870630669      2.6123410308069368
   312   1      22.516622760505079      42.857312104770848      2.6136249606693349
   313   1      22.783484848728136      44.533850899152391    0.033373958646055669
   314   1      24.220642620967176      47.250965008886823    0.011359635142670346
   315   1      24.361790613217853      45.555185866920191      2.6862677458594555
   316   1      22.513279028221991      48.209716427666756       2.800733516958871
   317   1      22.480758978287195      49.721545388402134      52.083005312865453
   318   1      23.921699469573941      52.662799279318676      51.940575900639892
   319   1      24.000638352368895      50.886476171810834      2.4593020992914401
   320   1      22.546306082828426       54.09138462454171      2.6184077091800857
   321   1      25.323545622854517      55.393505281981469      52.024809429989332
   322   1      26.847191125813023      2.9124314663006485   0.0012215394003625994
   323   1      27.304034095299425     0.90313442536201838      2.6221767240112901
   324   1      25.329609793846178      4.1388165830297261      2.5722310433241602
   325   1      25.750461227980104      5.6207642632920845    0.017564157157062225
   326   1      27.311616278046291      8.4896325573698768     0.24156936920461106
   327   1      27.385734303924359      6.4064275211088901      2.5042202702062246
   328   1      25.644529922204462      9.2469769051798938      2.8044307373012773
   329   1       25.82394435362886      11.237151678032419     0.19258876060121455
   330   1      27.397091149704085      14.037132759846951    0.076153231432037824
   331   1      27.282873753937007      12.227227697590441      2.4941320203425099
   332   1      25.356926287449092      15.057922937353094      2.6791468065060662
   333   1      25.848016167428607      16.741702316777904       52.02727009921513
   334   1      27.071416146433855      19.588564025946219     0.10287017511563595
   335   1      27.223312339107757      17.686160196596067      2.5085714024279886
   336   1      25.641305912276337      20.337646820087507      2.6778173283128202
   337   1      25.805243025745252      22.332304143706917       51.98014557264198
   338   1      27.581027092909203      24.922295335613764      52.107953436617059
   339   1      27.213863872215274      23.277592324948277      2.7418487302557986
   340   1      25.722406572079912      26.104765669847129        2.49380155216316
   341   1      25.630760851131619       27.79065401014142     0.23890309729231859
   342   1      27.042921774279076      30.611931457976063      52.030475846123956
   343   1      27.281389192038894      28.768786441584439      2.5509878541635933
   344   1      25.799276698281318      31.714947740224677      2.4163805221232568
   345   1      25.879773720301049      33.476898935847899      51.893968428063346
   346   1      27.580039461870673      36.286486315761771      52.037260676831757
   347   1      27.489845624993848      34.379812139429468      2.5717545210820374
   348   1      26.043544677048182      36.992968644391063      2.4435705920821107
   349   1      25.512049506904692      39.012849881658205      52.063075803626276
   350   1       27.39000142461451      41.460673909945108      52.003540055856412
   351   1      27.401257511888094      39.568968658500935      2.5893109537760881
   352   1       25.79191425700488      42.535914618677054      2.3197833703694135
   353   1      25.836822019464368      44.439286663976596      51.871613260987978
   354   1      27.162828958737499      47.251266184606756      51.761039682757669
   355   1      27.329974185620667      45.112995431316165      2.5346636431743681
   356   1      25.613610181164457      48.439457152613656      2.4545901451183965
   357   1      25.718626782469244      50.013335464046285    0.011245796810779963
   358   1      27.194981841621015      52.858103846936373       52.03621294678932
   359   1      27.275769843184147      51.081501616641603      2.6152394962542296