dump/Cu_560_20/steps_21 (written by ASE) 

1980 	 atoms 
1  atom types
0.0      25.526554800834361  xlo xhi
0.0              25.5265548  ylo yhi
0.0      36.100000000000001  zlo zhi


Atoms 

     1   1      25.506963073671542     0.10897166131049744    0.046153188699429505
     2   1       1.293368977785623      1.3313768518875351      1.8559308758047206
     3   1      25.468729763517555      2.7676321269692412     0.31535066432608111
     4   1      1.3530491982377719      3.9073603174142351      1.9026615262726749
     5   1     0.12828390669069484      5.1162194921287316    0.059729265301712242
     6   1       1.408403084224316      6.4921664132417414      1.7672180344304016
     7   1      25.426457358509811      7.6391300564897371     0.04004467843020617
     8   1       1.020800632386959      8.9650992207589777      1.8983533523353446
     9   1      25.506034133252594       10.25055328468993      35.924864333589532
    10   1      1.1402420293319486      11.424295413329791       1.698646398084555
    11   1      25.503910262485981       12.69080627272691      36.069809076708211
    12   1      1.3308271901386231      14.030714408007785       1.855677270384581
    13   1      25.316267444412322      15.165112033794136      36.073930324969361
    14   1      1.3114875486854805      16.571420886172522      1.7447659509318685
    15   1     0.11362723836362235      17.683694549673387    0.046624103080887221
    16   1      1.2784100479371232      19.231479816587136       1.762533873648827
    17   1      25.486670116516137      20.540023124996562     0.10324304611666538
    18   1      1.1378254294179706      21.711353089973759      1.8251206989333708
    19   1      25.402120218815504      23.089826745102712     0.15462264713404453
    20   1      1.2947401154579916       24.36357294971285      1.9423948777620585
    21   1       2.641364914906343     0.18800164982355877      35.796528458148778
    22   1      3.7901859689322759      1.1853756777967834      1.8256366030222022
    23   1      2.7223198818321235        2.68596434193713    0.028357271196398404
    24   1      3.8561256677228593      3.9341403189443644      1.8832203527655329
    25   1      2.5485184983138076      5.1980754179990383     0.14517650821849212
    26   1      3.9042318565254224      6.4933351872861369      1.8065322335603469
    27   1      2.3510378218899683      7.8877016285697259    0.076319032444268894
    28   1      3.4708960157331115      8.9471604342582278      1.7189795284037024
    29   1      2.5611572435074441       10.20256927905328      35.989020116777553
    30   1      3.9831636469235963      11.450450814526343      1.8985760562565575
    31   1      2.5971658660507191      12.790431475008797     0.19746213848428631
    32   1      3.8497090907721621      14.019536876535751      1.9770672033616405
    33   1      2.5861940350657195      15.319119130114332    0.040825721229566514
    34   1      3.9766259156316099      16.562598984679646      1.7293593144911241
    35   1       2.589403369870618      18.026666889926361    0.017282612603128206
    36   1      3.7969882294188677      19.192435338231391      1.8424356418473153
    37   1      2.6423976523414021      20.520914832796599      36.079887065838008
    38   1      3.9597507021636087      21.728970028117558      1.5425209791504593
    39   1      2.6595887044616635       23.08026665012466      36.096779416100127
    40   1      3.9684845811940241      24.163943461411499      1.7549257467748347
    41   1      5.2315986749718615   0.0065630400489259406      36.007426962763269
    42   1      6.5156947001220873      1.2519959801280223      1.7085173165127103
    43   1      5.1033014910406447      2.5295634941947185     0.22673213184182267
    44   1      6.3670019387242371      3.8660615424403941      1.8490800028122065
    45   1      5.1593807207645792      5.1689301381722172    0.077160005772839213
    46   1      6.5078972409500615      6.4803397618463299      1.5888723759023591
    47   1      4.9109729825423587       7.666989934824227      35.929544365581926
    48   1      6.2489704999799942      9.0163867087932754      1.7756146429767576
    49   1       5.014327369013813      10.090739798943783     0.02701120206050972
    50   1      6.3883505322349778       11.38288429629411       1.806900631407903
    51   1       5.110743021142877      12.999189757412331   0.0048118809476818672
    52   1      5.1437115023992357      15.398675367546504    0.024257946749287388
    53   1      6.5013483535456134      16.721883411322722      1.8414565203114095
    54   1      5.1293995737199447      17.944003503177377      36.022991236700946
    55   1      6.3652903717709224      19.097791659392509      1.7622004181591497
    56   1      5.1599812751260083      20.406496350024266      36.074400093659904
    57   1      6.1986907830850591      21.700689212782066      1.8247337030065638
    58   1      5.1144372607913091      22.948712875721618       35.99295764631043
    59   1      6.5087423463720251      24.299380433655845      1.8968481622384492
    60   1      7.7611605144257032    0.065082134270125686     0.20868642620292804
    61   1      8.9315305388090227      1.1675806872633652      1.8894386164750467
    62   1      7.6352691705396314      2.4207665404105576      36.040934164483858
    63   1      9.0318686525847642      3.6380296083604766      1.8206922301594197
    64   1      7.6158394120260775      5.2152594797763889    0.077654031198835391
    65   1      9.0027739145107581      6.3104367183317605      1.8375671965777445
    66   1      7.7080615234014838      7.6755190660377446      36.039146759212919
    67   1      8.8443261180848065      8.8394818071939216      1.9417042609398998
    68   1      7.5552354345085719      10.164566082185804      36.056324255171852
    69   1      9.0103527530123486      11.395025886064293      1.8133894034696811
    70   1      7.6866473987693373      12.890181013415454    0.041710380710594533
    71   1      9.0434031039246374      14.149707596667483      1.8572574423393793
    72   1       7.746691901126642      15.386528178015764   0.0071293969539169728
    73   1      8.9344121173846638      16.705285645706464      1.7580381650553587
    74   1      7.6508912676240106      17.990923047987778   0.0050656908133078242
    75   1       9.097911749736225      19.321140557143121      1.8741142433444444
    76   1      7.8143574489807328      20.563856704678351    0.027281652610702183
    77   1      8.7872931616407417      21.879299507537446        1.93476344042556
    78   1        7.53961517659069      23.171986995593446      36.006779239763169
    79   1      8.9914260827922678      24.343804162274839      1.8356840345556971
    80   1       10.18590024081897      25.452989798381413      35.958929506867676
    81   1      11.334763944469813      1.1876074799538854      1.8525406161312266
    82   1      10.234301530529592       2.420765905997059      36.064092738480987
    83   1       11.53048425754773      3.6424603396487907      1.7744072422996842
    84   1      10.149125348123313      4.9341514840076144     0.36855234781696672
    85   1      11.564540097581375      6.3238684582610283      1.8598560047083317
    86   1      10.154930043359849      7.6752294391219085     0.23410353960621272
    87   1       11.42554369101015      9.0825151468075784      1.7930332826555759
    88   1       10.22192403563341      10.208358473409632      36.090380262204512
    89   1      11.424920487726979      11.361124997031995      1.7760379948348246
    90   1      9.9852583202663876       12.70257163086043     0.16241606578865903
    91   1      11.419411856757513      14.005163765502072       1.631845757601083
    92   1      10.243673711753836      15.374146681129018      36.023176590555998
    93   1      11.670518599040502      16.596410378545674      1.7084684469254048
    94   1      10.244212906745053      17.984981690608787      36.027993058219558
    95   1      11.498081154758996      19.347306210004437      1.6023160014376019
    96   1       10.16269579908634      20.478924430093905      36.095400360199349
    97   1      11.544469637795004      21.835466388423889      1.7692632491325637
    98   1      10.100366118997062      22.893451195344241      36.081867682824047
    99   1      11.312941659810122      24.169622427828578      1.7265185736717394
   100   1      12.762680132591063      25.463162458454548     0.12233789075006613
   101   1      14.019049842287281       1.316026106286742      2.0115266482566767
   102   1      12.910213494318787      2.5134731887531228    0.091891103503439889
   103   1      14.047267728633649      3.8792444925209684      1.8131438215959972
   104   1      12.656159479868421      5.0834870258496894    0.053318498412136074
   105   1      14.075488314909915      6.4912962624018915      1.7344925634293427
   106   1      12.657974960975494      7.6206900508545647    0.023045633528147411
   107   1      14.009954808710491      8.9632162974835854      1.6883364696176484
   108   1        12.6956576024737      10.202298186646329   0.0013319332706942084
   109   1      14.008958207324357      11.501114494554713      1.5649390825248817
   110   1      12.614736696936136      12.803719509778253    0.049031850398898846
   111   1      14.150812775250696      14.009869929913622      1.5715496220422771
   112   1      12.816644247428298      15.248643648597298      35.947144214082606
   113   1       14.12642146771053      16.691491486063281      1.5155698070860009
   114   1      12.704850045438851      17.863351306029056      35.918232931100952
   115   1       14.23569791692851      19.147509865624944      1.6500265967434082
   116   1      12.931887105282284      20.459737433117169      36.014564721283044
   117   1      13.881195755495359      21.701043179186424      1.7196975826676411
   118   1        12.7838629599635      22.959840160210994      35.913202288001735
   119   1      13.799086609732798      24.246641995739164      2.0277820249433955
   120   1      15.321097366205736    0.066582339815119948      35.918903220349563
   121   1      16.561406491291393      1.2946332869385024      1.8984832554530835
   122   1      15.360485480079729      2.4902253319560401      35.966316897067017
   123   1      16.515096097046534      3.8029160341289363      1.7732080163187776
   124   1      15.143870450435983      5.1583339430483841    0.031347188143479351
   125   1      16.581709758514972      6.4099753021255861      1.6814651441845054
   126   1      15.230736919916747      7.7279180888964198      35.890116868856971
   127   1      16.638952276532088      8.9950838593085152       1.702145585873075
   128   1       15.31132402283291      10.163064764671619       35.97814730099757
   129   1      16.649807462093928      11.601942952332708      1.7664239468558771
   130   1      15.289839258223838      12.760945720066314      36.061530214119593
   131   1      16.664037073107213      13.940013192920341      1.9583898066242558
   132   1      15.297008275022673      15.368762988108175      35.882864362465881
   133   1      16.620071534424866      16.199182657362687      1.6617697365878712
   134   1      15.321690626883983      18.095166774227629      35.992263236467402
   135   1      16.488061410305203      19.076381876971908      1.7851057667650576
   136   1      15.396864779683808      20.345492552100744      35.903288742599763
   137   1      16.458145036144515      21.765228372734331      1.8612789197450657
   138   1      15.248627598875302       22.92959363040061    0.012685583056043009
   139   1      16.456840660792803      24.241188083588497      1.8845523009751333
   140   1      17.879316769745994      25.402299162355366    0.042377208705158868
   141   1      19.071833344130457       1.444306231409112      1.8755405928560112
   142   1      17.690930915021497      2.3263874238349223    0.084159857658460208
   143   1      19.332855345868659      3.7821959485867036       1.813640886707528
   144   1      17.699728683925493      5.0167623313794794    0.013108592226296895
   145   1      19.312616104586287      6.3140136300886729      1.9707218175388217
   146   1      18.069534693231308       7.486837432008822    0.090300063819313298
   147   1      19.291869216415254      8.8972877345688417      1.8788589190701261
   148   1       17.90688824143858      10.122897440578802    0.028667009491357462
   149   1      19.046866663795701      11.314178924877455      1.7944582376203342
   150   1       17.81595810182861      12.620312137723401      35.951887755216909
   151   1      19.051334057936259      13.877597927030672      1.7250077026087871
   152   1      17.957387813734972      15.083610129254973      35.972320105047416
   153   1      19.113637553693057        16.4247227062903      1.7667503238202924
   154   1      17.690278979527978       17.84931777870797      0.0643538682428242
   155   1      19.150773466657991      19.149713671341612      1.8941861689742168
   156   1      17.967122548645492      20.451309087317259      36.061326787000517
   157   1      18.912160205619383      21.847618481021115      1.9456422339735795
   158   1      17.897190139529872      23.005046163365076    0.047505147391996336
   159   1      18.945316813874179      24.198171802374532      2.0780231135211227
   160   1      20.440670515279049     0.11793308017241053     0.22669115151909416
   161   1      21.842235042023997      1.1688520685453374      1.9764883402294131
   162   1       20.39856498046645      2.5396040089441376      35.870169242907288
   163   1      21.699026675461919      3.7192049274638492      1.9600170239126224
   164   1      20.339525424431287      5.0945994617490573     0.11422359852932683
   165   1      21.634045719628556      6.1874288767164733      1.7983499801228162
   166   1      20.378095660926331      7.6223202187050152      36.003663057890193
   167   1      21.725728021016756      8.9844813740507679      1.7399376743140798
   168   1      20.329510985576679      10.120960068008221    0.032156333334171443
   169   1      21.636945190586019      11.512650134642506      1.7706950530107981
   170   1      20.399223735018484      12.934654598803894      35.978327484130212
   171   1      21.514644047177896      13.793328756736988      1.6802199995877112
   172   1      20.470508153120775      15.248448431615209   0.0045314855108244834
   173   1      21.803046368121596      16.420056497917638      1.7136354519410946
   174   1      20.339091247350265       17.77672732779774      36.094963266524594
   175   1      21.705021170251822      19.055568526713689      1.5529295651406527
   176   1      20.278550188178123      20.386262400397133    0.078830112883827089
   177   1      21.572750706455018      21.673522351658363      1.8781813745657134
   178   1      20.474424172671466      22.977872272895702       36.06379928593001
   179   1      21.721605968359231      24.217503027254331      1.9013408714198703
   180   1      23.019935825985787      25.463754219449029      36.057152482532089
   181   1      24.243671785143455      1.1690091069316892      1.7837544840497446
   182   1      22.814163450279899      2.5825197867959711      36.061440898388284
   183   1       24.27319949405091      3.8262529283458959      1.9004673181899534
   184   1      22.936314808350549      4.9302733077489496     0.13525864008217919
   185   1      24.397475009294162      6.3930392322480554      2.0043875193816794
   186   1      23.016727950854303      7.5052033716426756    0.069497987906356778
   187   1      24.217138783179404      8.8097857818219758      1.8490426866828105
   188   1      22.837700524432542      10.060847140742851        35.8815579454835
   189   1      24.194682777327635      11.369076811007391      1.6766639632112739
   190   1      22.890108801557879      12.600201958214305      36.061782700517234
   191   1      23.910268407832909      13.870390910912384      1.8378288465778285
   192   1      23.010152313586509       15.04856973375284      36.007894706665795
   193   1      24.380540973425088      16.549590780893684      1.6182576915711022
   194   1        22.9606038000985      17.755245744200927      0.1463838435788945
   195   1      24.266210568459364      19.129128177712751      1.8363232345881895
   196   1      22.919955095445189      20.450525009133656      36.062574496453443
   197   1      24.357553084092491      21.853714052202633      1.9485985112763615
   198   1      22.954234433695305      22.917040993941704    0.012782786248180845
   199   1      24.175506057216317      24.310432444845809      1.7886283516945705
   200   1       25.39020252501987    0.097303761925982626      3.6361242611714317
   201   1      1.1522262201443456      1.2724314298685842       5.574503243671372
   202   1       25.45544210946975      2.5811085973089631      3.7850857000456766
   203   1      1.1843566870826134      3.7983527071750247      5.3772321880384233
   204   1    0.076536865030856036      5.1004430830433165      3.7623226514602575
   205   1      1.3933599147018632       6.283729233131683      5.3972945196652198
   206   1    0.067407284497625217      7.8089082536411283      3.7819666662392462
   207   1      1.2538718944739073      9.0891789854105429      5.4897599824056602
   208   1      25.506001770105229      10.312240720806669      3.7209634957264859
   209   1      1.3852795181170392      11.453688648702666      5.5882700684319628
   210   1      25.526268390436439       12.76771155132584      3.5564142748952814
   211   1      1.2975720968655675      13.979300841261836      5.4603754898377508
   212   1    0.097132290045156944      15.387345200092936      3.5686430381765937
   213   1      1.2276747432035477       16.42244151555748      5.3584178875783772
   214   1     0.13109134225666708      17.712076773428105      3.4648613500380305
   215   1      1.1169343717386122      19.022725977216876      5.2329372448298752
   216   1     0.11274913403138249      20.520875082259394      3.5172997724386748
   217   1      1.2319160325387621      21.643101488161587      5.4204105738341228
   218   1    0.086885353977783117      22.955152856168947      3.7745526379793657
   219   1       1.249133618843252      24.292299249915914      5.4403998103375235
   220   1      2.8217427313400436      25.317835786129123      3.5626880424080571
   221   1      3.7133132442491426      1.2486990417341663      5.3044336278054089
   222   1      2.8382435066569531      2.5793656097829629      3.4554650053787657
   223   1      3.7452186976742738      3.9117398177419638      5.4139349390456033
   224   1      2.6455859201170981      5.1996254627735876      3.5888103848076285
   225   1      4.0364710668079224      6.5314179382597359      5.3262084146170787
   226   1      2.5313998252893493      7.6497369593386733      3.4846408819671293
   227   1      3.8766625706994446      8.9218438170134746      5.3177559378854147
   228   1      2.5401931287099209      10.200671759542914      3.4482942994749339
   229   1       3.834403328854735      11.587858936098055      5.4222053428341326
   230   1      2.5028378662259696      12.704502753112983      3.5513845326243656
   231   1      3.7819432431219955      13.936404663409132      5.4410753754410814
   232   1      2.6983530551312822      15.242669123244239      3.6110595053602039
   233   1       3.905395555453389      16.493509140882011      5.5657881959150526
   234   1      2.8038550872495427      17.803690368646915      3.4830818561927357
   235   1      3.6890983146776448      19.121978424370287      5.5004529394365314
   236   1      2.5499605251780864      20.425691991180187      3.5037388424908942
   237   1      3.7346034018226053      21.702667460125934      5.3993723275044205
   238   1       2.638476656444968      22.853202335872012      3.5660573973245291
   239   1      3.7415365381805268      24.201168888927107       5.469036049903119
   240   1      5.1038230479175102      25.363845949273134      3.7139772648186185
   241   1      6.1050190338771095      1.2263897183491816      5.4313142801694747
   242   1      5.1855995322861634      2.3676988497150648      3.5319491709915947
   243   1      6.3212824152838891      3.7716004037766426      5.3609635921319896
   244   1      5.2414620995214527      5.0587788663783142      3.5477350158555971
   245   1      6.5078232137315162      6.2739266043371078      5.2200567623810308
   246   1      5.0796291950244532      7.7956114836701937      3.4948367068871438
   247   1      6.3744982943557629       8.952555123820316      5.4605648113798484
   248   1      5.0289389832885218      10.329964479377434      3.7289613655456839
   249   1      6.6068925373956322      11.506421248186905      5.3405644088154522
   250   1      5.0695341576306143      12.804285647957554      3.6414179260931467
   251   1      6.3622984667000191      13.874385015159325      5.5860922779269897
   252   1      5.0807335850457909       15.44842325703784      3.9579356863527559
   253   1      6.3630718460997313      16.533322549106487      5.6164461281183149
   254   1      5.2474771336725485      17.951790025102227      3.7855288157183065
   255   1      6.1361560746454433      19.047059141837217      5.5541615941172893
   256   1      4.9134202423829505      20.478156452306827      3.6972399428053637
   257   1      6.2587529052361841      21.672834721819925      5.4040337827753033
   258   1      5.1089592807637487      22.925640181925012      3.5368677081012709
   259   1      6.1378922887097067      24.183721218239285      5.5495018572966206
   260   1      7.5295527303627674    0.012423036263379272       3.800206726329185
   261   1      8.5968603753917439      1.3440455118261458      5.5614001939102522
   262   1      7.6726570419383293      2.4543056353637898      3.5065700324044107
   263   1      8.9241754134484825      3.9597167478354671      5.4017026922086027
   264   1      7.9022926926407688      5.0663833888784202      3.5303586929405375
   265   1       7.611201844275441      7.5471655805753821      3.5000923874138139
   266   1       8.783747152669898      8.9594598644932564      5.3659432866777186
   267   1      7.5708208673014088      10.029922334097764      3.6968040353679248
   268   1      9.0379499568455337       11.59694277321514      5.4824425488196589
   269   1      7.6278140536079677      12.777441245589941      3.4539918987683222
   270   1      9.0257440644161431       14.00166662493791      5.3265539260700532
   271   1       7.711119495274307      15.457068389829404       3.757772635472846
   272   1      9.0597941125833792      16.541100434751467       5.537255170649253
   273   1      7.8579613636083128      18.006207577018504       3.581506091441621
   274   1      9.0568226799498692       19.18686531102448      5.3355210252802339
   275   1      7.5664913710328152      20.392692041776229      3.7101463599939399
   276   1      8.8244640108031511      21.786520117077945      5.4507873904499036
   277   1      7.6107700709486048      22.875813690052251      3.7254944456898653
   278   1      8.7659503905896585      24.373021455103061      5.4366010448396107
   279   1      10.129731124470567      25.501132212085761      3.6238973401649401
   280   1      11.549265609382193      1.4140745438564826       5.597092632059641
   281   1      10.166893304563045      2.6606275493941873       3.768064831602898
   282   1      11.563922598630615       4.097934755506393      5.5776022195884387
   283   1      10.248691575090531      5.2435164473079467      3.5374357235157383
   284   1      11.434277935177279      6.5125163564982795      5.4040390806733294
   285   1      10.156847943371258      7.6531761266425038      3.6209724663903931
   286   1      11.411181667437962      9.1891040786386071      5.4858263071308313
   287   1      10.139518291812484      10.056351220448041      3.5870795090291856
   288   1      11.620881420971346      11.661124172287749      5.2789707244537292
   289   1      10.210523081194269      12.667732325019729      3.5002534446457281
   290   1      11.686823824477285      14.327402871564306      5.4757869740230003
   291   1      10.398641460347822      15.451340778636476       3.546485585348456
   292   1      11.444070000985988      16.730191055504321      5.4225771557975317
   293   1       10.41941463507837      17.902389298987526      3.5123473755574648
   294   1      11.534310126142236      19.143943480543999      5.5647171554512731
   295   1      10.343260692188437       20.52648875290993      3.6586876142039273
   296   1      11.536455944813973      21.588596793098663      5.4204027937630936
   297   1      10.298339617609075      23.058807598297417      3.7609315034924826
   298   1      11.405995325829998      24.295860637355982      5.4703667195763801
   299   1      12.612873353537127    0.013997198043187012       3.660477086336023
   300   1      13.964484779712208      1.1401976802680838      5.4101981266528325
   301   1      12.660188885658629      2.5570997778679385      3.6996533817929107
   302   1       14.00725814183707      3.7684309872465658      5.3597120455781768
   303   1      12.746542013857811      5.1811789296820026      3.6388994784791304
   304   1      14.019166496695144      6.3774511054372489      5.2626786103683125
   305   1      12.644277154153725      7.7167115294562096      3.6111674096923627
   306   1      14.132395479987199      8.9230916928676223      5.4328347205000229
   307   1      12.778860735959896      10.364687046294375      3.4657519043864355
   308   1      13.973660629715773      11.418624277968314      5.3962035983832255
   309   1      12.654387027066781      12.800244889152046      3.5199231109080658
   310   1      14.116230720141411      13.997380232430647      5.2951298959123081
   311   1      12.723703953102952      15.269095819403866      3.3466252316224425
   312   1       13.91999283528776      16.394239443862777      5.2785154820221694
   313   1      12.858832112417579      17.877676221512896       3.472477062970178
   314   1      14.109705762323074      19.100009453948566      5.3128472336411416
   315   1      12.675396618745797      20.359829672584745      3.4390141134470116
   316   1      14.063886444684693      21.752142266714387      5.4956149344969552
   317   1      12.771970203934865      22.851911621014967      3.7680371151934762
   318   1      13.987115823602883      24.161193562341246      5.5748669141023743
   319   1      15.259993348554131      0.1181321600335844      3.7076513111297089
   320   1        16.2972344678948      1.4114258728005562      5.4698489090123532
   321   1      15.329940847720515      2.5203781079185075      3.7579251378668075
   322   1      16.464295898614449       3.802381446948472      5.4061899110017189
   323   1      15.361761253203163      5.0857913091961091      3.5654881002012404
   324   1      16.559227928121896      6.3263727951704531      5.1748555337638056
   325   1      15.361014175505789      7.6338255758751545      3.5438908296300737
   326   1      16.549207467426324       8.891389868070684      5.2682471659496306
   327   1      15.110728632948183      10.134864337739117      3.4927424539727321
   328   1      16.729789493703478      11.446734991905039      5.2744476904027922
   329   1       15.14732778957883      12.520039395843582      3.5338226203448686
   330   1      16.348420126751552      13.840009730828767      5.3364176636907068
   331   1      15.357829344239571      15.219596839002858       3.588009468881149
   332   1      16.673487711991367      16.516199842697414       5.440883804268136
   333   1      15.389820305274698       17.68477148838377      3.5487092562273466
   334   1      16.660695386291405      18.925286787986625      5.1813503024786174
   335   1      15.304551019946604      20.468500079718936      3.6934350833955807
   336   1      16.681119561865469      21.551866747979826      5.3767651647082433
   337   1      15.236731239484804      23.111204793232073      3.7078516711397032
   338   1      16.511162385926063      24.375041320390295      5.4520942655908495
   339   1       17.66909967129461     0.11095243535317711      3.6759931239831318
   340   1      18.898714119636097      1.1712524971485989      5.3800846755611218
   341   1      17.889362093368049       2.620402228015092      3.6705918058136739
   342   1      19.167011962665796      3.7869350522862892      5.4439544806536713
   343   1      17.702324352286059      5.1601679865238399      3.4444442055567377
   344   1      19.117360069979068      6.3566466816854668      5.4266798993455394
   345   1      17.877088967574494      7.7175251365192743      3.3683969681436103
   346   1      19.030268940150986       8.724026524891606      5.3746273704133101
   347   1      17.755813058736813      10.155200568394978      3.5475787362743634
   348   1      19.210210120448348      11.587421032153346      5.5411534064289594
   349   1      17.884047436370142      12.695201460509264      3.6022490265681326
   350   1      18.997862949308058      14.013562490927233      5.3207945757941211
   351   1      17.772533572172403      15.064989603381713      3.6462642000574244
   352   1       19.21284965826581      16.342528402815645      5.3425044663147245
   353   1      17.862252043721202      17.635024803732502      3.6012867234282009
   354   1      19.374143902749797      18.904264335950622       5.247701524511986
   355   1      17.955839954263961      20.398549380613314      3.6345761726374324
   356   1      19.148359715771662      21.589562782316904      5.5421886183007336
   357   1      17.786770685339306      22.961781046490934      3.8389091854122399
   358   1      19.016057315574407      24.120530269730903      5.6472630090942584
   359   1      20.242310614666067      25.402243322685869      3.8639306980628967