dump/Cu_560_20/steps_81 (written by ASE) 

1980 	 atoms 
1  atom types
0.0      25.526554800834361  xlo xhi
0.0              25.5265548  ylo yhi
0.0      36.100000000000001  zlo zhi


Atoms 

     1   1    0.075707576964357717      25.473346028195127     0.10019160051405168
     2   1      1.3174249858616995      1.2675810926287514      1.7906847474983221
     3   1       25.29738144333615      2.5059943373740938     0.10076359734786144
     4   1       1.160566975434925      3.8313453073335011      1.7196709479991239
     5   1      25.414668566290189      4.9274961549207976    0.027024793899204275
     6   1      1.1902863680350793      6.3817039940862266      1.8205975705785593
     7   1      25.502346186185957      7.6030634657049134      36.089674231596426
     8   1      1.2824478711068183      8.9605826536087747       1.812956223617777
     9   1     0.31673288128647076      10.032637949527599       36.08066343896953
    10   1      1.2957106489092698      11.403502577086391      1.9565838080820177
    11   1    0.019877210391582665       12.73148278628123     0.12228283990343709
    12   1      1.2522503951361559      13.895819929649702      1.8453589840721754
    13   1    0.036269117775199346      15.184763352844602     0.10662105024474601
    14   1       1.222390761928015      16.403831064716741       1.822829344020044
    15   1      25.446009810401435      17.771245627679995     0.02424679646123877
    16   1       1.213286141870199      19.023668815470337      1.8067995403041208
    17   1    0.042988188253276591      20.359635304215256    0.092053006995604564
    18   1      1.5186047495426345      21.675819577683534      1.8757272416679023
    19   1     0.07297441804960253      22.946847116623712     0.11150665019162044
    20   1      1.4919039313888172      24.212859536726668      1.7359271220745307
    21   1      2.5179379249368123    0.072551168323003429      36.083714416338012
    22   1      3.8129818369583512      1.2987770763011788      1.6449045336880543
    23   1      2.3523493723913171      2.5153685827185366    0.022231236302661737
    24   1      3.8371815389198209      3.7323103315176387       1.763805161058895
    25   1      2.4327436108586817       5.062598410919807     0.14825006075780053
    26   1      3.7709945235325764      6.4299991809860497      1.8388671625899515
    27   1      2.4164162425712199      7.6692387752047653      35.998063998203293
    28   1       3.679777857422994      8.8149535257871054      1.8867447200952254
    29   1      2.6494461029162699      10.273956963483215    0.060282280725607394
    30   1      3.8319578691076819      11.393511925009175       1.971807137240261
    31   1       2.656928059912274      12.810015920094457     0.11077283432791783
    32   1       4.001526880945999       13.92030541638796      1.6445616401017555
    33   1      2.5658756537103047      15.205764067429447     0.22773561006019932
    34   1      3.8819456661670269      16.555645397748481      1.6101757185349825
    35   1      2.4636249013211082      17.684771907742107     0.19908469790818803
    36   1      3.8654581671532715       19.27077957619602      1.8138139297103855
    37   1       2.497335039897687      20.543573480931656      36.022459521935581
    38   1      3.9096259896721488      21.799499361377919       1.690650985448473
    39   1       2.448607345553691      23.057057352069343      36.048602386081633
    40   1      3.9153496261098697      24.289972305990254      1.8806062509596799
    41   1      5.1267395137300413      25.500063977423515      36.011372745573418
    42   1      6.5597059284717325      1.4661161439020893      1.5860870915208813
    43   1       5.071595478681175      2.7825136510631352      35.990061029748027
    44   1      6.4623105458487426      3.9418596442157523      1.8153579520303551
    45   1      4.8465451733036371      5.1289178365828105      36.037575450397725
    46   1      6.2604200797861989      6.4034716385890889       1.779323497191992
    47   1      4.9998631204888966      7.7704580501807241      36.065970875937694
    48   1       6.162614711994725      8.9260885160722747      2.0269283184594777
    49   1      5.2084331976736378      10.327521241755065      0.2125653751131609
    50   1      6.5352478784463361      11.527048275521805      1.7918309745158589
    51   1      5.1241957575678558      12.677029916640072    0.055198623999092561
    52   1      5.0313971938559909      15.434842473794909   0.0040812187525375377
    53   1      6.5382291526292624      16.555261851171252      1.6805107528857786
    54   1      5.1107355960962462      18.030361370684314      35.926238999955672
    55   1      6.4762234029578014      19.239686486090299      1.7022636634067909
    56   1      5.0569631901616656       20.44629184866951   0.0052687809779854398
    57   1       6.278404933050874      21.788625360701225      1.7370674144970493
    58   1      5.2179436381194213      23.170367664086225      36.073068094711381
    59   1      6.3723641473572377       24.23226792241443       1.833692274740804
    60   1      7.8297534122887349     0.05836676962494116      36.051283641629773
    61   1      9.0193457940747823      1.4510027504532355      1.6948355663631347
    62   1      7.7128456345208303      2.5472468652493849      35.889634713883019
    63   1      9.0772663359128476      3.8604121345789535      1.9455616227832369
    64   1      7.5376512078309714      5.1324186883774452      36.074283352595948
    65   1       9.152997866704002      6.5091157816984548      1.8108691907788643
    66   1      7.6750015120643909      7.5626107110479817     0.14271716308329574
    67   1      8.9363931868282691      8.8356119579019001      1.7362930176144218
    68   1      7.6674378392986053      10.154271970534964      36.067354700792578
    69   1      9.0196678383363835      11.594702767488736      1.8930473381717219
    70   1      7.9697733147932208      12.846984688355414      36.076677990482885
    71   1      8.9254318754556863      14.060724890553878      1.8520875869805775
    72   1      7.5528784310898258      15.164716482172659      35.975361249242695
    73   1      8.8763983519030916      16.580970649357724       1.852995568230893
    74   1      7.6822226904507325       17.94051868309398      36.018577485687175
    75   1       9.111196796090903      19.117431096119887      1.6396504356387931
    76   1      7.5583726110217588      20.521103893895678    0.026386016662354458
    77   1      8.8781308166651272      21.779468157857977      1.7386124656397202
    78   1      7.5737613831754445      22.930558850315958      36.091685707205912
    79   1      8.8598452892564481      24.174221008436231      1.8254934223245181
    80   1      10.497558661635171      25.508696288535752    0.090859370968348854
    81   1      11.434990418832744      1.4931058325588129       1.783068077831899
    82   1      10.296770280239006      2.5958879360425788    0.084111899767094628
    83   1      11.504712935639301      3.8968539156435416      1.8957436358040811
    84   1      10.336755723987514      5.2047344364494919     0.17601586991156629
    85   1       11.48842197347847      6.3402502840065669       2.001431036299584
    86   1      10.227603189852831      7.7315062543931008      35.890895560882107
    87   1       11.33973066066247      8.8119842659147665      1.7834730275853523
    88   1       10.18524270755278      10.186726571543094     0.10714745841958112
    89   1      11.541864239799006       11.35930693335041      1.8020744349341737
    90   1      10.251691042169496      12.702828575672253      36.085442297754497
    91   1      11.451399831910914       14.02897919392329      1.7734501770928772
    92   1      10.052634335262406      15.387836385731678     0.00494279544572011
    93   1      11.338985102417489      16.574582696496556      1.7255551871615809
    94   1      10.190601728833274      17.870680688891419      35.956088724949886
    95   1      11.575594059994396      19.185431553094929      1.6664036667288542
    96   1      10.333786124736783      20.588039175212749       35.94645095137718
    97   1      11.666411553757712      21.669999379704088      1.6100557434114526
    98   1      10.213993845743873      23.231056080001142      36.026415835303148
    99   1      11.671480860103657      24.048102884318102      1.7651336374710238
   100   1      12.945236983667272     0.12699095599854773     0.23554436469531773
   101   1      14.128807877798286      1.2125787559622498       2.030160208155654
   102   1      12.856513493577998      2.4519249722219856    0.092221763357588166
   103   1      13.904553574261142        3.64658609222159      1.6577300908632326
   104   1      12.743295003124194      5.1557383940891617    0.070723261177727342
   105   1       14.08406255706757       6.465273249189849      1.9353252324685852
   106   1      12.685738548473546      7.5988452850462034       35.95570608534738
   107   1      13.908801063137519      8.9787245055680618      1.8999256798299711
   108   1      12.703394018304071      9.9642846267907554     0.12847095628659419
   109   1       14.04554270348353      11.368947851934845      1.7544405489162036
   110   1      12.756369135160755      12.400629344147179      35.980262130885215
   111   1       13.82337699942501      13.900528492571462       1.781578482216025
   112   1      12.742659753349924      15.076953745215199      35.954984719011186
   113   1      13.917593748059355      16.430917374772697      1.7884242751763642
   114   1      12.775830083912673       17.92648227245191      35.815938960070433
   115   1      14.143365884222344      19.015466716350392      1.8200134022019487
   116   1      12.944388080728732      20.489535589981877        35.7740520259646
   117   1      14.099716108687188      21.606554952650825      1.5347872162682163
   118   1      12.755628867708444      22.905144282488514      35.854321115765131
   119   1      14.224192171767763      24.042004638843245      1.5912775619984236
   120   1      15.415841074536816       25.52517214817831      36.035676041124013
   121   1      16.675385586043198       1.170052860281944      2.0435382986220838
   122   1      15.439566762689694      2.3317479912489261      0.2223186572347346
   123   1      16.501398986048208      3.7604688599149729      1.8245258157090702
   124   1      15.315419401442696      5.2467681353617204      36.069423535055101
   125   1      16.480343506463957      6.2863046330474148      1.8288809868019931
   126   1      15.286172542820216      7.7572391646426739      35.998411691171455
   127   1      16.641578669850922       8.928070748128393       1.772578688509951
   128   1      15.340810310398133      10.190150972381586      35.853537970388736
   129   1      16.363110225663473      11.245101777562549      1.6266419948796627
   130   1      15.326241455111477      12.774759988562751    0.023378833053641287
   131   1      16.565780793627816      14.268084272876235      1.7667975538791676
   132   1      15.211085351195029      15.137825812647606    0.017021097664701296
   133   1       16.41177862226203      16.635048869214131      1.7552330557247264
   134   1      15.164254448638886      17.803488211669887      36.033883925478769
   135   1      16.656732849483191      19.142652003343134       1.637745316077315
   136   1      15.335556877608216      20.338711625047328       35.98406496506167
   137   1      16.665014722753305      21.477886585972112      1.7133650825904188
   138   1      15.505916075055037      22.764347015682226      36.069898926014943
   139   1      16.604188571536355      24.267069970991166      1.8953786117851443
   140   1      17.969016059115905    0.044133437778847047      35.973744846816764
   141   1      19.387762845348409      1.2845913906790392      1.8031452607538072
   142   1      17.874210876407084      2.3449637485140729    0.045001282353371079
   143   1      19.165271568817495      4.0645315638721273      1.7687920220108702
   144   1      17.855224232949791       5.175508277094071     0.12161862860176602
   145   1      19.080092395337722      6.4777801903863343      1.7506918180924695
   146   1      17.845462362370892      7.6335687588427588      35.998182970218323
   147   1      19.143100159311345      8.8641308977596935      1.9539965011398182
   148   1      17.812232226122745      10.168787275276967      36.086652472161497
   149   1      19.026630790070474      11.550575087294604      1.7792471137241348
   150   1      17.766371503677902      12.856749879440461     0.15975379636809051
   151   1      19.272394458398875      14.062130178201881      2.0280226312505314
   152   1      17.901586441191103      15.561798328165592     0.19977649205972062
   153   1      19.077584121257068      16.674869771170563      1.9299388328234155
   154   1      17.911929991338788      17.915808859730237    0.049919555758538008
   155   1      19.110739307123762      19.221756239954317      1.8015978321089978
   156   1      18.129241316927956      20.495515326408732      0.1782649075563312
   157   1      19.270572440934824      21.891735290825363      1.7526019453268291
   158   1      18.115411772388988      23.036720512456622      36.031076223199484
   159   1      19.327964510942675      24.291105641849292      1.8142603059878653
   160   1       20.68269710589637      25.521495212594182      36.064049540857404
   161   1      21.811394313887462      1.1800956144985302      2.0505889247684874
   162   1      20.488486683264075      2.6662090710790447     0.17770727145107218
   163   1       21.69967126259214      3.9843694036303905      1.7443803785555023
   164   1      20.629093423643475      5.2691903353978864      35.893786916912191
   165   1      21.503503879590209      6.5707172184237121      1.8462996394251263
   166   1      20.337956679926311      7.7473737990161924      35.993537008648339
   167   1      21.658648877865584      9.1264088057455535      1.9228060916396088
   168   1      20.302946373548721      10.349482554880449    0.051623202903340513
   169   1      21.688653036409097      11.590529330759502      1.8556384389823271
   170   1      20.294922653163361      12.931453376284919  0.00011753484925520753
   171   1      21.654576999314898      13.966586674582699      1.9243264716235446
   172   1      20.442589751215387      15.522491460298955     0.11967320067690235
   173   1      21.582027534538206      16.513740457285401      2.0407394155850072
   174   1      20.211046714127054      17.805991745142691     0.10504954422574422
   175   1      21.552156768018872      19.051501386196794      1.7631574589712153
   176   1      20.585057157815871      20.277531338349736      35.938646629745229
   177   1      21.850256588522363      21.670758152212539       1.742890000325678
   178   1      20.469288934015399      22.984719031430959   0.0038406007651474411
   179   1      21.849542908042256      24.175371729944338      1.8512418277603064
   180   1      23.049705253403864      25.458859307922427      36.082488027795286
   181   1      24.332880814910538      1.1118704350262396      1.7684487969491438
   182   1      22.836326273540124      2.4669128526583615     0.22922734901087555
   183   1      24.173517480108114      3.8229705831369514      1.7580810591626557
   184   1      22.923289341061643      5.2902710374175888     0.25710374698522837
   185   1      24.271843912405885      6.3836518100154054      1.8422710943946523
   186   1      22.674141491217622      7.6179356087092227    0.066308316139122844
   187   1      24.481724964337289      9.0777157102102048      1.7718415079451362
   188   1      22.845464608059686      10.036662153486834      36.007149704422631
   189   1      24.224697412640843      11.380956267234701       1.653701736201195
   190   1      22.971251190247369      12.918655124111062       35.98630480953809
   191   1      24.233707609293624      14.005958406477459       1.975107158399295
   192   1      22.862828813403375      15.365056069380634     0.20071234451770567
   193   1       24.36337849380179      16.493608980206684      2.0405967519129842
   194   1      22.791202261876546      17.691732268587778    0.085065741461858219
   195   1      24.328429588737478      19.056314738267265      1.7913742331129239
   196   1      23.077986108707083      20.262044037644877    0.030630120052489915
   197   1      24.487804388750853      21.575803343200768      1.9326426428782613
   198   1      23.180609564614972      22.860683080099342     0.14985119279692757
   199   1      24.456829181738026      24.237855878917028      1.8954770168860835
   200   1     0.17027562114863573      25.499343422428499      3.6145892836763127
   201   1       1.408022670154045      1.0304717126986926      5.3739964290303517
   202   1    0.084331294674557786      2.4606723006528539      3.5751961011262114
   203   1      1.3933001755020298      3.8782554412794363      5.3313932808874727
   204   1     0.01976661005468109      5.0312622531191655      3.5637408141010707
   205   1      1.2515494961480371      6.3554179019416948      5.3125790951943435
   206   1    0.025869185482383376      7.5498626621521572      3.6764835256903488
   207   1      1.2594114622529793      8.8953986931572082      5.4689430144890663
   208   1     0.07637192854904204      10.268158164406589      3.5038346766472848
   209   1      1.2281155675166133      11.397293735859877      5.4662330040128664
   210   1     0.10320615744804365      12.636971146094581      3.6072725346368992
   211   1       1.349415349089593      13.938546466876868      5.4794624412830402
   212   1     0.13958676824009478      15.248257676349722      3.6488618025237272
   213   1      1.2587143406297527      16.571484710860602      5.5253511259414871
   214   1     0.10410317871042447      17.801449292491053      3.6478322974204569
   215   1      25.471418103437376      17.799737383573785       7.087505637298614
   216   1     0.15804839889352934      20.415300471055147      3.6294589911730402
   217   1      1.4304592737251045      21.666172994576787       5.280469267185123
   218   1     0.21312613022717472      23.006149902112039      3.5612496211775917
   219   1      1.4061614647700091      24.114642952509744      5.2644607945226642
   220   1      2.8344009709248876    0.068134563584283131      3.5465100609758009
   221   1      4.0186899093931334       1.288369130702526      5.3766826980401881
   222   1      2.6455871245537894      2.5698407674517036       3.575830510005551
   223   1      3.8705271033390773      3.9867327384353937      5.4314942032481914
   224   1      2.7033746033421826      5.0679983746401129      3.5716223281364479
   225   1      3.8122654882559632      6.2303478514104684      5.4334823864265376
   226   1      2.5667076821058878      7.5089556965233912      3.6652273452436193
   227   1      3.7699785772940602      8.8966985372305594      5.2767801231480354
   228   1      2.5330960296097276      10.253045753519441      3.8023803354633232
   229   1      3.8095777960249881       11.52931588676155      5.4906130892854046
   230   1      2.6509836787827128      12.702963085490005      3.5507176703729231
   231   1      4.0040335421403936      13.850848344108581      5.3712671048028593
   232   1      2.6572154048345795      15.292161403320506      3.6175976420780516
   233   1      3.7483101327856185      16.570054445322093       5.529684740079273
   234   1      2.4841693987388753      17.851087191432342      3.6568378884436825
   235   1      3.7773500742606725      19.096698880420945      5.5048977009499023
   236   1      2.7116897288701169      20.439753600397914      3.5772885764545448
   237   1      3.8684731178857894      21.632872320002328      5.4805056120946301
   238   1      2.7637945104133737      22.917258813560963      3.6199292227229014
   239   1      3.8855542590558638      24.098650562301188      5.3683289445465929
   240   1      5.2887005626117869      25.401727806555272      3.6318422827029071
   241   1      6.5017507596710926      1.3111023697500093      5.4528797213715228
   242   1      5.2511335203682288      2.6264677836984096      3.5748732503918763
   243   1      6.5145751364598539       3.930530618958981      5.3319095699445089
   244   1      5.1020153446108019      5.0860434506553096      3.5957194275987945
   245   1      6.2656606066710818      6.6164752370585278       5.555485822479354
   246   1      5.1111340606511053      7.5374874520184783       3.634594792640764
   247   1      6.1941612913086264      8.9873731839623474       5.407370803687269
   248   1      5.0844615794158736      10.569729193582774      3.6227806798182112
   249   1      6.4732973321314908      11.388082921480409      5.4152208329333327
   250   1      5.3040259584008798      12.821178077278988      3.6244241862261966
   251   1      6.4259607221068773      14.062693992784057      5.5686962846517236
   252   1      5.2498802569560183      15.332485304202258      3.5645264848132094
   253   1        6.42113134507224      16.785138225196999      5.6047473201399427
   254   1      5.0027522337180628      17.917398322196181      3.5278120430866577
   255   1      6.2966543650449163      19.196426170128188      5.5207476969983551
   256   1      5.3448989709205188      20.481297661720433      3.6614368874843009
   257   1      6.4318790547336127      21.548047225839134      5.6601761113731417
   258   1      5.1184880581654202      22.804279805926932      3.8422494225268493
   259   1      6.5531939597278308      24.236884277717753      5.3438738703078341
   260   1      7.6033149631902637    0.011627422424863405      3.4909902328996161
   261   1       9.010818705822766      1.1680821770443304      5.1938016245275334
   262   1       7.672556313726691      2.5954196044471241      3.6126873983631755
   263   1         8.9637440746046      3.7227346849726866      5.2029122401503596
   264   1      7.6631079165674834      5.2140220556154935      3.4979729609707313
   265   1      7.9143332363574208      7.5834463752375312      3.7420952456859053
   266   1       8.972691419249589       8.905143068224433      5.6316340977989858
   267   1      7.6885104540109657      10.031833912517113      3.6981194791653409
   268   1      8.7348923929519611      11.549334100098495      5.4983920359248426
   269   1      7.6312346147692312      12.698505688212931       3.558287322962475
   270   1      8.9147767027239002      13.873355169884899      5.4178839073885214
   271   1       7.868892507477117      15.229376127959606      3.6869895893832787
   272   1      8.9969510535963586      16.449120147175449      5.4409824691787856
   273   1      7.6992368086134135      17.807179352579301      3.5620705544408797
   274   1      9.0741798825102098      19.046102924432525      5.5373161405117619
   275   1      7.6814515920579041      20.359904833697371      3.6399385007936629
   276   1      9.0336328415157681      21.637449946765933      5.4259886130552211
   277   1      7.6528351966975308      22.821767084641827      3.6996759622272455
   278   1      9.0364012256182562      24.272655413410053      5.2874455625841712
   279   1      10.206821963587622      25.496051041680833      3.2811881750249201
   280   1      11.423736576261916      1.1397600280515454      5.5669051450628286
   281   1      10.326362379522124      2.4029447750301922      3.6117817016942055
   282   1      11.395175599417811       3.713474662642934      5.3641537020852059
   283   1      10.162025241694973      5.1707737874678052      3.8326644895466426
   284   1      11.447456961427783      6.3392833431883835      5.3360595013940939
   285   1      10.192221362526377      7.6834912914962148      3.8550721046974066
   286   1      11.391876713260368      8.8416120989833793      5.6143785640710693
   287   1      10.252179020896042      10.218859083853669      3.7115989479400842
   288   1      11.494900216364366      11.615695528865629      5.4126868871162257
   289   1      10.195066210075328      12.723252133138679      3.5817095054275923
   290   1      11.537275649342105      14.039532408181209      5.4042460871705291
   291   1      10.302392124637727      15.349877468770154      3.4491102614850759
   292   1      11.409063426599973      16.598266805250088      5.4488485406708262
   293   1      10.193048803228141      17.783088253573055      3.4754552115278998
   294   1      11.691227748880335      18.936744490165751      5.4300339568148424
   295   1      10.093673381780928      20.384657313732173      3.6930564284259324
   296   1      11.422434031753669      21.506467543221625      5.2453408312487708
   297   1      10.399776896016627      22.847542680661146      3.4233191357750345
   298   1      11.517725770438203      24.050322799714905      5.2501104961512821
   299   1      12.659489000086657      25.389247968979976      3.4453589330483854
   300   1      13.976614952271493      1.1302615343165729      5.4176048736944411
   301   1      12.798319657711222      2.3054596209937595      3.5811072336711169
   302   1      14.080670855919317      3.7573712142435403      5.4933538527825974
   303   1      12.846654106447405      5.0172246018462516      3.6229624537123764
   304   1      14.050329537847702      6.2428063418987545      5.4081713977870285
   305   1      12.645995663171167      7.6541155497396538      3.5954691060619326
   306   1      13.991280012306678      8.7675563312425293      5.5296312182501008
   307   1       12.70110439701063      10.108304544317734      3.6875203313263181
   308   1      14.127257585398981      11.272275987827282      5.4881406357902964
   309   1      12.610393166005027      12.534857161418666      3.6389183454833196
   310   1      13.990715519490278      13.929478849296432      5.5334009597165217
   311   1      12.850465754701514      15.355162696860578      3.7015385627874804
   312   1      13.881528075523104       16.57676942122831      5.4210616713831046
   313   1      12.693049027018265      17.872246821859477      3.5115888493245055
   314   1      14.126373552607392       19.06526927441454      5.4730323247190391
   315   1      12.729661119183717      20.488457534452987      3.5491272273626238
   316   1      14.192042326232302      21.627799380339887       5.569082697780642
   317   1        12.9825683631021      22.913270354189571      3.5834341346095253
   318   1      14.071729413830116      24.175509414296297      5.4545188400301328
   319   1      15.371873364088835      25.318695831810444      3.7012616353230627
   320   1      16.679499898748645      1.1035122343630306      5.6345701760151155
   321   1      15.457558650311826      2.4838920709913226      3.7689985640947761
   322   1      16.572921490902825       3.890301378993354       5.265637894589541
   323   1      15.422249595068706      4.9543506738287153      3.4944241456793992
   324   1      16.663631049719104      6.3943629893949812      5.4511254061306822
   325   1      15.265290160955123      7.6373747189344554      3.6617082862240435
   326   1      16.570430446010977       8.818308656141447      5.6182587437952547
   327   1       15.23503626036805       10.14884679125924      3.5794079061066539
   328   1      16.584985817420751      11.541063041267309      5.4472778467988672
   329   1      15.289260789653296      12.579027053628497      3.4609488475299481
   330   1      16.407876146277282      13.952511024915813      5.1953672024318918
   331   1      15.230439171237025      15.221342315327135       3.734534308195097
   332   1      16.460345794903319      16.595513551870454      5.4464678603343879
   333   1      15.266312760252926      17.767562647575506      3.7996054726632207
   334   1      16.551181337241662       19.28471710249714      5.2858292222798786
   335   1      15.326307606397389      20.167215134235551      3.4952902865159317
   336   1      16.775113602257417       21.60847081421014      5.3288801691261547
   337   1      15.337242476416018       22.73032463110496      3.4932182246967849
   338   1      16.681494997512125      24.073970184781018      5.3361224653501003
   339   1      17.938316817839418   0.0033577662856718216      3.6091588567175794
   340   1      19.192189088013453      1.1961042407736806      5.3127844179414447
   341   1       17.94714525610453      2.6446073960599596      3.5812940833620357
   342   1      19.245089854013926      3.7865510030014415      5.4134486666446451
   343   1      17.925389498686283      5.2556867198378621      3.6674028542083774
   344   1      19.251823927121919      6.3776181919920125      5.4709144466031736
   345   1      17.659962626583745      7.6951487256234117      3.6678375219505899
   346   1      18.999284541716737      8.8511703138384963        5.36157804338501
   347   1       17.71095806725139      10.294423697984268      3.4666099857615795
   348   1      19.117143507584426      11.715326314087882      5.4763258933668135
   349   1      17.732325678427667      12.688549615612313      3.5746338740162962
   350   1      18.944933417108587      14.153048471314309      5.3775885695682462
   351   1      17.690263453438014      15.228143240715669      3.5978715733388067
   352   1      18.836302727712194      16.679360694224986      5.3756416972236423
   353   1      17.727797585968169       18.01899697270332      3.5164871141181742
   354   1      19.041505192386559       19.20536446949496      5.3222322277201997
   355   1      17.943589438838629      20.631809570428786      3.5557817917188017
   356   1      19.410810216464689      21.687095094623615      5.6140757681931968
   357   1      17.996016851501377       23.12642542905478      3.5636681040402429
   358   1      19.364005202381673      24.330479820297413      5.3676942283649316
   359   1      20.647998977125443    0.036143168632362603      3.6786332136973043