dump/Cu_560_20/steps_51 (written by ASE) 

1980 	 atoms 
1  atom types
0.0      25.526554800834361  xlo xhi
0.0              25.5265548  ylo yhi
0.0      36.100000000000001  zlo zhi


Atoms 

     1   1       25.48786935150056      25.290879606557258      36.079801570723497
     2   1      1.2548292654020379     0.96767478423763287      1.6647029551528005
     3   1       25.51520397040569      2.5352830704903546     0.17884452320718078
     4   1      1.2872150598025491      3.8735911160883751      1.7403876768712623
     5   1     0.07344910161846481      5.1723290271750848      35.929416950690701
     6   1      1.2762936124366442      6.4178506378860565      1.5800314808589979
     7   1    0.054921986035282151      7.7623109814416917    0.070835735661626265
     8   1        1.31133444560137      9.1523616531062046      1.7098867491770535
     9   1      25.493383583134563      10.243493170718681      36.028468115153281
    10   1      1.2599920118977106       11.55617824261037      1.6604486379264567
    11   1      25.392706930090885      12.788343199048896       35.99544356950021
    12   1      1.2802031294361487      14.217406415933478      1.8067663712148154
    13   1     0.28919405134222648      15.371423511706533      35.891957343554488
    14   1      1.3046370961953386      16.591031267739638      1.6651823761983444
    15   1     0.27826710846262059      17.900946551203084      35.926856334998121
    16   1      1.2804994863935757      19.113659527394983      1.7572320544857476
    17   1       25.51926854398576      20.353670663837679      36.094119827843677
    18   1      1.1787555535349321      21.745959366426828      1.7047960365511476
    19   1      25.436305622760589      22.832165168652509      36.092605102475467
    20   1      1.4334551926678882      24.058378531637022      1.7097850984840408
    21   1      2.6849476433936821      25.461701877257628   0.0078273223851056308
    22   1      3.6532322247450075      1.3274412237333264      1.7155712367903235
    23   1       2.404668881179119       2.582975772866126      36.065482284714953
    24   1      3.9073434940051293      4.0469664917379307      1.7630459978088544
    25   1      2.7905678002842871      5.3351107390573898      35.915557406711947
    26   1       3.815121707422386      6.5393508011538533      1.7781657365393262
    27   1      2.4595763663257344      7.7928583834047362      36.002724075842373
    28   1      3.7702339626141437      8.9549876418685628      1.6699218354471099
    29   1      2.4317790834787232      10.470748206622577      36.023544623407936
    30   1      3.7835567469343192      11.625423245121262      1.7679393192243893
    31   1      2.4393523327454405      12.844296083591773    0.080739307852525047
    32   1      3.8327346692878446      14.131642223903985      1.6423726011921529
    33   1      2.7011420594485056      15.501286631591292      36.044964909643646
    34   1      3.9230980391519199      16.689671178169682      1.6102040760819922
    35   1      2.7014620759781791      17.940578110667662      35.848425670232167
    36   1      3.6663625944373659      19.134172406962008      1.6347987890121867
    37   1      2.4591305078119832      20.330834745236839     0.02755521606758295
    38   1       3.802882756611357      21.700829416096028      1.9087864878963605
    39   1      2.7368983257821338      22.801483011501908     0.06433437637380178
    40   1      3.9301393527359929      24.300860541215705      1.8735113296788086
    41   1       5.160576892333621      25.393260188303501      0.0226174788407775
    42   1      6.1193085371927767      1.4420346612242658       1.775705746174753
    43   1      5.0876698186306655       2.488212512489314      35.973552203426458
    44   1      6.3232773866800223      4.0313069383192923      1.8393644606786335
    45   1       5.388377001591933      5.1661436723390413      36.061703940694336
    46   1      6.4975698129235733       6.428105056695018      1.7512861588867616
    47   1      5.0723248480291856      7.8320794148987201   0.0043861209832357275
    48   1      6.4499706373709849      9.0650095269085469      1.7184456776785964
    49   1      4.9773107760961928      10.253007603468127    0.038439432655718399
    50   1      6.5151412905829318      11.675677148352971      1.8850797599583078
    51   1      5.1466737028580649      12.818616387790303      36.069590085839579
    52   1       5.223136749227888      15.347862076311381     0.12359236870697707
    53   1      6.4285561021504387      16.599906933749406      1.7355628902279834
    54   1       5.159253199887508       18.04698888782114      35.942794403973828
    55   1      6.3966044136731028      19.102126868394777      1.8629213601964676
    56   1      4.9840686152926459      20.525539929569771      36.000539150941052
    57   1      6.4573282690319322      21.752630619724847      1.8550670467842894
    58   1      5.1851033952939893      22.928532583709178     0.11400159473386105
    59   1       6.461856863612863      24.416529045550416      1.8078107141394648
    60   1      7.7483298526105848     0.16608119095408613      0.0403590582717471
    61   1      8.8014260133501612      1.3225070548483311      2.0491346427545967
    62   1       7.748457885423762      2.5502427529139551     0.11126453146807772
    63   1        8.93279703813681      3.9762135021554474      1.8633617644249627
    64   1      7.6875707052882181      5.0381037421249681     0.22750391259792196
    65   1       8.928040526036078      6.5361621522658275      1.7245512853595746
    66   1      7.7388940001693669      7.7133847485427642    0.091422187734087723
    67   1      8.9155748050733941      8.9702252285751225       1.884209164061156
    68   1      7.7223900787465434      10.138123987991344    0.007054103312032118
    69   1      8.9778975981007871      11.499321440903657       1.883559412852277
    70   1      7.7597879214591119      12.923545769290319     0.12988616332430644
    71   1      8.9930646839718307      13.951660333445476      1.9221176375399991
    72   1        7.64020502327448      15.247132266515306    0.025286186108678527
    73   1      9.1289388405481375      16.474258112824561      1.8149666390718504
    74   1      7.7727371567473753       17.84574679909888     0.10602958765626898
    75   1      9.0583390906635728      19.277048445345688      1.7221747291459455
    76   1      7.7157013076174499      20.434686227061654    0.043424962818005473
    77   1      9.0796121355706276      21.685967457362576      1.7684922954582831
    78   1       7.760219036242038      22.854329727522362      36.065709405504073
    79   1      8.9159399667328536      24.238575193018558      1.7591722078156076
    80   1      10.134043490492253    0.033163652930813664     0.17416142868175924
    81   1      11.325707849772115      1.3023680782538956       1.973387991184812
    82   1      10.230543920860404      2.5007155708029867     0.11214394969576934
    83   1      11.466064750027948      3.7724327164989111      2.0879587615607536
    84   1      10.293270097743122      5.0882289472755868     0.20674090305075196
    85   1      11.413800249951615      6.1422782554462874      2.0251178322085464
    86   1      10.385048984156461       7.387468723911029      36.068963388966907
    87   1      11.414651765613938      8.8429514159419007      1.7968974874819641
    88   1      10.154188276084508      10.125484265103116    0.013874113991516897
    89   1      11.327647168533348      11.340615786523076      1.6009577146576117
    90   1      10.328954964559388       12.75218301183696    0.020722400365946213
    91   1       11.44206332143518      14.146910781591581       1.682665082587028
    92   1      10.287113758939016      15.221564741036259      36.061038208706506
    93   1      11.649719055950813      16.666203069141336      1.8487706639852164
    94   1      10.289382792334754      17.997976904644169     0.11652475325777234
    95   1      11.452706719494822      19.076709937847877      1.7835821465325814
    96   1      10.343281054421134      20.456350642006214      35.970737448754726
    97   1       11.58179767202123       21.51300353124169      1.7502836616291337
    98   1      10.307767663142535      22.829665368155101      36.037948843291922
    99   1      11.439143751082211      24.223317673525099       1.726626495146695
   100   1      12.568357418070178      25.387039627328694    0.023949961469190855
   101   1      14.019551764976175     0.89410210060753426      1.7913939145829205
   102   1      12.608220026642902      2.5501976426782238     0.15658422253387699
   103   1      13.858741588191968      3.6017633777758644      1.8064529536850167
   104   1      12.738733581897689        5.04925574004836    0.083634582747333749
   105   1      14.093235619557872      6.3568929929423463      1.9110261889921276
   106   1       12.87631433644982       7.765126679575201     0.31067786425360272
   107   1      14.246774237888731      8.8628332096910238      1.9899502535620164
   108   1      12.955671024004289      10.230292602800258     0.10145678243459329
   109   1      14.201325907671983      11.380577448467292      2.0180888349867026
   110   1      13.172900058179238      12.730771344998447    0.073095806927335749
   111   1      14.182199086540209       13.94961252410819      1.8926287131966781
   112   1      12.729209616943621      15.473745092147155     0.10020624458520626
   113   1      14.251954128973159      16.450966867414294       2.118929698712237
   114   1      12.709826940089583      17.784709883653136      36.043576365857426
   115   1      13.948709109275024      18.962847665610816      1.8264134960317271
   116   1      12.866592267840861      20.335316163723025    0.084293430354102805
   117   1      14.079473702868087       21.75183812100142      1.7875600084090724
   118   1      12.761771620878761      22.794475271439651      36.014135728625696
   119   1      13.776967420130541      24.039643190731358      1.7484883188848697
   120   1      15.258421012214139    0.076032774111416679    0.046978428779322998
   121   1      16.509301415243957      1.2173262885449829      1.7884321608129212
   122   1      15.407259041934646      2.5435754549625247    0.043270045685449128
   123   1      16.612218731844102      3.8528639157240114      1.8778588155258149
   124   1      15.373945194208709      4.9925531514506138   0.0044415744005277761
   125   1      16.831558315769414      6.3699816115601209      1.6996862701108841
   126   1      15.276856614351038      7.6804603836406695    0.056955271207164232
   127   1      16.756796511269602      8.8074157561035129      1.8302038873457283
   128   1      15.554196796121415      10.252156496609445     0.19573803911226831
   129   1      16.783827656680035      11.400428813126251      2.0100300661293429
   130   1      15.565818314020392      12.738540582743818      36.021267013736164
   131   1      16.652617433578474      14.056437265959348      1.7181675957938736
   132   1      15.337659545706046      15.192643992970522     0.15517137917571502
   133   1      16.612072756533923      16.699815144384271      1.8156925507607995
   134   1      15.343300747827664      17.904457666563729     0.15884689859470891
   135   1      16.498014858800556      19.228856305979924      1.8632175578513184
   136   1      15.335093160231153      20.407720842498456    0.019215870840241685
   137   1      16.485846527150109       21.66622607980316      1.8456468350118251
   138   1      15.268867034727409      22.893891314013381    0.039766534803481912
   139   1      16.786287248960683      23.997049593374136       1.853164067298964
   140   1      18.032803339297164      25.134297833995596      0.1275957486714219
   141   1      19.075992654115804      1.2747449406593758      1.9073612510377418
   142   1      17.976873419760778      2.4970452176862277     0.13813555569449804
   143   1      18.982120898122723       3.923875481351216      1.9858091149714352
   144   1      17.965629963871816        5.11395644978347      35.985687595500778
   145   1      19.197315201579876      6.5355161671362207      1.7508184450631459
   146   1      17.859725632225565      7.7700532540509011      36.011560925183957
   147   1      19.111638231884903      9.0764397260219223      1.7480207201236575
   148   1      18.115829229553189      10.364930528945218    0.090181331625012684
   149   1      19.245113313406822      11.601793625905401      1.8920953398680909
   150   1      17.989090284534257      12.935009210257704    0.091615629212833519
   151   1      19.308385867705791      14.073878579505317      1.8472967209684512
   152   1      17.860272465121724      15.262749117169893       35.92828965440777
   153   1      19.330357952453969      16.477246643442985      1.7808993113860536
   154   1      17.782369611284338      17.910898750689125    0.021553463988152562
   155   1      18.943646482573573      19.313381341671271      1.7097907239381136
   156   1      17.778646105764849      20.485715727496522      36.052843188845834
   157   1      19.173303553119901       21.85003776077124      1.8695813389659519
   158   1      17.784172520823827      22.847363071565741      36.057223361665919
   159   1      19.179441625502047      24.287965583698391      2.0728367503478227
   160   1      20.437655718246944      25.399253571243005     0.25624654129669583
   161   1      21.607609131948532      1.3108439658683984      1.9811848396109664
   162   1      20.409108161214483      2.5540492326611748     0.16582930192931836
   163   1      21.596491727233822      3.8356653838514627       1.996439220079913
   164   1      20.267067115750294      5.1749509631999659      36.049764954810684
   165   1      21.834934811557179      6.3300939907700098      1.6497701172707921
   166   1      20.380385491772678      7.7014631262273321       36.02334123994617
   167   1      21.663658694647534      8.8546089056488295      1.5779474719623066
   168   1      20.495199423165463      10.283664542921603    0.067777486200293294
   169   1      21.655407175937565      11.660052761280411      1.9695884428020911
   170   1      20.467539966443443      12.745220096102106    0.036716457740021642
   171   1      21.762892440019193      14.008323984615142      1.7417031923302606
   172   1      20.297624710290822      15.269974010617137      36.032057730466242
   173   1      21.742588911870889      16.573806609554936      1.8041511936764556
   174   1      20.475613655021846      17.959859577902751     0.10153264104617386
   175   1      21.713566607413213      19.060374156833426      1.9309519043675885
   176   1      20.390654869913561      20.422244429315551      35.961831617070878
   177   1      21.808478018505159      21.667183772708935      1.8122608783489342
   178   1      20.458620153391227      22.968981350284576     0.15876328320283614
   179   1       21.73506404120846      24.244557972398535      1.8506041848378105
   180   1      22.994779057493353    0.096896240531532549     0.06950957443095819
   181   1      24.185059089733898      1.0960967840565023      1.7978220263130322
   182   1      22.846594326067034      2.5961615150973949     0.27063470594318906
   183   1      24.442996782944832      3.8466280892879388      1.8739924019002054
   184   1      22.979853443146677      5.0675555098987468      35.972255191494519
   185   1      24.298263134301276      6.3728641646413537      1.7185580017392101
   186   1      22.981966822025445       7.436355513853476      36.066055747168228
   187   1       24.06515530652517      9.0120446017971787      1.6336513078735599
   188   1      22.971857657388437      10.373758569216463      36.027012241435976
   189   1      24.112507935376009      11.636108687963679      1.6847016110217066
   190   1      22.938339487545186      12.904084352258245      35.941654272068618
   191   1      24.409898289546419      14.061447672709997        1.78051378015324
   192   1      22.834516338018428      15.383679204791246      35.956833668473713
   193   1      24.504950008173054      16.449933806025307      1.5507248534562112
   194   1      22.935179545004473      17.872266693642722      35.976264960360858
   195   1      24.220834238968425      18.964548589568828       1.688375424036042
   196   1      22.955751171140228      20.514608618811174    0.079207002998305007
   197   1      24.397797641998149      21.697828357591447      1.8837111841017431
   198   1      22.920610849686611      23.044266020089864   0.0043005731003290665
   199   1      24.191010438941387      24.250606122234661      1.8114984430436145
   200   1      25.525244813623527      25.307690320150975      3.6923611406964909
   201   1      1.1905744542063272      1.1477348499505007      5.4023749633163991
   202   1    0.063454431002551728       2.402838213519777      3.4440334631648044
   203   1      1.2163378678476673      3.5899579157796948      5.3182255103468803
   204   1    0.078132607433056445      5.1864760344191243      3.6148920803627171
   205   1      1.4212028260035918      6.5441523791616296      5.4370867649484014
   206   1    0.018006204902054949      7.8569558496324703      3.4055599883721013
   207   1      1.4492703538174119      9.0915180835043383      5.5326007382357272
   208   1    0.061953731447285845      10.303581802431221      3.6004444617626969
   209   1      1.3382730429674474      11.508610286640147      5.3704521876829476
   210   1    0.083975987879059272      12.684877315382131      3.6469560417589872
   211   1      1.1070695206336081      14.040214287675489      5.3968322186707303
   212   1   0.0047248603200954666      15.426154788216383      3.6489280598886191
   213   1       1.101712865189328      16.576777527712988      5.3736534055453351
   214   1      25.368558478384148      17.934896638138817      3.6322257914090703
   215   1      1.1221678441229754       19.07959007417384      5.4537595685797546
   216   1      25.466658077283391      20.273398664029948      3.7009540488501758
   217   1      1.4196819867116344      21.542767759384638      5.3404723820730151
   218   1     0.11072917055668414       22.73602312502544       3.733513139559089
   219   1      1.2927189502077741      24.210196226601774       5.526811418726516
   220   1      2.5685961720558077      25.400251080758032      3.6675642428952004
   221   1      3.7077999054619712      1.0687684265822006      5.5619993298797148
   222   1      2.4950471096829037      2.3816092629053367      3.6869487116341961
   223   1      3.7345808687645365      3.7177336987619172      5.3892693868446573
   224   1       2.613489048645611      4.9830759001872531      3.4321985607297387
   225   1       3.784015380892221      6.4867908232695788      5.2568275922119581
   226   1      2.5364456950930263      7.7022356053814498      3.6064834288835659
   227   1      4.0512445771099665      8.9105149574773197      5.5382401564688273
   228   1      2.6731229362121813      10.302396613282157      3.6753741311797898
   229   1      3.8532260212707476      11.393114191964086      5.6366038812060282
   230   1      2.5986440840067733      12.795469132696526      3.4471362619271972
   231   1      3.8162917350088175      14.172882030246198      5.4500174358764548
   232   1       2.487125309780549      15.360269411045262      3.5910725757028907
   233   1      3.5726783056944389      16.615546023999748       5.328920070088369
   234   1      2.3884988308018578      17.853340370468715        3.62261974983788
   235   1      3.7711404686528849      19.009155575011377      5.4599696631541441
   236   1      2.7751528653224904      20.374576157765105      3.4814859357220245
   237   1      4.0511516824699783      21.638431578555945      5.1694431466535757
   238   1       2.509313063111593      23.052664649332936      3.5925895768594143
   239   1      4.0552725773438736      24.151602491466125      5.2068633417935377
   240   1       5.166049472365005      0.1237099644256426      3.5695558141793513
   241   1      6.1992937644256454       1.216486152112165      5.3227624464363021
   242   1       4.925277029946356      2.6990291363532046      3.5840846840730589
   243   1      6.3900785270125642       3.859899915142222      5.3096243788306605
   244   1      5.1391975875679998      5.3463762522011899      3.6908951658004141
   245   1      6.3477311989619825      6.6179582057358903      5.5079995109947948
   246   1      5.0451799013304068      7.8330824321754609      3.6917129670606577
   247   1      6.4621734764318468      9.0417920613272127      5.4054202143624082
   248   1      5.2172035420902292      10.402709774620753      3.6580714417304856
   249   1      6.4685409665805471      11.698518779638253      5.6207319574425769
   250   1      5.0969160130709623      12.759117450923206      3.6838690996286867
   251   1      6.3235781409637228      14.143216416111089      5.5230207920426651
   252   1      5.0938536579525424      15.219033084501488      3.6917061778001896
   253   1      6.4683212936038057      16.621708847507328      5.3982951372884616
   254   1      4.9200637302280805      17.916192852643078      3.4025366252846903
   255   1      6.2701684502919495      19.098457223403152      5.5641080118722668
   256   1      5.3069924350144602      20.486946743959223      3.6804541490024079
   257   1      6.6254648330374746      21.654918518193536      5.3644132909842366
   258   1      5.2973583306940766      22.951210460928721      3.4289854020362323
   259   1       6.527344950556456      24.280573692733672      5.4588556581198473
   260   1       7.642466096239068    0.097561950505744136      3.5779550608214534
   261   1      8.8038083006643166      1.2937499996793045      5.4909091220500397
   262   1      7.3696300606931295      2.6599469094192454      3.5221719272354117
   263   1      8.7955457412063964      3.7595365059735877      5.5975805743018725
   264   1      7.7252964731254741      5.2684478479597914      3.6728557944789451
   265   1      7.7061513947160094        7.70169406087218      3.8388795490497691
   266   1      9.1346205112193068      8.8417705623406295      5.5093536912051739
   267   1      7.6684194213420147      10.341955845733741      3.6853096698494161
   268   1      8.9579491720066393      11.471048908725725      5.4775805527411379
   269   1        7.70259332000487      12.904190213438376      3.7759200755980387
   270   1       9.038281643138852      13.982482368452793      5.6136591166803731
   271   1      7.5092044493989718      15.278857775130991      3.5283626966039709
   272   1      8.9130481485706934      16.650244115815052      5.5265912708971046
   273   1      7.7974560137671993      17.804440506880805      3.5440118580613316
   274   1      8.9166673390843929      19.090052710322418      5.4296047536215388
   275   1      7.8895991972314317      20.398368856869567      3.5103625263118619
   276   1      9.1481543446222204      21.788761857053625      5.2416368059935845
   277   1      7.8715924087043589      23.097490316516275      3.7151984239031792
   278   1       8.958526478179353      24.335790393762856      5.3607106580350434
   279   1       10.12400570459117   0.0012220651613125797      3.5255786495742529
   280   1      11.295266557318119        1.20521346589661      5.4815615202395396
   281   1      9.9806060667211103      2.7277212508659323      3.7970012181732717
   282   1      11.588818620810146      3.8001530125023235      5.4417886826298529
   283   1       10.09120168407469      5.1278283395671327       3.768307650759982
   284   1      11.437878988125103      6.4159910889855851      5.4247112351068427
   285   1      10.069938328029483      7.7568622329049939      3.4402092961721804
   286   1      11.587206735888378      8.8866404948268958      5.5091038437569235
   287   1      10.464374384631727      10.217677382719394      3.7776819413186762
   288   1       11.58424276091165       11.66590729720606      5.4909552617945421
   289   1      10.297468315613855      12.622514022343363      3.6662104695565496
   290   1      11.547075318443225       14.12099985115629      5.3093110986320911
   291   1      10.290044486132853      15.180425645626984      3.5223248118232058
   292   1      11.508907005651258      16.604921918370486      5.6295598920089027
   293   1      10.198993622616966      17.782107471228468      3.6454063190400783
   294   1      11.548487157135428      19.128146560438672      5.4670912140595833
   295   1      10.340079808119876      20.318396740053576      3.5667763550392801
   296   1      11.597686135693538      21.653529583433489      5.4204688048658793
   297   1      10.298671829695689      23.138613223826642      3.6709600320485047
   298   1      11.736589576791932      24.305244792621757      5.5041711802009443
   299   1      12.643754157760949      25.427088975540887      3.6959568017762008
   300   1      14.022893669560556      1.1656436606441682        5.60366933981184
   301   1       12.82391753911234      2.3073575705071034      3.6637829261617147
   302   1      14.086045060112713      3.7196695229032981       5.541637762131427
   303   1      12.973555399470833      5.0449175312375152      3.7687809130038188
   304   1      14.303430695825162      6.4566612663855185      5.4097735561412712
   305   1      12.874009035377631      7.6739928489385996      3.5897660468038906
   306   1      14.245589395555829       8.874995590785641      5.4720063266263672
   307   1      12.933099423816808       10.15508198893785      3.6336481221047645
   308   1       14.16497915396501       11.50391475697627      5.4727546671935983
   309   1      12.749500741856789      12.687539977082523      3.4750929647868807
   310   1      13.890803689627749       14.03638383001751       5.393109302094647
   311   1       12.75448392326639      15.355470549210079      3.6895658105784399
   312   1      13.999943627193813      16.564391797453247       5.537539702890574
   313   1      12.600608154270239      17.703484078961946      3.6871962135922365
   314   1      14.222072150552666         19.155942995952      5.4182569041739521
   315   1      12.750580233773196      20.432014779745685      3.5990028164291954
   316   1      13.987258287116125      21.733301740233561      5.2895628133686046
   317   1      12.747185304890648      22.900281670828964      3.6534600712981322
   318   1      14.107598672307171      24.186136193737138       5.444541151604712
   319   1        15.2881822233346       25.36652961882881      3.6066374223690563
   320   1      16.711359750644128      1.2887418198706739      5.4817240120577795
   321   1      15.532464611466894      2.3965737017498938      3.5735732233271502
   322   1      16.526046469500645      3.9140285621424256      5.5939542296629865
   323   1      15.472042467441677      4.9550286327108308      3.6787348775562507
   324   1      16.715682456125794      6.4239557426880411      5.5372162085233496
   325   1      15.600373491797402      7.3322147333617762      3.6034704267928896
   326   1      16.693244685856087      8.7422055040080497      5.4462406426475853
   327   1      15.400984181470303      10.043433441930006      3.6439856945766609
   328   1      16.587745313431029      11.310338150395346      5.2470925878368444
   329   1      15.432142393595909      12.762777866192385      3.5471511520397589
   330   1      16.603525610658252       13.86713131798111        5.52134296539605
   331   1      15.536852485803355      15.277726455445068      3.7636718873362627
   332   1       16.66274835195572      16.655186191019855      5.5832861407299132
   333   1      15.372542418882796      17.717429501329999      3.7657083485786789
   334   1      16.601668450743436      19.090758656834435      5.4679834934165363
   335   1      15.216836985422665       20.26482057172182      3.5303622701147463
   336   1      16.577759174972943      21.687166094992431      5.3412447278767825
   337   1      15.444336121819026      22.948685280170963      3.6698680831052481
   338   1      16.606280708239503      24.225272096705012      5.4427077135563273
   339   1      17.881791738882445    0.051148513061086941      3.8174216619692682
   340   1      19.108834002270566      1.2684971783548111      5.5858929543487186
   341   1      17.884979354675735      2.6113271917870171      3.7413812817968011
   342   1      19.023083104571771       3.785584012195728      5.3557593922711177
   343   1      17.927285375709708      5.2827739175851756      3.8134089389754364
   344   1      19.250151207172237      6.2902706396861179      5.5644078703509701
   345   1      18.009617770781343      7.6650645529241439      3.7725687761420237
   346   1       19.31674122323324      8.9352491975973383      5.5401364826500421
   347   1       18.17839249600862      10.214217079576242      3.6089469057710963
   348   1      19.410619175772617      11.562895330552562      5.3293167372613164
   349   1      17.934940106227103      12.839958236719598      3.6195892804363505
   350   1      19.027300967556652      14.213331880124519      5.5699510240681933
   351   1      18.023546064649956      15.386839561794426      3.6088057112049698
   352   1      19.072424661987359       16.77807119970846      5.2514714569747705
   353   1      18.010751706952128      17.842188715025891      3.3413505560315335
   354   1       19.10828845957197       19.15279008135251      5.4233309510638978
   355   1      17.938057799141742      20.585921391392844      3.4629557530923432
   356   1      19.191763629513947      21.577339336980174      5.6233571686104469
   357   1      18.102003950794213      23.135188966873855      3.8262715102966109
   358   1      19.055261876356273      24.253975402824953      5.6998851722929036
   359   1      20.456255105330143    0.095817848448046236      3.7322473186145673