dump/Cu_560_20/steps_31 (written by ASE) 

1980 	 atoms 
1  atom types
0.0      25.526554800834361  xlo xhi
0.0              25.5265548  ylo yhi
0.0      36.100000000000001  zlo zhi


Atoms 

     1   1       25.48295210085427    0.032257503601334017     0.17429955097994723
     2   1      1.4008575216959513      1.3495894199237579      1.8481180900783998
     3   1      25.426278187826036      2.4413960605891685      36.024628346743711
     4   1       1.082706062702629      3.8536225515815135      1.4465165489188958
     5   1      25.365703741492176      5.1056492979492285      36.094686119033511
     6   1      1.3252475666068104      6.3921541299121305      1.7158773516497143
     7   1    0.086678737219819779      7.7097664353718978      35.941314978027947
     8   1      1.2047826635743628      8.9054358619637881       1.622991213183717
     9   1   0.0090449473609797403      10.269040940304308      36.038125152452473
    10   1      1.4171790278558491      11.249197286589574      1.8292419834439351
    11   1     0.23775349286999886      12.501825492262629     0.15265606617083438
    12   1      1.2626425949380442      13.863733233416069      1.7669919529868825
    13   1    0.045101649805174539      15.343896495328387    0.045989588098382141
    14   1      1.4270134846457472      16.593296350626407      1.8813462849785205
    15   1     0.15829356030388642      17.942266302105523    0.069062405427041618
    16   1      1.3299296926990107      19.193688650505109      1.7567450807647551
    17   1     0.15663500611606346        20.5676567431276    0.070988048557217104
    18   1       1.191954933544177      21.886210977091132      1.8849146585020886
    19   1   0.0092631892667368199      22.975473927000461     0.11825846164964576
    20   1      1.3326911331963978      24.382559209346567      1.8316702808020522
    21   1      2.5338017809948497    0.047501248883964196      35.978017621413464
    22   1      3.8471246390198579      1.4948567086558009      1.6660887635495547
    23   1      2.4984244477600508      2.5023747189673244      35.952645151089804
    24   1      3.6876783531681072      3.8868566074540332      1.6140687774546099
    25   1      2.5195566969668919      5.3673391645753368      36.083751389090104
    26   1      3.6937917712538599      6.4089557901530148      1.6843097522391079
    27   1      2.5460970980856175      7.8088808616564762      35.961249856525676
    28   1      3.9094855664101762      8.9901475638164232       1.750182493142644
    29   1      2.5726547041902195      10.142887982830969      35.972117058737041
    30   1      3.8754016030214427      11.462287737291335      1.8687686738613836
    31   1      2.7275407589218741      12.769546263632895    0.011561211328523767
    32   1      3.8255156597447857      13.990526346983332      1.7327564346106004
    33   1      2.5286203425694853      15.385905811847344      36.068868210363739
    34   1      3.8986736381532041      16.640014283902726      1.8929295362649103
    35   1      2.6641762213838787      17.962670272367859      0.1173516422808917
    36   1       3.920900056962791      19.033420723165452      1.9635438368026608
    37   1      2.6243314275954606      20.530026322875241     0.18976044868871919
    38   1      3.7991833038896008      21.740193144687925      1.9727789894474301
    39   1      2.4842730975849885      23.063013560394758        36.0438512725866
    40   1       3.744172065858117      24.488669594456855      1.8238940890609117
    41   1      5.0343129026415845     0.21549726147114887      35.983780123853812
    42   1      6.2394628631450599      1.3677581052901377      1.6605578096236158
    43   1      5.1882755069512143      2.6776724336044779      35.992637707638643
    44   1      6.2980901167903474      3.9394784987879374      1.8984125902410927
    45   1      5.0705193188271442      5.2142169457705565      36.020816735985058
    46   1      6.1569354312872928      6.4819621578426707       1.884205294412733
    47   1      5.0491958546524298       7.792676011106404    0.035195917540431783
    48   1      6.2867517453405481       9.058487355587987      1.7309789589611446
    49   1      5.2179199995462877      10.308108538860385      35.978350919753247
    50   1      6.5110604874643663      11.361262996019516      1.8151443528465516
    51   1      5.2145684999257229      12.742004300970736      36.035366293853393
    52   1      5.1002114222646187      15.305077372467203      36.057155619730914
    53   1       6.406743820805338      16.438848047812805      1.9681336564934446
    54   1      5.1024896689456645      18.005142711573388    0.064973819007548339
    55   1      6.2535312386250768      19.187099806081108      1.8537313912842575
    56   1      5.2220104728404957      20.409025131093873      35.981486941083354
    57   1      6.3853284681226281      21.617614980916684      1.7846356713885585
    58   1      4.9483469079908105      23.118301590680186    0.052798742072138839
    59   1      6.3895113353110027      24.260392188388124       1.754893364473344
    60   1      7.6917473693398062    0.098383204057981788      36.075475748630453
    61   1       8.904488350416063      1.3674513754732343      1.9470192472089034
    62   1      7.6031679603107136      2.5989096565889223      36.084217796522879
    63   1      8.9678527861362376      4.0543499385693007      1.7750600776660679
    64   1      7.5951634680753504      5.1708847742771926     0.08720462977713643
    65   1      9.0246146896787298      6.5744408814974022      1.7813713034412573
    66   1      7.3120641805314639      7.6232003225555749      35.962629480351097
    67   1      9.0287199834915484      9.0711391293900228      1.9454885137223075
    68   1      7.6900826748587221      10.276847802763319      36.009506621766768
    69   1      8.9300981351161539      11.532122059850082      1.7878080046437743
    70   1      7.6369968363572198      12.942627656672904      35.995646082364438
    71   1      8.7825006191483048      13.941208816904687       1.881914088334407
    72   1      7.7499933448750458      15.334957837989998     0.21919104457318786
    73   1      8.9566716650169838      16.664120197310094      1.8647824776353346
    74   1      7.5948314230500813      18.022470146523737     0.13926368125288488
    75   1      8.9016729952273632      19.340535497722232      1.9458578457316213
    76   1      7.6945976350168506      20.449581618510049    0.017986325587821733
    77   1      9.1056930450181124      21.938544681884089      1.8044837913118155
    78   1      7.7527932509473221      22.978384272071011    0.086785888943495704
    79   1      9.0526785298991399      24.386179495400938      1.8586538972834774
    80   1       10.23333500986775    0.082620845073907948    0.029043200202409036
    81   1      11.452906691507788      1.2973314564933729      2.0180765311278837
    82   1      10.081268417389705      2.7988194706675018     0.17226242126664609
    83   1      11.424352613397556      4.0054610874983609      2.0797053973337585
    84   1      10.169366924677696      5.2136368115229059      36.006744951591855
    85   1      11.389782747179261      6.4205258526448823      1.9785952115568859
    86   1      10.176143519773364      7.9464788360280867      36.098997192799089
    87   1      11.743800781914281      9.2183024287753597      1.9481476529702602
    88   1      10.289167480968951      10.302589749300335     0.01857159807675543
    89   1      11.465676393937047      11.518247717462319      1.7502519865288484
    90   1      10.047885220560602      12.722198672530578      36.067384548275818
    91   1      11.226669606591475      14.060853440782173      1.8352021454470568
    92   1      10.105324626147173        15.4916317025473    0.022025036391448812
    93   1      11.339776028999232      16.784646949926074      1.7824194266804974
    94   1      10.131511201166161      18.021272270190099     0.16632441847817736
    95   1      11.439910684053178      19.429422880074988      1.8022961300770799
    96   1      10.159895246998225      20.500062895301539    0.029042424692647728
    97   1      11.660500200410779      22.040221930425407      1.6115265188590928
    98   1      10.314764803493594      22.927782422987441      35.942274090301858
    99   1      11.651007770967411      24.543514664088715      1.6401209362454094
   100   1      13.089466423809295     0.11086335269932399      35.932167892199438
   101   1      13.830812739468767      1.2885306915624244      1.7380832252905987
   102   1      12.651297302997161      2.5207149421257808    0.056215826396805835
   103   1      14.129252675999018      3.8067003739304179       1.785279459864751
   104   1      12.650935066656917      5.2144521642779758    0.025709118359986873
   105   1      14.079308594905118      6.2996108893530947      1.8298578343328247
   106   1      13.050341011864628      7.7664610791050466     0.20985032347467714
   107   1      14.201225195975793      9.0662948915683099      1.9740631820975418
   108   1      12.986938901806042      10.261146799397135      36.084196790226443
   109   1      13.852943668764977      11.557120087483325      1.9115030689750356
   110   1      12.656263063112029      12.722536789860275     0.15733682492865453
   111   1      14.072681343146931      14.142083390906039      1.7343272362068678
   112   1      12.592669816359212      15.544356086755446    0.091738548248736285
   113   1      13.967194653448926      16.667420942852416      1.7034625287772995
   114   1      12.808934148179002      17.954244867305651      36.001705285816612
   115   1      14.141366432005542      19.067062187137058      1.9102855112419104
   116   1      12.833501030149593      20.476584466358386    0.022652596505065493
   117   1      14.264958125821199      21.776562552974411      1.7566218526823041
   118   1       13.03585419560234      23.160881113927541      35.978300357148846
   119   1      14.019796504686274      24.232428056817611      1.7206208049132907
   120   1      15.521478011781989   0.0075442435568870711   0.0032944564373565302
   121   1      16.596018256155126      1.4389072563854335      1.6396827497835817
   122   1      15.160018976673182      2.4834661469099348    0.090809713870908276
   123   1      16.670194683387866      3.8295583012383294       1.888360386975025
   124   1      15.210376616920165      5.1673645744524794  0.00097472110900298557
   125   1      16.655504485568851      6.2606291704970385      1.7804468022324291
   126   1      15.324459712120598       7.697449573130756     0.13144843742410336
   127   1      16.567125541689443       8.938455669293818      1.8984072498902826
   128   1      15.322985636953469      10.244599082331172       36.04241312372028
   129   1       16.57810717165394      11.645843979054392      1.6077388144467351
   130   1      15.214388338595898      12.854003785710713      36.004151963228047
   131   1      16.719810269629903      14.151834184713712      1.6512305380994559
   132   1       15.14781396401551      15.549470458227766    0.026016380100475078
   133   1        16.5101365203085      16.724708514859088      1.7932722064028435
   134   1      15.397566928281641      18.033444986684749    0.040453828954559727
   135   1      16.647119855760241      19.331220598627816      1.7111640641973414
   136   1      15.268534029085606      20.489417854241612      36.094708413636098
   137   1      16.518665647471082      21.850727035656277      1.6985770193913823
   138   1      15.374056168106945      23.107437888425814      36.039582112802762
   139   1       16.60388926855661       24.16543521374852      1.7855107560655701
   140   1      17.890873254248376     0.03294341414466137      35.986827704312248
   141   1      19.157552953911349      1.3750433333938203       1.807796992049111
   142   1      17.962918197881688      2.4692842447469574   0.0052980659519335088
   143   1      19.263273263665194      3.8096065723958525      1.6466557888090954
   144   1      17.830719063529738      5.0697133434061383      36.070726803862257
   145   1      19.213843012613314       6.265057438118685      1.7272373657041835
   146   1      17.791477939339746      7.6823416320133484     0.14724998922953317
   147   1      19.271765426613996      8.9297716447405424      1.8097105588104438
   148   1      17.992680197092817      10.320049937502482   0.0072577186366856892
   149   1      18.964349350971087      11.595016419252877      1.9170048826661388
   150   1      17.785848876426307      12.902188698592767    0.028934562591632601
   151   1       19.23869180716396      14.226540557328056      1.7906210504853224
   152   1      17.740801165312273      15.312036446295942      36.036123658666504
   153   1      18.947262065813462       16.72511928133909      1.8122424413759299
   154   1      17.926720648954589      17.928609977795471      36.035450010712857
   155   1      19.201952922682676      19.199417154624687      1.8570501452025154
   156   1      17.799207064403451      20.599418065681007      35.886784133204863
   157   1      19.079744361980808      21.716884347295668      1.6505096462356152
   158   1      17.956993790033984      23.065718349336684      35.874504717482559
   159   1      19.101952354684059      23.981464373155756      1.9990104017544015
   160   1      20.435299419526071      25.472171985107362     0.22136584755976399
   161   1      21.677966321532587       1.160661999534514      1.6498567226311924
   162   1      20.414111818314662      2.4124308280067197      35.912301573769554
   163   1      21.827490457431203      3.6627380690454796      1.6617720318603684
   164   1      20.421270336207069      4.9174681042563648    0.073292764416964834
   165   1      21.838451654797428      6.1462625276334615      1.7468901037942157
   166   1      20.499314673352472      7.6515358982581096    0.015115079203849293
   167   1      21.673407883840078       8.882952455485885      1.6888243181387683
   168   1      20.531591757698976      10.263541781858983      35.958105276171437
   169   1      21.685405402202655      11.395704371645154      1.8648582360249191
   170   1      20.445447661254413      12.696172142358874     0.16667109991008161
   171   1      21.665045059535252      13.892812139315879       1.826718603577977
   172   1      20.213477316128213      15.184335095136653      35.813957240545996
   173   1      21.527071183826106      16.325368702830058      1.7360499525810031
   174   1       20.42081201931374      17.969339069654783      36.098382226110743
   175   1      21.666634152218368       18.73924066157922      1.9772104835507884
   176   1      20.422155659611231       20.36097062352426      0.1167946859409655
   177   1      21.712201388156227      21.505327211030462      1.9321128447949587
   178   1      20.624168936510198      22.977450192101795     0.17634080111828315
   179   1      21.834749473444667      24.249980666097276      1.9992783617962002
   180   1      22.959011423146581    0.097588278851652069      36.075241411668827
   181   1      24.463182850076759      1.4174949577974782      1.9756003615534714
   182   1      22.875934774276526      2.5869958820215682      36.044446360133257
   183   1      24.207437644478574      3.8277517547082534      1.8550646075688759
   184   1      22.853883047473214      5.1316856443500996       35.81208699513644
   185   1      24.341222699460626      6.3679441742291205      1.7235492689007648
   186   1      23.070308557714263      7.6706243243686112      35.972931755226966
   187   1      24.322159192813398       8.920314469020914      1.7102875499820116
   188   1      23.068224975427494      10.293364483308709      36.082553359530827
   189   1      24.387512123319798      11.355084464963618      2.0680374611242773
   190   1      23.015271472102192      12.707400673087339    0.016312860416144312
   191   1      24.285701465768266      13.872891787535977      1.7377202365743767
   192   1      22.952425862399146      15.288906229593932      36.088394393795191
   193   1      24.305359730693844      16.641913844862941      1.6622946984386444
   194   1      22.988114272220816      17.866907466770769    0.091577428425273472
   195   1      24.170736525061955      19.263301755514753      1.7325877145082937
   196   1      22.972223914907893      20.393341962393812      36.075338624848278
   197   1      24.235167656528066      21.630945234481018      1.9501506381535121
   198   1      23.108760964283491      22.919815543997125     0.22500768795156326
   199   1      24.295517152645026      24.166107398603025      1.9025548672706458
   200   1      25.524836626196464    0.036122428755185412      3.6865246039660398
   201   1      1.3763779009151267      1.2901830814484105      5.3557368934754512
   202   1      25.348970355761434      2.5556028230268346      3.8452845741178012
   203   1      1.3153538071612423      3.8924758073457255      5.3358557758129406
   204   1      25.509356766105675      5.2323644181528923      3.5215610890715427
   205   1      1.0163368836906477      6.3887126184676815      5.3796811288171282
   206   1      25.468141052377216       7.752854717253614      3.5669603449271432
   207   1      1.3440303578410944        8.92456189647271      5.3909458592918265
   208   1     0.16632300880962633      10.133565205621572      3.5810312139779179
   209   1      1.4203943002556951      11.447517367515047      5.6140520779090162
   210   1    0.084622537396126185      12.722414544261577      3.6960059899644095
   211   1      1.1812426931895816      13.869191204579748      5.6042512367197155
   212   1     0.11021898530596973      15.253372100894437      3.5943663354701476
   213   1      1.1682393768219208      16.707747345237543      5.3330401906160629
   214   1      25.397193091402166      17.962608201253694      3.3208795412423906
   215   1      1.2261635386185916      19.173883154951987      5.5921345258735702
   216   1    0.096388195698956861      20.369258865828527      3.7154759682828078
   217   1      1.3201762425032253      21.723529599884433      5.5116532330653669
   218   1     0.14436712746858615      22.835927728842126      3.8258383967340546
   219   1      1.1943263771468424      24.397999021892531      5.3981263700383089
   220   1      2.5006962918098514    0.079920992310708303      3.6813483201172281
   221   1      3.9374278620035374      1.0314823972547837      5.3365097721497907
   222   1      2.4077798940803326      2.5216941393913843      3.7023620287738788
   223   1      3.8416215739325894      3.6933343682903201      5.2684911182678444
   224   1      2.5131823795962291      4.9144635833503809      3.4316523903409446
   225   1       3.597678578387896       6.293156089603114      5.1487739756425785
   226   1      2.4555604944637963      7.7933428555347781      3.5030931320424674
   227   1      3.8106663124262505       8.820448865005714      5.3566703399570654
   228   1      2.6898639859734308      10.269757493359124      3.6187552425643017
   229   1       4.013467244137205      11.241314598513265      5.5912041991237418
   230   1      2.6780752235765561      12.702273813048476      3.6800171539141706
   231   1      3.8629808109841597      13.870541923914393       5.541110340692522
   232   1      2.5545886237508184      15.075576547537272      3.5313949854984674
   233   1      3.7686656102464138      16.392572833093705      5.3527188737060882
   234   1      2.3588077771517311      17.809362693302269      3.6679229453809503
   235   1      3.6678532917663418      19.115573782841391      5.3922702519120698
   236   1      2.5844131655027258      20.299186867433754      3.5844695644374709
   237   1      3.9346460337733049      21.681791503093347      5.5981905040325293
   238   1      2.5841765109415467      23.083573136460522      3.5344601469450021
   239   1      3.6732636126695111      24.175984624291061      5.2647768919648366
   240   1      5.0808543219992401    0.070281829311315519      3.4469024585840891
   241   1      6.4585119284960628       1.339298642578576      5.4210960980614615
   242   1      5.0677045433457089      2.5265636528928535      3.4860843163371316
   243   1      6.4330214763539626      3.7734668624706207      5.1973617701822699
   244   1      5.0678918642202229      5.1140504540187823      3.6067200642203834
   245   1      6.2889306989379827      6.4067843242687745      5.2439297568211547
   246   1      5.0636991545972991        7.82945366457768      3.5861022301456726
   247   1      6.3627980312082828       8.829508818179848      5.2885466475585368
   248   1       5.300928815050975      10.228277311227789      3.4845147586263479
   249   1      6.5520456876344682      11.254454447786891      5.5294688724227159
   250   1      5.1127347075389036      12.638826279951868      3.8279022299620742
   251   1      6.1856246178670107      13.970312712413428      5.5568382652663333
   252   1      5.0743360848489107      15.127217800644463      3.6137044514908472
   253   1      6.3400798246344836      16.401741276426041      5.4018349254097542
   254   1      5.0745595725658239       17.89641270166107      3.7425534048483735
   255   1       6.138286657157745      19.156396026100996      5.3880962505125831
   256   1        5.07733178070949      20.566674926373572      3.7515774688375361
   257   1      6.4416828062178118      21.863452815280166      5.4007457362569147
   258   1      5.3961878799661429      23.142948121646779      3.5262422386623151
   259   1      6.2709342176757294       24.34568861743784      5.4277187723202571
   260   1      7.6163396332644702      25.485461231642596      3.5960113327931591
   261   1      8.9866597002813879      1.2256422478152011      5.3903574925451991
   262   1      7.6562716945893685      2.4623148044925376      3.6414953632011904
   263   1      8.8828669062173233      3.7231684787183079      5.3155173835352878
   264   1      7.5785113529033179      5.1416023459646434      3.6147519432453321
   265   1      7.6251447536659285      7.6458427280567465      3.6077480266231414
   266   1        8.79475787535854      9.0050636111948741      5.5466762527853115
   267   1      7.7846706734877644      10.334662728568629      3.6345325242098117
   268   1       9.295898282383865      11.332516329122658      5.4498123506866323
   269   1      7.4781130997286303      12.775258510593867      3.6373356099179661
   270   1       8.724351679689649      14.070119567033988      5.4480995835330992
   271   1      7.5392270239961769      15.196131078714833      3.6647652097590382
   272   1      8.8139622324354665      16.591351880259882      5.3546892684774177
   273   1      7.6252348917544754      17.974646070737538      3.5540877459068838
   274   1      8.8726868431135149      19.162644953435546      5.5283019624047132
   275   1      7.7724895390037894      20.564911315783032      3.7676113854597943
   276   1       9.111312147175294      21.710320226802327      5.4641606379448469
   277   1      7.7686701594456817      23.113435224114593      3.5184433931918209
   278   1      9.2621555670035267      24.012631037844095      5.3347433962751838
   279   1      10.229876165657883    0.038918401098022831      3.6900512462406372
   280   1      11.469294687551248      1.1448959450606184      5.4376487404690987
   281   1      10.193780586870506      2.5191494523498643      3.6547815104599053
   282   1      11.511615816291945       3.970260362559014      5.3737951161973188
   283   1      10.070456718477518      5.1653024923466697      3.8039010782902833
   284   1      11.499694865274432      6.5277854318099342       5.349427518019108
   285   1      10.137535706834216      7.7913551444746094      3.7788463735099334
   286   1      11.362175655663027      9.1243936296972112      5.4197672571934081
   287   1       10.36067885400692      10.238956290583291      3.5634925473736856
   288   1      11.554407234287552      11.558571858516354       5.472563693585073
   289   1      10.043377875723813      12.911219953835333      3.6981999440241737
   290   1      11.395964766659288      14.278655563687693       5.476259417413714
   291   1      10.152835436248596      15.362417682199139      3.6223506354701449
   292   1      11.375223477427555      16.701722420556695      5.5207817161524062
   293   1      10.224902548871189      18.006017390397741      3.6590974029437588
   294   1      11.461083125672383      19.229986107644159      5.2678191889818873
   295   1      10.292837948907673      20.586712543488652      3.6607600063206229
   296   1      11.561295843257016      21.832230458587929      5.4271088698530789
   297   1      10.486494797081148      23.094381001412017       3.392881332987109
   298   1      11.627109708929231      24.252294908220779      5.3654913361857739
   299   1      12.858451837325692      25.366691072957728      3.7677944440382345
   300   1      13.986927222110406      1.2869324504486668      5.3941106725237873
   301   1      12.876090299450558      2.5477776332901954      3.7655380178284661
   302   1      13.980588394021213      3.8075110307632145      5.5880051829974295
   303   1      12.891617774880398      5.0946156874496005      3.5322036281263305
   304   1       13.92658600139676      6.3305237522680793      5.4950317233307109
   305   1      12.905507086496121      7.7394246409497578      3.6428230253526941
   306   1      13.953859642421394       8.854735540009866      5.5248140227048159
   307   1      13.008435210912493      10.374492998871835      3.7527398790767106
   308   1       14.08414049440743      11.655591032979846      5.3969899460206809
   309   1      12.722515588447465       13.11197131223337      3.6975998304470026
   310   1      14.145296081553404      14.042618297448776      5.3828886559537708
   311   1      12.531194357297677      15.633913879897518      3.5770734369588002
   312   1      13.871912754665455      16.625564021971506      5.3187567929140975
   313   1       12.89985090095028      17.983378752795016      3.7314528026997493
   314   1      14.116665802305665      19.133161796654448      5.5300734762777379
   315   1      12.807866084809239      20.548209929539144      3.5837389646738185
   316   1      14.280260795201361      21.692969815389354      5.3686287683128739
   317   1      12.831127256774286      23.012560681090214      3.5459823267843378
   318   1      14.121671532171545      24.252944441826095      5.4470483728694994
   319   1      15.365267311004754       25.48022284407881      3.5256818135988852
   320   1      16.507879475903003      1.3726142721083308      5.4673743752336632
   321   1      15.274867221191061       2.369696988944562        3.52257478893622
   322   1      16.588996560623709      3.8453322554647325      5.2030377140796755
   323   1      15.371873466359391      5.2130319475085551      3.6834425272915103
   324   1      16.713121777571939      6.5164627301359523      5.3934835264681924
   325   1      15.371317204150522      7.5598273496591606      3.6711703290201285
   326   1      16.612897086836391      8.9574351376385888      5.3509397803127676
   327   1      15.381574362360272      10.353680799612251      3.6162765878393515
   328   1      16.693845051559247      11.581116111943734      5.2498840421298008
   329   1      15.473240089174192       12.95288923315257      3.4397123091779918
   330   1      16.634420435791874       13.95489956538321      5.3434632282076837
   331   1      15.268715854887514      15.417837468301729      3.5439388716841114
   332   1       16.53792744293456      16.504155632018353      5.4504477023094093
   333   1      15.441828141705626      17.842281307300134      3.6852591451873677
   334   1      16.631166009396789      19.108128027596564      5.5990929720388332
   335   1       15.38889147842392       20.34781500244258      3.4643667381738177
   336   1      16.527853147179453      22.041520794038107      5.5482091153614128
   337   1      15.274367968776176      23.124621371755374      3.6300678536092548
   338   1      16.695347061605993      24.463611217070817      5.4552481097961865
   339   1      17.762225850800544    0.074451087617561126      3.4521306079314527
   340   1      18.889868036161172      1.2869277205551937      5.3645766089732154
   341   1      17.957182277061555      2.4022117461862975      3.5291858201364921
   342   1      19.187343643674144      3.6625785837197942      5.4016775937356227
   343   1      18.090474753109692      5.1492116971695561      3.5522107537019463
   344   1      19.274237219303796      6.3171787331583413      5.4107787951312458
   345   1      17.773778404548164      7.7671474672388872      3.5262117431486555
   346   1      19.257037813079965      8.8673324063988339      5.2130624276547319
   347   1      17.868663885450289      10.411421835569662      3.4929887490026665
   348   1      19.184483302964583      11.496077180705692      5.3966469265699839
   349   1      18.033257713226892      12.926782721936299      3.5604185830336066
   350   1      19.343822470219983      13.904653790143172      5.2939399000078788
   351   1      17.894445120864056      15.387582407500163      3.7322122509956164
   352   1      19.001695548095036      16.679687274602561      5.5053222128303743
   353   1      17.858035309876851      18.029499974942283      3.5600884470589578
   354   1      19.188478956772656      19.139572838423319      5.5029894119437186
   355   1      17.779074874863273      20.879186010506114      3.6270305006351773
   356   1      19.124036611086666      21.860230470129029       5.431860577744172
   357   1      17.820094159643656      23.086732269232268      3.7981845135313961
   358   1       19.18196352007573      24.248623290540092      5.5161348133369943
   359   1      20.401261329120306      25.374595301097571       3.697423998178158