dump/Cu_560_20/steps_41 (written by ASE) 

1980 	 atoms 
1  atom types
0.0      25.526554800834361  xlo xhi
0.0              25.5265548  ylo yhi
0.0      36.100000000000001  zlo zhi


Atoms 

     1   1      25.431188894577332     0.10657443502552234      35.978128554936973
     2   1      1.4741339271844467       1.247021259135221      1.8550821692574679
     3   1      25.494367879201587      2.6539362822496835      36.054539756400359
     4   1      1.3054149299230453      3.8731341101160561       1.893496126479091
     5   1    0.063771392735899796      5.3050567571971508     0.15164450299232607
     6   1      1.2953010643461591       6.406130369157462      1.8583579192141184
     7   1    0.058860986918200818      7.9013351760654267    0.061776868361346146
     8   1      1.3042060386724199        9.06939400804246       1.788786518868041
     9   1    0.073260101807412867      10.403660366477423      0.1023160932529094
    10   1      1.1235183378100491      11.655962170172508      1.8849963871307518
    11   1     0.12967601868099793      12.947641770184827     0.11717166776144271
    12   1      1.4424564012505363      14.130011800613664      1.7820902958602347
    13   1        25.5030890685705      15.433944110986403  0.00013916653587102702
    14   1     0.98355242158135825      16.762526879569055      1.7576775089260639
    15   1    0.092651277741900476      17.974895850446579       35.87564324865329
    16   1      1.1463091556220131      19.093106662240587      1.7944797442387661
    17   1      25.487236015353169      20.587306873380427    0.093473824511545442
    18   1       1.245074650568057      21.658959593712453      2.0302732674156121
    19   1      25.400867602846901      23.083006089840357     0.11901625561769159
    20   1      1.3975669050855135      24.246034306586687      1.9285768578042057
    21   1      2.4667898872329102      25.382398896567953    0.026261400369821782
    22   1      3.8804959725225543      1.3729865528849419      1.8072514230169188
    23   1      2.7334529724692094      2.5062272665719134   0.0060029937322838046
    24   1      3.9457941709219195      3.8101760306550552      1.8408474338696119
    25   1      2.4491451760581922      5.1323364964768423     0.13164892379095355
    26   1      3.9122073066829079      6.6052102900346918      1.9422853958445785
    27   1      2.4655586558891245      7.5555935911294849     0.10917048272827982
    28   1      3.7413138941601551      9.0100091979151333      1.8775007106742467
    29   1      2.6121646620186003      10.040436079307003     0.15520840538774808
    30   1      3.8823207122215337      11.519326006967633      1.7515823359924056
    31   1      2.5311920695994008      12.771164293157371     0.11218156644600878
    32   1      3.7934259538491135       13.98734923825997      1.6216373225623799
    33   1      2.5562995085144626      15.428212202662813      35.908225500835783
    34   1      3.6896053596178158      16.612991109824346      1.5914667089851617
    35   1      2.4958391824807387      17.945959888703488      36.049594144059895
    36   1      3.7185372940390349      19.045848580028252      1.6743634442727864
    37   1      2.3453584219611878      20.471146861182618    0.028181574637665102
    38   1      3.5781996971712924      21.738539639834965      1.7999485238529715
    39   1      2.2564556122282289      22.946077923819143     0.11102648605866541
    40   1      3.7111332414303058      24.276209249930723      1.8775557903316198
    41   1      5.0491125457185948   0.0087780848326671525    0.074455422334153837
    42   1      6.4204519031059473      1.1325427232588443      1.7041605129832316
    43   1      5.1045449438942576      2.5011037039509709   0.0021945206752093343
    44   1      6.3701548248781021      3.9181614351412013      1.8317054710021123
    45   1      5.0213916537672461      5.0750196792964424        35.9541203542299
    46   1      6.3770598764141653      6.3890271193638624       1.669465000142486
    47   1      4.9747178252286144      7.8056919797438828      36.084727003886279
    48   1      6.1731573488378855      8.8500068795556928      1.8474530164899861
    49   1       5.190216873018568      10.312481171012642      36.019214515620007
    50   1      6.5287188030229188      11.565621369282098       1.809793107892814
    51   1      5.1828280169245922      12.788923524351933     0.21001865015434765
    52   1      5.2012141959399676      15.322980865849415    0.066560243739627281
    53   1      6.3147546352120552      16.742995760593018      1.8166605294616938
    54   1       5.077842224943466      17.870994019391745      36.061423868996684
    55   1      6.2145038586767551      19.169565987313213      1.6907332400251012
    56   1      4.8084071793042726      20.312189477765326      36.086146370608802
    57   1      6.4404052018271951      21.791936660665833      1.5570346621202831
    58   1      4.9178513524999063      23.021343995003818    0.065353548572875203
    59   1       6.353249496192265      24.211783978420662      1.6671264778275026
    60   1      7.7224157719331306     0.11550981815644834      36.022531585644565
    61   1      9.0522241458181103      1.1118011584129737      1.7932657414766924
    62   1         7.7486641825808      2.4624833117608991      36.026828206446162
    63   1      9.0871506610948565      3.5445532309321059       1.665424348463161
    64   1      7.5043135903541982       4.980776698640665      35.948562041853698
    65   1      8.8965311750645082      6.4567288948876369      1.6217724177828132
    66   1      7.5883591403572765       7.738764476369389      36.057343421192208
    67   1      8.6207775951823891      8.9768260499052985      1.5518185030132274
    68   1      7.6173494970617233      10.492187482996673      35.830933654463593
    69   1      8.9473996919455203      11.447307687695783      1.6958618842961315
    70   1      7.5244185126275163      12.847945876417874      36.047072108943709
    71   1      8.9153747089462829      13.981676229813022      1.7840825466644121
    72   1      7.7724252697357832      15.234432702040628      36.061005477630822
    73   1      8.9097171989472574      16.454169683674813      1.9194340149366882
    74   1      7.6897749735687499      17.834328768507124      36.092965713385837
    75   1      8.9953853295537485      19.165115522604797      1.7744110426586772
    76   1      7.6731715571475254      20.347207131149815      36.079459060525323
    77   1      8.9977618747539267       21.79127509652767      1.7919786485899878
    78   1      7.6070097571821913      23.039276756343671      36.019907279181318
    79   1      8.7750751097992481      24.290415582010674      1.6779876000870775
    80   1      10.249553362905999      25.504261755871134    0.059526406435611703
    81   1      11.537318638606513      1.2728012835383558      1.5980104260325443
    82   1      10.288933586995958       2.476434763538427      36.090822288837103
    83   1      11.534165776385704       3.862539974675534      1.7417638590602114
    84   1      10.024160420836202      5.0445202531615783    0.025310379357881621
    85   1       11.50987621686944      6.4510819277523028      1.7638141742708873
    86   1      10.120056278176859      7.5044185527353777      36.031811147125701
    87   1      11.586709486361086      9.0374758541569733      1.7101858599225233
    88   1       10.19522895856916      10.219482144484481        35.9629011269556
    89   1      11.524867531320027      11.438254907906858      1.7102792971644012
    90   1      10.238811200910773      12.749364345675021      35.992082342550681
    91   1      11.345385046486241      13.949494669541245      1.8814608493988423
    92   1      10.170586374523749      15.135159760257949    0.021128496959454422
    93   1      11.342857912001248      16.472098278585779      2.0358216016004231
    94   1      10.207961362197643      17.700425341802752     0.23076348854663145
    95   1      11.649341682738404      19.133218298639029      1.8207220181517529
    96   1      10.332102041399796      20.540205049212215     0.14706015174115247
    97   1      11.641052587514652      21.560394166047644      1.9588340011402912
    98   1      10.241699124259869      23.051836330490428      36.091481080562517
    99   1      11.492511612649977      24.174876605645697      1.8614852735844598
   100   1      12.769347931105719     0.01144178079451178      36.015556402598868
   101   1      13.926660735492577       1.361779004077742      1.8360426967884893
   102   1      12.746558452149712       2.556122950298247      35.956444824292412
   103   1      14.068679489495867      3.9423593172020062      1.7019538108127918
   104   1      12.459887023568086       5.170273712486126      35.962580065331643
   105   1        14.0030723793191      6.3478504745980437      1.6526450862206381
   106   1      12.614841826554315       7.619993100648661       36.05653584518371
   107   1      14.019879313202198      8.9280584271223464      1.6614827127177267
   108   1      12.766773534350271      10.282296210621649        36.0127713680398
   109   1      14.096452968588917      11.452876312640203      1.8479793055598872
   110   1      12.669319440128733      12.914057863893708    0.024576808303436341
   111   1      14.159851086082313      14.181934302730689      2.1257809119752542
   112   1      12.773184090629526      15.223895296861546    0.096560506444245825
   113   1      13.847628083032259      16.781954127892824      2.0721222941725626
   114   1       12.78165000755439      17.814337765867691     0.26512154797989063
   115   1      14.106139478737719      19.299945523224409       2.014860692616399
   116   1      12.819744957417722      20.313870011250962    0.078235281527076803
   117   1      14.160304215672419      21.789054327390392      1.7047226506115642
   118   1      12.854937517943172      22.822510204575185       36.03419874210271
   119   1      14.198369947086793      24.294021771684992      1.9437124430974109
   120   1      15.046954000631876     0.11255393928100538    0.082826943734824146
   121   1      16.434055294035378      1.3026005711339101      1.6251794751101893
   122   1      15.367131608627149      2.4938120399906469      35.860633733852438
   123   1      16.513292760490266      3.8837462196363886      1.6880084978101879
   124   1      15.214907975711013      5.0906002613488326      35.930994424223663
   125   1        16.6017530826214      6.4566614397704054      1.6349876324723811
   126   1      15.085956791370599        7.65233899711086      35.947714798352642
   127   1      16.480025668365876      8.8555797006777439      1.7873111518534877
   128   1      15.308800708236276      10.330343355979471      36.029684558074706
   129   1      16.687876140404143      11.268386932080862       2.077157417859858
   130   1      15.229356465742434      12.944897501970402     0.18274978665832592
   131   1      16.817283952802526      13.985250110346817      2.1199471468508375
   132   1      15.224536386488731      15.396397985140359     0.12480210385886042
   133   1      16.707994764993341      16.651564251642313      1.9949490013639422
   134   1      15.204579904315329      17.967883795557061     0.23266961407100542
   135   1      16.691712690254317      19.328304128871142      1.8813455906723793
   136   1      15.346842389633084      20.413599682636608    0.066725642086066655
   137   1      16.625631324674703      21.903971757585474      1.8278745997161066
   138   1      15.450494964276896      23.211169129321441      36.001559106092664
   139   1      16.668916450413956      24.462069895465877      1.8998257226178241
   140   1      17.802705751205909     0.18695028503199063      36.065704022011019
   141   1      19.182652111569681      1.4571503843006635      1.8111290508518536
   142   1      17.838963315313276      2.7229919370770008    0.012457528564823399
   143   1       19.31523471403078      3.9482189975533593       1.796320867040573
   144   1      17.884838877435946      5.0922840311413786      36.040320281707487
   145   1      18.928705246764505      6.3891157965369176      1.6937065598772048
   146   1      17.816821119392287      7.7918064829732545    0.016965743537775795
   147   1      19.130502530978625      9.0219962619548291      1.8062606494263249
   148   1      18.056541930360208      10.276273231008297      35.918855709636269
   149   1      19.108012575556884      11.534708455146244      1.8929629342272738
   150   1      17.745268925497911      12.692557301122594    0.077362106854764218
   151   1      19.189022301453843      13.945422292615797       1.849155641977837
   152   1      17.847275548425269      15.332391819924229     0.18447738997929272
   153   1      19.200557154577325      16.541744498575433      1.9239703157163257
   154   1      17.794087946629396      18.213119654323137    0.089421715258276913
   155   1      19.257888973608893      19.320280811842544      2.0917841159747255
   156   1      17.973828217350992      20.707090046682769    0.012813811136720704
   157   1      19.214998314261276      21.786292482567312      2.0076004534785947
   158   1      18.051001950898677      23.191182584431491    0.026273326894056474
   159   1      19.226333154241292      24.338191786383849      1.8827819056485398
   160   1      20.234944622900127      25.491901263844774      36.076891728442554
   161   1      21.623593793578618      1.2737138787103774      2.0559403876127242
   162   1      20.375016073232402      2.4559622550880875     0.23527979156599488
   163   1      21.766771641200688      3.9148011829709142      1.8002891182678797
   164   1      20.382308248804019      5.0293454941060709      35.997026988126457
   165   1      21.552425222953502      6.5952921019319488      1.6908228859246832
   166   1      20.558761046937413      7.8916538470011073      36.014940227379775
   167   1      21.826579761883703      9.3634710739655578      1.6060185676706289
   168   1       20.39726271836664      10.227149937361078      35.991828412363255
   169   1      21.588293932568991      11.666851953879387      1.8546541465372675
   170   1      20.316983708979297      12.730239050044094    0.067452539147666288
   171   1      22.037491752375484      14.100833406349496      1.8946997756769397
   172   1      20.436524706478359      15.303692281072973    0.011217856552775634
   173   1      21.640711105616202      16.571016286127279      1.7196426079848046
   174   1      20.326163370197076      17.998415205061768     0.10703988693362577
   175   1       21.71695089563082       19.06724910787052      1.9885398022673264
   176   1       20.47120847083454      20.521824187828123      36.084612337895777
   177   1      21.677152101548451      21.613245962373377      1.9104255370356999
   178   1      20.438680246482765      22.918299350004432    0.081326202353614124
   179   1      21.785062865321052        24.2437052886185       1.907230949244126
   180   1      22.934391483098175    0.039135725113859633     0.14042623438432439
   181   1      24.294765538489216      1.2145838441307828      1.7982600476260815
   182   1      22.940203865106966      2.5428536108248299     0.10728977853782458
   183   1      24.188865533078115      3.8689425335457415      1.8328454871328621
   184   1      22.811617194523869      5.2381362353805283    0.027336393811583534
   185   1      24.169803492468436      6.5500328250644317      1.7415428685206173
   186   1      23.141997731332406      7.7329254713017628     0.12417840598577637
   187   1      24.282492093837643      9.2110783229631572      1.7067491707636235
   188   1      23.021860481225531      10.519166186354607      36.036890263529031
   189   1       24.21785427073533      11.728066224388058      1.9681762494258455
   190   1      23.099767366822963      12.894380437606163       36.08384795412217
   191   1      24.352708068688212       14.08475605984761       1.900442167283052
   192   1      22.989972995754044      15.293409032809423      35.914404948713987
   193   1      24.175253908229251      16.508725246439212      1.7287230061915453
   194   1      23.019703753648141       17.92379897631681    0.081093487941780118
   195   1      24.255321369761411       19.10672229121878      1.8616120193030175
   196   1      22.964687073523567       20.37999483809401     0.36166578191791793
   197   1      24.318511083932595      21.945176177398533      1.9491733273278318
   198   1      22.968493896543713      22.925696226595594     0.10799994437031731
   199   1      24.212676098441033      24.347445404901176      1.8429350879248445
   200   1    0.087174907855271808      25.491983824357273      3.7843876041919606
   201   1      1.3326209716574096      1.2275278171732582      5.4934851447547306
   202   1     0.09074615913250518      2.3935792998538186        3.60520918719418
   203   1      1.1437387339672984      3.8374075240940329      5.3231858794938685
   204   1      25.470545677821296      5.1976083524097891      3.5859570092778195
   205   1      1.1988691706743673      6.4072049575284895      5.3342565577553973
   206   1    0.030629166261629127      7.8006661309432745      3.4940324107706933
   207   1      1.4209516002897165      8.8609790409281093      5.1317681032462961
   208   1    0.080646722743747692      10.221533378418359      3.6747855716392346
   209   1      1.4291998343565233      11.574105237163137      5.3396628544586715
   210   1      25.498775850630814      12.878366126395793      3.6418024959130344
   211   1      1.2563222035505195      13.958715233469878      5.3523308172729687
   212   1     0.04777507730915416      15.538991708640893      3.7264286766528185
   213   1      1.1432836893109308      16.484063108543609        5.60801624311953
   214   1      25.447564805365776      17.954538378929715      3.6121127132815731
   215   1      1.2001540985433203      19.093492311158094      5.6188428816497256
   216   1      25.425412870879804      20.447605002837328      3.7582319436587834
   217   1      1.3590008647971308      21.604562436412628      5.5823299612770594
   218   1      25.508289319449911      22.921838095223549      3.8462894779591674
   219   1      1.3360389062086493      24.259466190111482      5.6762595264285256
   220   1      2.5831191151646458     0.20732608771227576      3.5603584555406771
   221   1      3.8772486056427007      1.3814700069070061      5.4635333174200831
   222   1      2.7988768076788841      2.7401659872660948       3.522602892534155
   223   1      3.8590381791758723      3.9337550684411875      5.4078584415903279
   224   1      2.5568393999008023      5.1875267470193451      3.5928926487623136
   225   1      3.8178484721594983      6.6070012403761753      5.4332071374794531
   226   1      2.6183863451692426      7.6146650551609598      3.6484560174228089
   227   1      3.8583242287834656      9.0264814058653524      5.4832224280629767
   228   1      2.4297347036656531      10.300803271386826      3.5392140032722872
   229   1      3.8544126518684858        11.5586529274113      5.3390964976689812
   230   1      2.5915477981346822      12.787609445001399      3.5402386530754155
   231   1      3.7865887672699494      14.116200568456627      5.3545257271230842
   232   1      2.4573600946493004      15.475376587100319      3.4446938070835138
   233   1      3.5035310524325416      16.827231007165139      5.4625532948301627
   234   1      2.5374078956430068      17.885207963542765      3.7123010566135921
   235   1      3.9532483149614555      19.258170423506424      5.3035399571808437
   236   1       2.707594986563028      20.410085142316611      3.4935188451499593
   237   1      4.0133742631501237      21.905316776905938      5.4499835662797214
   238   1       2.498716045281308      23.005352761696638      3.7761787131022189
   239   1      3.7643733260658601      24.404942836731546      5.3761376539053245
   240   1      5.0050266172820583    0.098184118778709875      3.6949845226528861
   241   1      6.4199210828082185      1.3128087244425317      5.2594080169113342
   242   1       5.215082033986449      2.6748766856990738      3.6399275927252113
   243   1      6.5096702454630799      3.9890475920289079      5.3514221323468618
   244   1      5.0782490150748689      5.1610220505283166      3.5288050731085958
   245   1      6.5913141177435204      6.4964274710941146       5.528927288684109
   246   1       5.230970737410261       7.688627822796108      3.6904072801782517
   247   1      6.7545054701947915      9.0003697539814969      5.2373791464498751
   248   1      5.2850773106502764      10.309449683789353      3.5086205933221311
   249   1      6.4975439749110082      11.431772241242887      5.3077282071439802
   250   1      5.2127994490006611       12.85085812205905      3.3393861781012895
   251   1      6.3359275077106743      13.877451598815847      5.4446871384567102
   252   1      4.9596156159834148      15.171361279171206      3.4637720301615347
   253   1      6.2115319407768572      16.320237769178039      5.2357152316587428
   254   1      4.9584767906642826       18.00789091203713      3.5414509430714833
   255   1      6.4625446968838451       19.23055981672336      5.3977450607083659
   256   1      5.0535218360131386      20.413740137800623      3.4447351551536585
   257   1      6.2686337763746218      21.609571177126266      5.3929828218207208
   258   1      5.0746742773615736      22.963235085976631      3.4449793016283805
   259   1      6.4853509263847204      24.083892039170419      5.5746394964640613
   260   1      7.7701467882686321      25.440978212726261      3.6050009151090636
   261   1      9.0530527740928335      1.2693511666974924      5.3920652107633078
   262   1      7.6542973645811978      2.5429339967146478      3.4427643619321899
   263   1      9.0743691934975743      3.7441494541776654      5.3193310807398566
   264   1      7.6975105126977343      5.1211785853704264      3.5564432337496452
   265   1      7.6551267154302831      7.5572788677941007      3.4258338842329423
   266   1      8.9699392289513984      8.7641550378499424      5.3971882344025728
   267   1      7.7823686243615562      10.197750448878413       3.544441231373479
   268   1      9.0009104403171012      11.390174713828225      5.5115303262678808
   269   1       7.741806998960814       12.73108225331378      3.6695473111852648
   270   1      8.7297690304869846      13.911172395291429       5.583235419998835
   271   1      7.2230278318443739      15.120372033829737      3.1860801138561672
   272   1      8.9833391546040104      16.457626887919432       5.464493573458034
   273   1      7.7891134812453311      17.916418717447367      3.7364022049665846
   274   1      8.9783549328270968      19.129540778190712      5.4014657078759631
   275   1      7.6112006562178394      20.550322356986225      3.5043770834292576
   276   1      8.9667141102021795       21.68416060047166      5.2796744771537281
   277   1      7.5631650079569051      23.045030967962646      3.5084323546577703
   278   1       9.087908204223675      24.403192919869724      5.2755097978527292
   279   1       10.36315904485895      25.414187868240653      3.4943084858843685
   280   1      11.691816721319759      1.2307345288040454      5.4579239927661343
   281   1      10.325756568118676      2.4561208875003864      3.5329674204998569
   282   1      11.374689002979432      3.9473747319624564      5.3404351985838607
   283   1      10.123627617234794      4.9749583350306388      3.2891397227998356
   284   1      11.492039375062772      6.4851411790234081      5.1726133822238367
   285   1      10.138612420857607      7.8014726712070344      3.3480884353516354
   286   1      11.598919017229242      9.1112275365819624      5.5227320648664717
   287   1      10.272975032591363      10.070903319608743      3.6634524733140097
   288   1      11.555962870810179      11.523084579647414      5.3561430995374586
   289   1      10.162504031196933       12.41562365582017      3.5828600507490918
   290   1      11.364478407841634      13.880911053491523      5.3637489777450629
   291   1      10.069373075199588      15.135653740528621      3.8100380785128038
   292   1      11.614426636947279      16.636072489000334      5.5289139072213409
   293   1      10.354675000966401      17.982681274131764      3.5965982044549611
   294   1      11.482202584892997      19.156086292267556      5.4689926012874457
   295   1       10.31007150080638      20.355333742658097      3.6034568847943209
   296   1      11.425697915068456      21.647273610261042      5.4289258871265931
   297   1       9.973321137770391      22.835647699513366      3.6400428343745355
   298   1       11.50026486267341      24.124494400448871      5.1341561298263461
   299   1      12.777942894088675      25.409025125616463      3.5005820104962946
   300   1      14.166987128487229       1.505711833828884      5.4570097463154328
   301   1      12.670591761460605      2.6683018347490037      3.4936766719667371
   302   1       14.10196148413001      3.8114925938384676      5.2429442392668468
   303   1      12.833936122418715      5.3515034883522699       3.429414900625873
   304   1      14.036199756353092      6.4611317418062137      5.5666406137829769
   305   1      12.731882777608547      7.9610180877829313       3.423667616282057
   306   1      13.886761183060949      8.8594737967771628      5.4251468990442202
   307   1      12.810428953623385      10.371744702347897      3.6710618234791106
   308   1       13.91915584892789       11.48558885385177      5.4085774239091293
   309   1      12.761732590681357      12.673918854532099      3.4764314191359516
   310   1      13.961855527037383      14.146690752413495      5.2750009114951926
   311   1       12.58743777591644      15.233322467739264      3.6868194464200315
   312   1      14.122672490658847      16.884675390024245      5.5755872914112015
   313   1      12.734200874125678      17.946392898017898      3.8878205262523617
   314   1      14.212713364127429       19.30838333934274      5.6138132969965584
   315   1      12.944799529885946      20.451033427304331      3.7183224943204567
   316   1      14.354659770844101      21.987387824241672      5.6334914341147684
   317   1      12.842589239473226      22.944733763349653      3.6931773434528492
   318   1      14.034969687090822      24.309138320328909      5.3761703429961019
   319   1      15.424500886776523    0.089207820951234001      3.7135709795598877
   320   1      16.671613795753728      1.3533556390462886      5.3726882956724262
   321   1      15.419435425421554      2.6606092219830813      3.6127252433708605
   322   1      16.628107190847043      3.8611603583647094      5.4141202089596137
   323   1      15.124280477077823      5.1773830440481943      3.5410362520190901
   324   1       16.49769179432915      6.3604696965363807      5.4648832224277095
   325   1      15.358538214651702      7.6528548240767913      3.6501047395402386
   326   1      16.516220194511874      8.8353127360514225      5.5354294231903234
   327   1      15.210671779600933      10.116136412489075      3.6088047308721465
   328   1      16.858947776417512      11.303301143420176      5.3086760049311783
   329   1      15.355525415492501       12.72192409802321      3.5506768539390126
   330   1      16.559780745541804      14.248743225562714      5.4495265476164336
   331   1      15.375112757919533      15.580363023248154      3.5853161951828052
   332   1      16.521418065657237      16.783437022034384       5.516926656263017
   333   1      15.399856643600952      17.936259844220416      3.4899509644132665
   334   1      16.545177178213638      19.299440971580665      5.3420358389482985
   335   1      15.287832424781122        20.5140242398871      3.5679401719856845
   336   1      16.644486120361009      21.755508562226808      5.3651290570059906
   337   1      15.347799956677708      23.192391247045379      3.7423455053945687
   338   1      16.716672537525334      24.366117729593306      5.3381411291277931
   339   1      17.987791498385491     0.11199458913460326      3.6740670963608193
   340   1      19.302148700393744      1.1563579775058326      5.4155943746973945
   341   1       17.80939688147334      2.4035823445476532      3.4742665800338965
   342   1      19.094070715773778      3.8322150652612414      5.4257782021046692
   343   1      17.747062861677655      5.0471145282529788      3.4560022098922007
   344   1      19.188279222119906      6.3803808163360634        5.53850783077944
   345   1      17.785624053634791      7.5267671771500151      3.5294770210763899
   346   1       19.30411277506898      8.8173711958925427      5.3996331874375221
   347   1      18.079657846211457      10.020196175151559      3.5754357312702827
   348   1      19.325023979600825      11.450359970071288      5.4762183214294105
   349   1      18.213960553480376      12.643143701582414      3.7563886209759345
   350   1      19.277802987023691      14.022565204924843      5.4632235151258728
   351   1       18.02877428337608      15.534509702687391       3.900870185601558
   352   1      19.199993248923523      16.518581899970222      5.7496492657473688
   353   1      17.758953604501961      18.020850023202552       3.797352691488864
   354   1      19.310558983599162      19.126947955764319      5.5404299453401933
   355   1      18.064085602681104      20.361008766680335      3.7812123891931813
   356   1      19.273232017390843      21.724378912323061      5.4925934424048339
   357   1      17.860141009052683      22.980581460466865      3.5034941967325159
   358   1      19.134687863525514      24.155670439691434      5.5647082146765445
   359   1      20.526500694205808      25.438185355122702       3.685110637727528