dump/Cu_560_20/steps_1 (written by ASE) 

1980 	 atoms 
1  atom types
0.0      25.526554800834361  xlo xhi
0.0              25.5265548  ylo yhi
0.0      36.100000000000001  zlo zhi


Atoms 

     1   1       25.44355981241409     0.13677726197022994      36.095511565362635
     2   1      1.1389681395555697       1.408257956499797      1.7731961124573554
     3   1    0.042386201773248713      2.6314500304674167    0.016673090745598515
     4   1      1.3252664151128095      4.0037227077772766      1.8439742335099711
     5   1      25.365164863961631      5.0758713076330784      36.035629803061795
     6   1      1.2909922184183003      6.3384225929833367        1.86434824280533
     7   1     0.14788576799029332      7.6118145979178857      35.859464401086704
     8   1      1.4545619719328544      8.7674139143475429      1.7608524675912696
     9   1    0.067116865225102407      10.269795022044496     0.11332302554367275
    10   1        1.24478477406282      11.730900441194057      1.8633831613040008
    11   1      25.419632607405951      12.681113614713723    0.014509710119830271
    12   1      1.1578266100082704      14.081008467361945      1.9779514583635989
    13   1     0.01112621601620703      15.125364562917687      36.012779194222382
    14   1      1.3729716544277697      16.427171030370278      1.8305243949209848
    15   1     0.28665843884555064      17.865729336782874     0.19071561269000764
    16   1      1.3264687638135362      19.111959948668702      1.8141649906957706
    17   1      25.384699852596569      20.336862569719301     0.25180990680634063
    18   1      1.4324264410159533      21.685577957377216      1.5963008208542417
    19   1     0.03905607474275883      22.742206507337833       35.92894309899625
    20   1      1.1446849898177158      24.336203752475374      1.6131555149114096
    21   1      2.3830908495672518     0.14358024381210571    0.095518843497632039
    22   1      3.6215323216967112      1.3461259140125177      2.0759268441130625
    23   1       2.509230578706358      2.7185353854205094    0.047144937295729557
    24   1      3.8598732848759507      3.8454106480320496      1.9803414133675128
    25   1      2.5584552241354133      5.1518136131608001     0.15991399893866848
    26   1      3.9474488468759885      6.3558812455629807      1.8048703003164972
    27   1      2.7494463457101235      7.5398543502504802   0.0081143843658765102
    28   1      3.9530413581548189      9.0949881597611597      1.9694801424042689
    29   1      2.5596873477383628      10.336672741859115    0.024545729889291573
    30   1      3.7457596167605782      11.582759594053028      1.7014050216010779
    31   1      2.6678533066462933       12.82688088796238    0.062907833403414909
    32   1      3.7809300264344623      14.092249591939797      1.8391079472528411
    33   1       2.598651956857462      15.347734111434809    0.054572278705756969
    34   1      3.8898437746154091      16.594244434104809      1.9289808283001102
    35   1      2.7361025831716663      18.091991144917294     0.13859086609395499
    36   1      3.9752619015977739      19.112370491709562      1.9454733123561132
    37   1      2.7229241758871519       20.35723376516637    0.073469865951006005
    38   1      3.9754572568443209      21.683002547655537      1.9317666864422556
    39   1      2.5761956463850662      23.160085915198763    0.018365752139618524
    40   1      3.8105845852166427      24.136268887525947      1.9223279761312588
    41   1      4.9605285331766735    0.071554146812444264     0.40634980974114082
    42   1      6.4800026240514965      1.2720990373654626      1.9263962906000078
    43   1      5.0552286944928957       2.648514998178781     0.19039031609162294
    44   1      6.3743329491051384      3.9357700421162547      1.6696564680235846
    45   1      5.1076237299392169      5.2493059531134127    0.024728798436592554
    46   1      6.6187042163629899      6.5735869969140257       1.836385301516281
    47   1      5.0970272018328497       7.933304803968384     0.17928995234985901
    48   1      6.3869556690010407      8.9613797340275347      2.0245214153455673
    49   1      4.9812976139072846      10.379998514723143   0.0049647801337414522
    50   1      6.3088025870179045      11.553792038154965      1.8227877442991129
    51   1      5.0977125900392339      12.860066362468464     0.17625673533073025
    52   1      5.0434186899029916      15.189057513308532      36.051435467543733
    53   1      6.3335473984334634      16.426910323214479      1.8082291363188709
    54   1       5.072945329457605      17.870355113342853     0.16753578044811102
    55   1      6.5669615187364796      19.129520226861558      1.8219037941205909
    56   1      5.1668560541597817      20.446223605423871    0.052189194732284179
    57   1       6.621882158762272      21.703677391769798       1.833585957880745
    58   1      5.1101442555918739      23.201778961895869    0.052608369988468004
    59   1      6.2768351882730631      24.325856991004738      1.8277436540187402
    60   1      7.7684909332938945    0.033254254230299277    0.059049473579648293
    61   1      9.0522281505108744      1.3342036251986953      1.9303332160265427
    62   1      7.7204904082171373       2.579026710178288      36.079194412775351
    63   1      9.0661163854925579      3.8905961710148018      1.7743365671065376
    64   1      7.8914378514690364       5.206838799781587    0.015990968615881243
    65   1      9.0385408728956289      6.3954904964272723      1.9762342598505838
    66   1      7.7123123561776623      7.6056061214363009    0.064805758687736983
    67   1      8.8784205956417317      8.9451613254391038      1.7489914542563738
    68   1      7.5194978462503279      10.154501163103744   0.0027106474152901669
    69   1      9.0519571444887372      11.548093242530385      1.8572850607142866
    70   1       7.502141082634135      12.873746217224792    0.061367234899944299
    71   1      8.7826754176214692      14.114917240356792      1.7734856794873295
    72   1      7.6843058762559053      15.263302468482658        36.0075694159219
    73   1      8.9687356653724777      16.679094079391323      1.7348278228451828
    74   1      7.6057280709511863       17.78748294616695    0.048997222324396794
    75   1        8.93693314974686      19.221204525910693      1.8116420409307472
    76   1      7.7891585419520597      20.667253363776933      36.091380644667218
    77   1      9.0133084934609045      21.658483809718707      2.0039264458891259
    78   1      7.6645044277964898      23.190991081805379      36.094047901020623
    79   1      8.7600371806059822      24.134420906614828      1.8447227296552577
    80   1      10.243491063431527       25.34364947233226      36.060970281549594
    81   1      11.462551991704274      1.2784525629529695      1.7237831806535369
    82   1       10.22177123636026      2.4005420892776725      35.977067444074144
    83   1      11.496407529540317      3.9292241419867029      1.6294138211010238
    84   1      10.215060367092111       5.214390198263839      35.941508167638396
    85   1      11.568769575545319      6.3913877568043684      1.8964270498330846
    86   1      10.201098374096098      7.5355624610222849      36.053400235750821
    87   1      11.447335830645185      8.8887602923444788      1.9318906644290215
    88   1      10.062801151483852      9.9387827915167346      36.076322185818462
    89   1      11.618783086006804      11.390861479795204      1.6606126467536113
    90   1      10.146332868293289      12.715281276578013      36.011711878146677
    91   1      11.519669798659692      14.018253162729572      1.6919840723556046
    92   1       10.18162157205575       15.17903337753344       36.07064946590917
    93   1      11.531494152356125      16.636768941809319      1.7684051350190557
    94   1       10.18157825718615      18.063900728393456      36.027140306760565
    95   1      11.361258230758839      19.326490348869285      1.7069967838482389
    96   1      10.199307836101562      20.639180541149148      35.880801547913201
    97   1      11.459230555149112      21.791510616623093      1.5656078687103223
    98   1      10.292693845510554      23.049205300485717    0.084025906848455609
    99   1      11.394306384396621      24.214551402846769      1.7749323364828913
   100   1      12.867558253634749      25.512851754950539       35.88654701392754
   101   1      13.976026383084116      1.3246377838435952      1.6570526789703326
   102   1      12.632573662235931       2.513405106666097      36.012902179955987
   103   1      13.868090191878652      3.8754227213944383      1.7606797996862595
   104   1      12.731567417864323      5.2255447426343729      35.935290520283893
   105   1      14.054527620518492      6.4720587834300547      1.8064441442495425
   106   1      12.826278829562655      7.7209395437505188       36.06111738416751
   107   1      13.996613475556972      9.0144876649318917      1.6970885585125881
   108   1      13.000352916255711      10.268896175786272      35.953093393521776
   109   1      14.244752834010116      11.493711422990179      1.6896631893581691
   110   1       12.81964183533333      12.793277551853155      35.936871899177063
   111   1      14.060730147054288      13.974766430637802      1.7863854245791571
   112   1       12.87568905640199      15.420234866445126      35.999427712096711
   113   1      13.936816704592662      16.640377594453817      1.6330314462497753
   114   1      12.884883949875944      17.967421830941376      36.000806783459666
   115   1       14.01572987145048       19.25544500604417      1.8698741570956929
   116   1      12.721676595427365      20.543180242967832      35.998512463822102
   117   1       13.99115088645426        21.7665295946931      1.7349442620693816
   118   1      12.845713772062433      22.983021764362832      36.042322628260756
   119   1      13.884446880900112      24.390089122256789      1.6399712442329941
   120   1      15.404032374506635    0.022661441272483498      36.063078392412216
   121   1      16.657904444359119       1.201680067711546      1.8862168176399803
   122   1      15.274682443101341      2.5239866519311698     0.12807452539049122
   123   1      16.508142011278842      3.8066269595719593      1.8846795551951467
   124   1      15.280036217682651      5.0642830757864719    0.084451047595280146
   125   1      16.586035288957742       6.340780662550987       1.731242620722856
   126   1      15.246238398209764      7.6009235932066082    0.041165866196843127
   127   1      16.587960670698294      8.9133746881619622      1.8194262892768287
   128   1      15.569564627800661      9.9978653976873879      36.026346499766582
   129   1      16.607760110883916      11.424688781008724      1.7526981429336514
   130   1      15.219839286293613       12.94640021825014    0.056665447938030376
   131   1      16.712748905996463      13.974774801152337      1.8355113132851442
   132   1      15.469620483083515      15.438784687675474     0.09858255720008631
   133   1      16.699876859787803      16.631819693898393      2.0475220659134719
   134   1      15.357812430867398      17.884895897989399    0.067175710801257157
   135   1      16.354290550856945      19.234116164219621      1.8007267118316463
   136   1      15.108274424368808      20.241512211448306      36.018781207539767
   137   1      16.373000628321311      21.821571774901166       1.664297803137242
   138   1      15.298789472828854       23.13450816946073      36.006129160462692
   139   1      16.540692894552738      24.238063856969458       1.759630139143382
   140   1      17.884658336764655      25.473591499082662    0.015222140329194663
   141   1      19.059831000934388      1.3637993939423221      1.7814337878337703
   142   1      17.982629211371648       2.770533912721842     0.12260798652588406
   143   1      19.295134420808189      4.0661361444108755      1.8123077558742702
   144   1      17.868380899556104      5.1641906878015202   0.0019607718508950728
   145   1      19.132510314416432      6.4177992475283938      1.7611118246581907
   146   1      17.850079310977662      7.6104908926215966      36.084531989416739
   147   1      19.056829927191114      9.0365062979886606      2.0032830412730274
   148   1      17.999470582444648      10.262935505326368     0.13525986394378139
   149   1      19.224468921830486      11.466538627603082      1.9250997735623971
   150   1      17.868849208344511      12.611872075971098     0.07164107293768894
   151   1      19.073379620231776      14.097255972000244        1.74412518674675
   152   1      17.906271737098816      15.341784765059966    0.028399299487432465
   153   1      19.312997865049073      16.609663844010154      1.9741930117068363
   154   1      17.842146382305792       18.11638980097085     0.20069670650865426
   155   1      18.924783252577328      19.097695691107489      2.0974873191305408
   156   1      17.783343929996942      20.571602065303477     0.11383265330182431
   157   1      19.019201480140239      21.697623001798874      1.8148691598095652
   158   1      17.714585018632089      23.002714618216324     0.27868869539331625
   159   1      19.114573875393059      24.226050008953006      1.8535882428981159
   160   1      20.368168334839897     0.13185042946312475      36.068399353644104
   161   1      21.496232940822534      1.3203980952671823      1.8742679756330307
   162   1      20.528277272610516      2.6880285368189556    0.049718824869717175
   163   1      21.752911855768414      3.8507755992401171      1.7407385869326624
   164   1      20.534325092952891      5.2182235394720822      36.078869467826074
   165   1      21.832643515509027      6.3213586505458164      1.8619952939321123
   166   1      20.320531771182232      7.8080295473604595      36.098211060240835
   167   1      21.881439479954079      8.9421065131986559      1.8992465083474486
   168   1      20.544936050488253      10.205755370698601      35.890342214467069
   169   1      21.745593910884082      11.455418714733902      1.7968110016861609
   170   1      20.440351476476337      12.590801241070636      36.098531192426861
   171   1      21.872979792261088      13.807511927480288      1.6487008979867701
   172   1      20.414777647605987      15.132474707522121     0.13931213489428257
   173   1      21.707842627232527      16.568594432183691      1.9254300425589683
   174   1      20.418134907823607      17.751914268093635      36.097450363532694
   175   1      21.371980457775457      19.007587893077215      1.9060393558987458
   176   1      20.129407468639538      20.254157168252242      36.000741936840448
   177   1       21.48546714418935      21.500054070634192      1.8082523663862617
   178   1      20.258044704732495      22.896867936306471     0.18935077508926951
   179   1      21.606059499625395      24.118866662142597      1.8572485886043062
   180   1      22.979426025478702     0.24006184720418203      0.1582162368893934
   181   1      24.251662300307167      1.2511101179643296      2.0567647171212013
   182   1       23.07058839305369      2.7219720260139004       36.06371838461299
   183   1      24.349240403092292      3.8859949224837544      1.9941415202646904
   184   1      22.842896732521304      5.1773136126056389      35.932648651142962
   185   1      24.263617034570398      6.3949526099599687      1.7678117009629544
   186   1       22.85427555748813      7.6374403191010511   0.0099879919073828111
   187   1      24.288496587159589      8.8141194970838477      1.7612984037620321
   188   1      23.105014076327226      10.243576532257686      35.955255092217662
   189   1       24.14969972420316      11.490697369258854      1.7486573630793374
   190   1      22.965236751323605       12.72164838986266      35.952406438892204
   191   1      24.193960370503092      13.906536229916593      1.6920560435275092
   192   1      22.973668167367638      15.282501105218918     0.14111054586395547
   193   1      24.405338800534278      16.386240259582959      1.6870147938055888
   194   1       23.18899720809231      17.738639048851194     0.19538866822597364
   195   1      24.122434437984396      19.095323198800031      1.7393132047603561
   196   1      22.748183120144368      20.265179359364033      36.059788261664153
   197   1      24.118896499588441      21.496601641128173      1.6502551867122979
   198   1      23.179247377820307      22.971887874111481      35.968242203117619
   199   1      24.062929214167852      24.050741399522778      1.8408024131229681
   200   1      25.321216422467696      25.370481566368454      3.5455325733416094
   201   1      1.2398132145246108      1.3145911445241334      5.3866456450535702
   202   1      25.512233330762957      2.5689133031287805        3.68724920451979
   203   1      1.4410967169778288      3.7171641066783487      5.3693618143017385
   204   1     0.19333290828342345      5.1467626367102453      3.6803227200478856
   205   1      1.3711960557030525      6.4695941296551913      5.5277763090796226
   206   1     0.15464205685091773      7.5741141829615408      3.6363357510310585
   207   1       1.490325798121257      8.9745907062431556       5.353900303125176
   208   1     0.11631881628949213      10.129087810943833      3.2967092147099732
   209   1      1.3230269548612357      11.537475279266456      5.4721267558433473
   210   1      25.458051094528347      12.739426243311978      3.5504352068539458
   211   1      1.2992308557076786      13.918284084262206      5.5184696088219312
   212   1      25.521314119382854      15.282183204973814      3.7549999157038298
   213   1      1.3530822309683705      16.649077747988638      5.5853562916907045
   214   1    0.084907129115907573      17.909987554343573      3.4863619066949365
   215   1      1.3555719439284926      19.178857967753515      5.5607750209392908
   216   1      25.439465445968217      20.427106629455174      3.5562928900439039
   217   1      1.2974380108143331      21.633350156859628      5.4150859989836713
   218   1    0.032672515455300526       22.71481517472828       3.391614599168769
   219   1     0.98037046391429494      24.149110877665564      5.3069465781362242
   220   1      2.5460744348249329      25.509384941478775      3.6557491122653487
   221   1      3.6514151898457845      1.2545341196455535      5.3256953665596329
   222   1      2.5409503966766449      2.6052753430540774      3.6551333252813172
   223   1      4.1462262510596055      3.7620377299908725      5.5380120425995605
   224   1      2.6284276544144549      5.2660472590772285      3.6979517333053766
   225   1      3.9621912126147625      6.2224033311095459      5.3777561048512057
   226   1      2.6760251212469326      7.8356827354952117      3.7072922213774904
   227   1      3.9347194453574108      8.9982196639260152      5.5507269095050331
   228   1      2.6589457638957876      10.402434151359174      3.5742467181159783
   229   1      3.7849350040605012      11.398848244504315      5.6496821068036631
   230   1       2.482210847680641      12.761263737164677      3.6682832702646344
   231   1       3.797749795090859      13.935376668851282       5.356312305392251
   232   1      2.5514664853390663      15.303721454441733      3.6514421367114158
   233   1      3.8153817202493179      16.778398383587067       5.571536662952294
   234   1      2.6097548365008456       17.94939948283546      3.5563121037702108
   235   1      3.8399715988052403      19.250588289064314      5.4830227980852682
   236   1      2.4555739403008459      20.421445338542242      3.4942482044304262
   237   1      3.7291764212255964      21.890398214840175      5.4792085474845944
   238   1      2.4807249053738576         22.955865819722      3.5959771704841743
   239   1      3.7533383271925369      24.456351416994945      5.5312985592175776
   240   1      5.0153852288751688    0.094720919406345139      3.8164295427157242
   241   1      6.3407403911116385      1.1917018204946244      5.3564825913093328
   242   1      5.0796046661045926      2.5428015846316732      3.6802994752714233
   243   1      6.4162869138675696      3.7767757622621656      5.4449773336060803
   244   1      5.2489122503428511      5.1409069609210807      3.5813988682907194
   245   1      6.3715738117629463       6.389060121408348      5.5390189361553492
   246   1      5.0569461808773175      7.6160119288139336      3.6695114319610251
   247   1      6.2499354582712625      9.1105636472650691      5.5158773988489758
   248   1      5.1445148166003065      10.415411982325407      3.7292300078850529
   249   1      6.3568917090932553      11.607678253986439      5.5426961413107945
   250   1      5.0822975179563432      12.864059062662385      3.6993369779226035
   251   1      6.3267277591901507      14.185664852442544      5.4524774194774759
   252   1      5.0405903576310598      15.309689833070614      3.6815752848276126
   253   1      6.4116378654991104      16.579338347337501      5.5708644701670567
   254   1      5.0443899021311314      17.943447421257346      3.7721370826373333
   255   1       6.358598200146564      19.168243258211572      5.5807384748416764
   256   1      5.1106769080447965       20.48718824759457      3.6879905091540985
   257   1      6.3792551377294009      21.602650850163595      5.4885246867869411
   258   1      5.1107446045676834      23.056260027595375      3.7752353077841079
   259   1      6.2199020493303507      24.094635755024203      5.6140305419791572
   260   1      7.4932816492721086      25.361680415658611      3.6880797238159184
   261   1      8.8230812039591306      1.2956179139606332      5.2895769836302335
   262   1      7.6877991814755609      2.5596481191759013      3.5519456999625949
   263   1      8.9887448405073176      4.0728116066206539      5.5872488764108086
   264   1      7.6923749562458266      4.9602029185323069      3.5845201972629428
   265   1      7.6256282986631208      7.5301991733351441      3.6794652153965415
   266   1      8.8439493696163218      9.0770726923080556        5.50392934855474
   267   1      7.6743797621572378      10.240571753462486       3.493760131854458
   268   1      8.8859246292494802      11.482763937534306      5.5490112883762235
   269   1      7.6384646175161981      12.719625061938931       3.612778718126064
   270   1      9.1254226261204625      13.939748446650754      5.3009319740838032
   271   1      7.8173230610669791      15.305491464363941      3.4924857115425536
   272   1      8.8716332342550039      16.511727274489932      5.4913064805865082
   273   1      7.6991391113724088      17.750289203526773      3.4789667789737666
   274   1      9.0662946633295167      18.986529055156264       5.487234460969642
   275   1      7.6169041168930418      20.281071899884765      3.8247179382240164
   276   1      8.8579468259409424      21.608072864391861      5.6096241751595066
   277   1      7.6025139934142034      22.884554953935815      3.7608663037774503
   278   1      8.5862996888127388      24.470447234411814      5.6072673211785107
   279   1      10.208771525507789    0.025694568333224508       3.752278400702886
   280   1      11.471659422207217      1.1464926079180786      5.2554747091377187
   281   1       10.18449348847407      2.6084868995598116      3.5369134127583832
   282   1       11.53807611452422      3.6730404663525218      5.2550032195960785
   283   1      10.302813647478025      5.0268758924863119      3.6150113448006334
   284   1      11.454850288223035      6.3959933789665575      5.3479201367049374
   285   1      10.314380957249476      7.6667107206533993      3.6308162321435069
   286   1      11.561178454129786      8.9932901425631879      5.3100463360967973
   287   1      10.305655694608411      10.112394829301774      3.5465695579976813
   288   1      11.486624490186971      11.618207201761171       5.425465658841464
   289   1      10.191732289376333      12.821754933125757      3.4944808276328572
   290   1      11.506316213112902      14.136444897588911      5.3914680169377123
   291   1      10.197834309958493      15.392896629845866      3.4851018671354623
   292   1      11.398022959088681      16.732358670695106        5.42322144902404
   293   1      10.212447490123919      17.848750884850798      3.6428994138521618
   294   1      11.465771171242141      19.093954216093458      5.4891210720155339
   295   1      10.180325354815865      20.504925274421144      3.8054871014448768
   296   1      11.612382258286328      21.698880338757469      5.4708052362988226
   297   1      9.9684548432650271      23.207923943154277       3.698836171497716
   298   1      11.379041546589924      24.101640638954624      5.5011028921277276
   299   1      12.676422264159987      25.401577692973191      3.5127710615914554
   300   1       14.04676622615338      1.3144869690945109      5.3165861617850947
   301   1      12.718443105028877       2.481289606164629      3.6322127938597304
   302   1      14.058503371462539      3.8340345833925902      5.2315699991432769
   303   1      12.680479821986058      5.1750414558008941      3.5251677730030462
   304   1      14.085978367243548       6.397785762674534      5.4387072355152801
   305   1      12.778287667095341      7.7706672120334908      3.5503958246493319
   306   1       14.05624788470309      8.8890116245687807      5.2330430694242462
   307   1      12.828778706412642      10.197207488188482       3.629630382166932
   308   1      14.106396026409197      11.435840576512387      5.2823970977116845
   309   1      12.676827057402281      12.924815063528619      3.5415185226525976
   310   1      13.996197538721578      14.111861559975987      5.3254564293099147
   311   1      12.776220872827425      15.633973509504949      3.7089708666063332
   312   1      13.995144304559105      16.455391877143729      5.5927627055824161
   313   1       12.60230693857655      18.034690476484212       3.558523136942688
   314   1      13.944451013913875      19.239437218700413       5.471629864478694
   315   1      12.545784080908396      20.463327579933548      3.4848338844185394
   316   1      13.991804762311107       21.91974988999112      5.3075984609093725
   317   1      12.651885469228496      22.973500686967057      3.3918408719410862
   318   1      13.934123745423731      24.368634486145986      5.3876909734247267
   319   1      15.199272034610297    0.059697446916924031      3.5490246152074159
   320   1       16.44553694914498      1.1365598598151503      5.2711977622535269
   321   1      15.150949940656925      2.6132503135052056      3.4343800205622546
   322   1       16.60421337496534      3.6634481052711516      5.3003920446853492
   323   1      15.155816088821458      5.1466904369600943      3.6092362140625145
   324   1       16.44750958191057      6.4373632599113195      5.3791858856692381
   325   1      15.279417601916329      7.6355610163472383      3.5148177787288648
   326   1      16.514589168112256        8.98885490569117      5.4016916539705528
   327   1      15.368126759910787      10.284994475035282      3.5279384719731968
   328   1      16.458889720508903      11.422832649931529      5.4642904008585216
   329   1      15.402546949771686      12.646569785623425      3.4787344535972928
   330   1      16.378361764142269       14.07785250673315      5.3185283190664974
   331   1      15.251148952893072      15.232933584505641      3.4781020800042466
   332   1      16.696238292200469      16.583427043588902      5.2538794327882741
   333   1      15.026024908587871       17.79251848986852      3.5263520651472842
   334   1      16.647323986639371       19.04961466742461      5.4216203556413864
   335   1      15.082549093683772      20.669844887438941      3.6197806881186043
   336   1      16.440445836810589      21.603285320498134      5.4456520837349176
   337   1      15.192574700466059      23.090639811990002      3.5842875537083034
   338   1      16.420256252730649      24.165808259170259      5.4774418692531022
   339   1      17.845896795277771      25.455630572486736      3.6243593455209706
   340   1      19.008866277404032       1.437244330052345       5.339032300920862
   341   1      17.845124771028939      2.4779605030963778      3.5423134215163827
   342   1      19.308099758193592      3.9558309376621463      5.2830837126925108
   343   1      17.958039095028926       4.939594542008189       3.594517282469623
   344   1      19.098267399432377      6.4246029313082724      5.4523942913483632
   345   1      17.790716433809493      7.5850805492636786      3.5524437027654021
   346   1      19.131597867288715      8.8195229283653607      5.2534884317738193
   347   1      17.765506842907524      10.284065858346853      3.6508253867548666
   348   1      19.182609749196722       11.27925433526636      5.4128784231827529
   349   1      17.727007707238073      12.809423361243969      3.8552883329807606
   350   1      19.081538329337103       13.94598634117731      5.1919696110679254
   351   1      18.012617280125514      15.254889163677548      3.5551460091824989
   352   1      19.143027216861228       16.56744315163661      5.3983103319444492
   353   1      17.899245438710444      17.860632598807793      3.7376414952773005
   354   1      19.213929417125748       19.05631193464772       5.354906746666992
   355   1      17.750549127620893      20.497958279158809      3.6131767793369023
   356   1      18.910971984611656      21.661511893062983      5.4691897443150008
   357   1      17.708236854809151      22.901757220350866       3.683514265354936
   358   1      18.914199014233731      24.186326329131212      5.4678493448712224
   359   1      20.382063960032173      25.494793430916847      3.6314745585712429