dump/Fe_750_5/steps_11 (written by ASE) 

1995 	 atoms 
1  atom types
0.0      28.699999999999999  xlo xhi
0.0      28.699999999999999  ylo yhi
0.0      28.699999999999999  zlo zhi


Atoms 

     1   1      28.679537909298222      28.687585710683834    0.018400352945934614
     2   1      1.2563067512386055      1.2171849086731172      1.4836985122777366
     3   1      28.573100205262609      2.8940637417417387      28.557668463639423
     4   1      1.2411789999475908      4.3255316532643029      1.4214171410132492
     5   1    0.092557592560695248      5.8665609279862316     0.14211638013759958
     6   1       1.458474323961479      7.3793421700122019      1.3698565643837242
     7   1    0.021286094970187151      8.7129344400441848      28.550368516677196
     8   1      1.4260554823650304       10.21993746026871      1.3355928830855064
     9   1      28.585640612230055      11.676412451735855      28.678633996686102
    10   1      1.6245999993085782       12.89938139823197         1.3827707378873
    11   1      28.677657154851406      14.304362477345165    0.070070352124525878
    12   1      1.5254184537548565      15.691699143187828      1.4755885352771312
    13   1    0.099600818398426966      17.240306994139495     0.16039543069056211
    14   1      1.4341190381971405      18.706955889096712       1.376281251250066
    15   1      28.675164620697899      20.103350399324906      28.699606940856402
    16   1      1.6788021762319663      21.411313551136807      1.4897724161249355
    17   1     0.22544730588505354      22.927749395239967     0.18829831456871488
    18   1      1.4932151760518213      24.444259936659208      1.5331941347037399
    19   1     0.01358968239049195      25.672770293587636      28.555956767536319
    20   1      1.4592794581924993      27.183345780571873      1.5312448743147098
    21   1      2.8408850978208768    0.098531543202308905      28.624794587308205
    22   1      4.2896621655335645      1.4076554714955931      1.3208431897476887
    23   1      2.7738968719063797      2.9130635718825002    0.033516291032719928
    24   1      4.3534132187625563       4.207705159604493      1.4690800236548172
    25   1      2.8505339288623088      5.5880361879569067      28.678984150207615
    26   1      4.1766832675285457      7.3363266547834849      1.4339483353389713
    27   1      2.7918919032935525      8.6143594290862087      28.589248321771692
    28   1      4.2431386827424999      9.9314666729517747      1.3464682382620701
    29   1      2.9384142124188024      11.576640438740819      28.647635874083125
    30   1      4.5238806912142762      12.989583365345323      1.4884071068941582
    31   1      3.0607937899278852      14.429873031246407    0.059570774975213778
    32   1       4.480523530592845      15.716568230404185       1.543222409274426
    33   1      2.9889891943135707      17.144285551541635    0.017353473666946694
    34   1      4.6025278112513606      18.512269027999171      1.4657864323320051
    35   1       3.058866608023493      19.924349080237668     0.17562107489742398
    36   1       4.344837580164767      21.526550005827332      1.6142732773021617
    37   1      2.9358184974352719      23.089041537010285      28.566645181732191
    38   1      4.2005604016145668      24.395698896908424      1.3991985344933713
    39   1      2.8018388484874923      25.825254837479957      28.576339171977708
    40   1      4.1578402825929217       27.14794845057348      1.3307108389625226
    41   1      5.6855230803613956      28.638513446489313      28.530821645336406
    42   1      7.1614431663763432      1.5496926415117269      1.2366278791399381
    43   1      5.5958534852308723      2.8751515671334298      28.679237628196265
    44   1      7.0388757046597918      4.2619164376793197      1.2940993543068326
    45   1      5.6342998023245672      5.9158176577734487    0.019697440117101898
    46   1      7.0989611965994985      7.2277033930522796      1.3706247222109584
    47   1       5.648010448069229      8.6251759900893479      28.607011998050314
    48   1      7.2287473713942783      9.9820856315291664       1.257359948170427
    49   1      5.7378699369961401      11.449207394676522    0.084182958189694401
    50   1      7.2498758345050609      12.762939219669851      1.4756375217664979
    51   1       5.805100772003513      14.183320607274105    0.023200439215804634
    52   1      7.1433864687285524      15.599961914595509       1.410379950104744
    53   1      5.8942146285083119      16.853731746586863    0.032323112789765629
    54   1      7.1971653502459052      18.580669842745781      1.4033933164467611
    55   1      5.7742701440561408      20.030321721297764    0.052162409578068038
    56   1       7.106706021651771      21.460904245095545      1.6352872544458714
    57   1      5.6752784857666594      22.895195928783572    0.023412801396398196
    58   1      7.0976590790952283      24.528275760159776      1.3596633675161798
    59   1      5.7958901501706039      25.858633842927254      28.669080121039233
    60   1      7.1465866040772736      27.251979865045254      1.3638441828125221
    61   1      8.4820757064337009      28.653389538886188       28.66275565005607
    62   1      9.8309289385660499      1.4210873196996996      1.1638523798607694
    63   1      8.5008478021238574       3.046282964467351    0.037248395002348014
    64   1         10.079763928373      4.4923925219333176      1.3774770924307067
    65   1      8.5098247095543638      5.7992811684633621      28.677610311608788
    66   1      9.8166956097367049      7.1970688631290143       1.540942834861095
    67   1      8.6606986041296317      8.6105093541593014    0.012075208836449736
    68   1      10.201253001503218      9.9590652601441789      1.3455697213038327
    69   1      8.6586357917209025       11.46471138539559      28.614176932939987
    70   1      10.021562926420005      12.825413706017148      1.3365249050632768
    71   1      8.6060130701319011      14.247151004112716      28.633507439074936
    72   1      10.042649249543908       15.70821602030089      1.4346264562114925
    73   1       8.614609687007091      17.159211319745879     0.15471178116262072
    74   1      9.8774226728785841      18.533289928729307      1.4799293930670727
    75   1      8.4872163522161053      20.244544289115296     0.11921733232775281
    76   1      10.044668922827398       21.46178045038247       1.461938700499104
    77   1      8.6062907075599551      22.933055980412838    0.027097120531254858
    78   1      10.035073081608916      24.324777074246867      1.3005324168383028
    79   1       8.638858264852793      25.825683904210315      28.663108046878463
    80   1      10.157111004824298      27.228037002301583      1.4788645643433831
    81   1      11.418190211631487      28.659215852939695      28.694622198553251
    82   1       13.00257617552132      1.6138319021673273      1.3325253047046421
    83   1      11.427984536231248      2.8898835267441023      28.602482507185261
    84   1      12.888754402463316      4.4359439800151454      1.3668684697665985
    85   1      11.282707533942817      5.8161977170309092      28.651658009499887
    86   1      12.903237240708094      7.0123744930792542      1.3263230921102822
    87   1      11.561557158950952       8.556511195720411      28.532481236163338
    88   1      13.008791841715068      10.000558751596268      1.3345249837944722
    89   1      11.475960043097233      11.422720121037031      28.604220827315846
    90   1      12.780382187842433      12.949895076237311      1.3626638308476355
    91   1      11.542774251583323      14.363907405923863      28.698223225354582
    92   1       13.07442470247168      15.626217199631846      1.4907141664482182
    93   1      11.428056485995105      17.273546793151123      28.659145117005608
    94   1      13.128652895859187      18.659449516314986      1.6754601928389201
    95   1      11.418641560302383      19.930484579173765     0.10843731809433169
    96   1      12.991197923700698       21.57815632094389      1.5468582131124207
    97   1      11.680487490568138      22.860751341349978      28.562446811908885
    98   1      12.980606333262344      24.349754445718247       1.480185195886123
    99   1      11.566568700274345      25.750335066946917      28.629229540953762
   100   1      12.875889458910372      27.238199071894652      1.4156544170674685
   101   1       14.34893402168313       28.69249661300093    0.070298859303716141
   102   1      15.784233156735663      1.4199566167904076      1.4633547346586628
   103   1      14.278754047351564      3.0548333947832864      28.655625346425513
   104   1      15.822528431467264      4.5087558113024668       1.526813769095827
   105   1      14.285412175278205      5.7035024977367872      28.573649435876519
   106   1      15.792530096258044      7.0615586736163287      1.5616720437658393
   107   1      14.217322662357752       8.419581422438009      28.551440249337023
   108   1      15.665885693936659      10.079216867522696      1.3698621876318058
   109   1      14.357455988014692      11.512086751798977      28.640917177445523
   110   1       15.90352942109214      13.051541960184263       1.298184281026364
   111   1      14.382764202754812      14.295322139549365      28.647917457251243
   112   1      15.744779306981247      15.929459161203493       1.377372272225136
   113   1       14.31003477819548      17.317325102310171      28.688811438919537
   114   1      15.782697830956444      18.789136215064349      1.6948820764158303
   115   1      14.307921833029004      20.082531101873858     0.03128292957152335
   116   1      15.784424074040381      21.529516620202937      1.6413330080280615
   117   1      14.325325649983395      22.897240122975496      28.671721432745514
   118   1      15.585911062492094      24.420477300072811      1.4692213721625864
   119   1      14.306862030683904      25.905916760146216      28.561389880300183
   120   1      15.929175189769392      27.323299047706801      1.4031498060411776
   121   1       17.39034822558871      28.632147115719807      28.666113390070279
   122   1      18.723903714010063      1.4052082610098398      1.3606282435791734
   123   1       17.31059879228032       2.885017391349685    0.018695411964199576
   124   1       18.71316833524391      4.3345344946456628      1.5059784326810575
   125   1      17.109703051775522      5.7807464165615441    0.012583599772472085
   126   1      18.654707528511913       6.910526751813677      1.4286015558039689
   127   1      17.085606129044773       8.530488944193019      28.677614619935373
   128   1       18.30757607650132      9.8662721136630207      1.5305849789208072
   129   1      17.180634856035532       11.56405321864977      28.663094999766745
   130   1      18.547259979754184       12.96515512648277      1.5737819340646637
   131   1      17.222321007245036      14.377939178905594      28.655626868243559
   132   1      18.603631915082584      15.680033523737084      1.3889427623326471
   133   1       17.28248990082901      17.312960861657864      28.624495681086813
   134   1      18.658386025275775      18.672511045225647      1.3991245845407656
   135   1       17.20508435035466      19.974403083883445    0.013586046687748866
   136   1      18.483656458479828      21.600944259986573      1.4512142457229409
   137   1      17.057737471280721      22.933223131546519    0.054542151319037765
   138   1      18.594668958921719      24.309614944034475      1.5303225018398607
   139   1      17.002976192901102      25.693366447479082      28.652558691790844
   140   1      18.721859890685696      27.087201639707519      1.4449005382304221
   141   1      20.244253141849999      28.575283118241686      28.586370435276251
   142   1      21.536705944048062      1.3635980774173153      1.5024187783259193
   143   1      20.244093362006272       2.781769952101091   0.0017853551857911032
   144   1      21.559700154615609      4.2312015498653386       1.371027275319215
   145   1      19.985375024286409      5.7202054570028826    0.043559414867479621
   146   1      21.612043352185871      6.9877337685484662      1.4206878038324249
   147   1      20.039258465366078      8.4802363913941541     0.20950931295250255
   148   1      21.490436001005769      10.075106832386235      1.5452818504150385
   149   1       19.96679492035484      11.439926159041482    0.020348189949436341
   150   1      21.459332716789593      13.085516669977855      1.5204198126252664
   151   1      20.020120607036851      14.376499274497831     0.10052847804843158
   152   1      21.413945193392941      15.751452921669998      1.3295761962172368
   153   1      20.026904653462474      17.189091292714888      28.614288572401936
   154   1      21.488253399088521      18.595720142313365      1.4175870458616597
   155   1      19.987627450529196      20.058014892470649     0.28524745620201208
   156   1       21.55319941621277      21.438352200816489       1.667640820905786
   157   1      20.203619350416297      22.950303674669414    0.034902254648068211
   158   1      21.512761281119495      24.623275579560698      1.4540641076646359
   159   1      20.117001712124257      25.770926644561484      28.637503795144312
   160   1      21.552876067535628      27.231034335506347        1.47743097959508
   161   1      22.845557663048417      28.692472029307826    0.065191741925445912
   162   1      24.493962253617376      1.5674626115594026      1.4698787214633746
   163   1      23.065903353599609      2.8211602425340514    0.068117378984709376
   164   1      24.589261414040404      4.1311719685566208      1.3088567901219121
   165   1      22.939681444910146      5.6509043163100579    0.064022719374565926
   166   1      24.375988188036779       7.172167269754163      1.4999417915265782
   167   1      22.913693421177165       8.780932371081386    0.037856739075437025
   168   1      24.336824320416962      10.139573350669194       1.358260577026682
   169   1      22.932575653505683      11.701525920854927         28.625519619776
   170   1      24.311288530206724      12.932925660910303      1.4204289047285437
   171   1      22.978312858510254      14.319054167852475    0.033836911685591588
   172   1      24.251223841948114      15.681914129926575       1.679388598722515
   173   1      23.011181016698131      17.097865979398261     0.10882218426091868
   174   1      24.509391394271816      18.654091834060246      1.5519518916653061
   175   1      23.095903699497299      20.076453490803072    0.063698832290992768
   176   1      24.482647789736912      21.682993344284707      1.5205963437601091
   177   1      22.864354385355618      22.975194825155899    0.033260826903369865
   178   1      24.467862887418313      24.371394618110358      1.5762751232358936
   179   1      23.024272900056854      25.771776027283703    0.085026558030733557
   180   1      24.361546709872112      27.207008894887128      1.5845681091532127
   181   1      25.922856572888037      28.474563740444101      28.608438794228988
   182   1      27.371761978602283      1.3581002990167699      1.4375577923465934
   183   1      26.093647975844885      2.7293118492107946    0.035741222636738783
   184   1      27.258245278028905      4.2753750283982992      1.5053915983452943
   185   1      25.791597564402245      5.7611898378698116     0.10407923862017009
   186   1      27.057281705240026      7.2343584285507339      1.3702100095640053
   187   1      25.729120007950879      8.6631911565565112    0.025309463304176903
   188   1       27.27904573484048      10.056583939759566      1.4573207487481561
   189   1      25.810339043089122      11.547357129861316      28.604100205930521
   190   1       27.10610629843109      12.818139645287141      1.4852839518153365
   191   1      25.854743631239909       14.28262860096936    0.030356965223290996
   192   1      27.279437055097684      15.724222341911966      1.4812083088146324
   193   1      25.666727320280391      17.223387107029872     0.24368435860860704
   194   1       27.34728672564972      18.616663085332949       1.409670240612412
   195   1      25.720719617060766      20.086940413095949     0.11272846829056112
   196   1       27.31775053865125       21.52911206388459       1.536177681368452
   197   1      25.751994940429654      22.976813787929316    0.025859614129024079
   198   1       27.40791526693933      24.330084783713055      1.4344470492404642
   199   1      25.823633359818963      25.851216354126304     0.09199711084679621
   200   1      27.441634809052907      27.127035883784465      1.4547093320908411
   201   1      28.637386163114925      28.692215308339943      2.9804765148331684
   202   1      1.4803420012719124      1.4144736381309722      4.3178281221875512
   203   1      28.559845549188523      2.7764547884597506      2.7328852392028247
   204   1      1.4777624011418422      4.1776979973135528      4.2525324003090219
   205   1     0.11871418834293804      5.6508004693981189       2.913014218887974
   206   1      1.4563801595683914      7.1731687542866602      4.1884766982193735
   207   1      28.596922613562743       8.661080594013038      2.7638920693576674
   208   1      1.3564266576703652      10.065401079222937      4.3738966742936354
   209   1     0.13623640775822493      11.685213837281328      2.8530229408899443
   210   1      1.5533783867435094      12.902117958845631      4.3454835343907199
   211   1     0.12330373922858466      14.336920094017179      3.0232493041244628
   212   1      1.3738941640214661      15.898694659239485       4.258060142390125
   213   1       28.59641793634167      17.286967304867471      3.0196061135144867
   214   1      1.3141127738373277       18.59659127228932      4.4109782122460821
   215   1      0.0668851248096545      20.135377642418078      2.8077421276502355
   216   1      1.5123338040313121      21.366757122017983      4.4439214300559664
   217   1    0.042799850703649375      22.939257197895117       2.903378208594142
   218   1       1.539966690470465      24.302255535532989      4.3147253893376831
   219   1    0.014544131435458836       25.73313866210848      2.9720072119422056
   220   1      1.4013170084821258      27.138607463707157      4.3588101384487974
   221   1      2.9848148673640811      28.563364454201633      2.9840767098098699
   222   1      4.4277122310767663      1.3714473060793138      4.2738062240544368
   223   1      2.8288359764375381      2.8377312017551839      2.8015658480735617
   224   1      4.3086589252244556      4.1732699062904031      4.1920336489169348
   225   1      3.0172987767877846      5.6540997296679834      2.8427398702180868
   226   1      4.5000722673763622      7.2455104179319507      4.2003151124738292
   227   1      2.7881792951262807      8.6836207258787894      2.8266779438423439
   228   1      4.1704113467810657      9.8957590188419662      4.5527459087721303
   229   1      2.9532707344906881      11.443568607723856      2.7043645145722599
   230   1      4.3828462742239473      12.770528079960778      4.2444560551404056
   231   1      2.8057238710406627      14.450570208940647      2.9734327578585602
   232   1       4.186586666620145      15.923707906949806      4.2926544785394904
   233   1      2.7836000340182525       17.29292309749237      2.8865253420330692
   234   1      4.4149516528378889      18.639423093658721      4.3430744071460277
   235   1      2.9858151135744948      19.871447297701302       2.937848921208734
   236   1      4.2693158095619594      21.346618298429579      4.2915816728500245
   237   1      2.8763207029756646      22.817274653285839      3.0356557795208374
   238   1      4.2177940652270909      24.389338888544053      4.4464989388865179
   239   1      2.7351737243400778      25.835819159118348      3.0002432843887763
   240   1       4.265830728356562      27.112184343129609      4.4070566375264919
   241   1      5.7169989696765455      28.592539627587517      2.7410843599012993
   242   1      6.9981577679412048      1.3601461493208369      4.1379783629001654
   243   1       5.824374004536673      2.9029538605494061      2.8899386663296336
   244   1       7.222033416342323      4.2730525204332377      4.3592659437394685
   245   1      5.6198052649141346      5.6506339674531576      2.6827403463068213
   246   1      7.1644998539369631      7.0753155610323981      4.2279659454472656
   247   1      5.9061903457781524      8.7382441220514195       2.702308882180898
   248   1      7.1230589302401901      9.8159704421819711      4.4411198632235145
   249   1      5.8249517719674815       11.25434435866492       2.841631073970496
   250   1      7.2592703415383548      12.752199638786498      4.2936954373869494
   251   1      5.7882365709025381      14.275068519168569      3.0758686815560576
   252   1      7.0448700050567519      15.598067927909895      4.4931336701486115
   253   1       5.905974412707331      17.186493052888913      2.9236980831476398
   254   1      7.2166840943065456      18.640607280928901      4.3810351139879744
   255   1      5.7942910157682235      19.966260466420444      2.8799016920606864
   256   1      7.1863786863652255      21.591008843358917      4.4325628685176195
   257   1      5.8273558320223415      23.069490703282586      2.9695882921202963
   258   1      7.1743912234541858      24.422478396808909      4.2356997996914627
   259   1      5.4683842724099714      25.779157821509298      2.8548208371807502
   260   1      7.0829876041536117      27.239543902263872       4.399655269272631
   261   1      8.6299780334037699    0.057676863027586664      2.6437699265212364
   262   1       10.05648243883571      1.4494166525898087      4.0379546987568951
   263   1      8.5652456654144427      2.9045103025349004      2.7503258709538829
   264   1      10.197402571311526      4.1922019315678067      4.2320155869177558
   265   1      8.5238238827544599      5.6009330480488053      2.7362653261414032
   266   1      9.8622761389609312      7.3345717100519074       4.089144841003832
   267   1      8.5978925992712956      8.7579616784239818      2.7075784606221309
   268   1      10.075710978189028      10.028570090260345      4.3686973438573897
   269   1      8.6244092110025754      11.425930861794775      2.7181171628839138
   270   1       10.09410767767271      12.866904808072691      4.2049843645406959
   271   1      8.5527297916692575      14.361677025475604      2.8509725270306938
   272   1      10.088928697553049      15.823183535454035      4.2341938422078673
   273   1      8.5890268828504084      17.137972044780572      2.9572559078649183
   274   1       9.772724449580334      18.473393968413831      4.3461280046570341
   275   1      8.7029078738395942      20.079092775361641      2.9121227731127219
   276   1      9.9371045965545193      21.715918377192317      4.2692514840962899
   277   1       8.544996793541328      23.106853918070325      2.7434155859342932
   278   1      9.9351254580097432      24.320124977841203      4.1453513058861571
   279   1      8.6296775348011217      25.831968633274062       2.685637101741714
   280   1      9.9893656617373114      27.364297973045485      4.1934579708120969
   281   1      11.546029902393522    0.089961509580871304      2.6857766021861047
   282   1      12.885780677378976      1.5460707035327237      4.2087655311537322
   283   1      11.663696572367192       2.934624224378489      2.7479980921766458
   284   1      12.910211029826051      4.2307318034067114      4.2450195052499211
   285   1      11.450769009602849      5.9161157990595203      2.9093718328450442
   286   1      13.055536858513948      7.1841906954045758      4.0983644709784128
   287   1      11.476622599673412      8.5681721803007029      2.7993311004228989
   288   1      13.119824458611474      10.076009747230373      4.2276086061038365
   289   1      11.563154259322712      11.430146010737724      2.6774558064358178
   290   1      12.801745983397256      12.858172211076305      4.2849521458610571
   291   1      11.477519156311232      14.386152818994557      2.8314620566037663
   292   1      12.939058858248863      15.615125516437367      4.1414948742864555
   293   1      11.484367875173247      17.283434773448267      2.9246895953774126
   294   1      12.919653618639403       18.58744099249818      4.4899603581966083
   295   1      11.413485870156054      19.980988088331092       2.862244567056337
   296   1      12.934272951789072      21.544784112655591      4.3839183404916628
   297   1       11.49490455997625      23.049885648809905      2.8262123414619631
   298   1      12.978829950307738      24.371712169941492      4.4339406531142673
   299   1      11.448392396184268      25.648556596650245      2.8399296823276594
   300   1      12.836672704709525      27.283968978653554      4.3132633936420088
   301   1      14.348376050713062      28.661663205171795      2.9512609983596225
   302   1      15.882975752960824       1.446420487621946      4.2399092878150126
   303   1      14.409217989672616      2.9179037582649321      2.7743179110418623
   304   1      15.879252764613209      4.2185112179674205       4.261871169053574
   305   1      14.493379403751241      5.8551567282107637      2.8580348683149719
   306   1      15.770525514168243      7.1068602686664848       4.409005399684097
   307   1      14.370490870252334      8.6278898975228824      2.8155969412059574
   308   1      15.812048262722636      10.108064667092485      4.3083579693843719
   309   1      14.478438394203812      11.462288807151934      2.8740954552965041
   310   1      15.718443451250312      13.086928472214453      4.2527201226614588
   311   1      14.401613258276607      14.099166799665651       2.703751524548192
   312   1       15.69042267542061      15.844612225476366      4.3037727033673168
   313   1      14.287718301057799      17.313043494603154      2.9609162549485628
   314   1      15.731165650930995      18.702353605040603      4.4763171870143541
   315   1      14.409449346291817      20.209125648127255      3.1282103111525341
   316   1      15.888744275410147      21.613389319932239      4.4587882892619115
   317   1      14.308638746572596      22.832617521996841      2.9518019537312354
   318   1       15.65104520834551      24.542402622029147      4.3702341589570475
   319   1      14.279522134509541      25.795732736178966      2.7967170183318442
   320   1      15.807354509324188      27.319019666722319      4.2696110660945665
   321   1      17.310630608422539      28.691906091509512      2.8226852926571144
   322   1      18.731412293334341      1.4992530925449843      4.1963324799036803
   323   1      17.324633879196025      2.8513797459474071      2.7449283595990437
   324   1      18.697516469896634      4.2211695476491391      4.2806290378186542
   325   1      17.457214595313125      5.8346672478609714      3.0671566749996182
   326   1      18.687938644403612       7.262439049101082      4.3536196220789352
   327   1      17.127373673768123      8.5044630509331895       2.949867162955254
   328   1      18.500504873409952      10.117037549987653      4.1942495170027803
   329   1      17.175172836370294      11.473666354244285      2.7616803461592307
   330   1      18.737944319088477      12.914835382956833      4.3223154150594656
   331   1      17.236691846872166      14.466924054843656      3.0952926453715244
   332   1      18.612087857073906      15.986944822255793      4.3452410479404495
   333   1      17.098834811869072      17.152545598171905      2.8845805405640905
   334   1      18.777289232472445      18.627470239671236      4.2997670165554664
   335   1      17.219250877651685      20.211568859811479      2.9801810824708719
   336   1      18.522206313940881      21.685062620481123      4.3418256344554242
   337   1      17.194252804422995      22.915751126008992      2.9985669520608154
   338   1      18.742783232833833      24.345499590428737      4.3595875969777991
   339   1      17.207176810026233      25.830847177266044      2.8590775540416864
   340   1      18.453066899359342      27.245938354042369      4.2375390073224946
   341   1      20.040489806204942      28.542815552021015      2.7928250143295248
   342   1      21.382222932554605      1.3625264873766367      4.3411187644548148
   343   1      20.051671569126356      2.7419514681087764      2.7932567836831246
   344   1      21.552596818849299      4.2346094114246213      4.1751984479032735
   345   1      20.255344561347272      5.7907922046684837      2.9090429546669632
   346   1      21.427976869651886      7.1570568642843195       4.382514553232598
   347   1      19.963973897568714       8.633563082017778      2.7292653436300842
   348   1      21.393085170188378      9.9868803280410834      4.1546127034857028
   349   1      20.071048781867145      11.523360742141266       2.943375072633005
   350   1      21.590987916565417      13.038181603821386      4.3842138533051118
   351   1      20.035701503359629      14.435841821995172      2.9815221688413409
   352   1       21.48067743126181      15.778554374393705       4.286833247384628
   353   1      20.215339413126028      17.263458331763719      2.7996536560441534
   354   1      21.491796829602468      18.639590303836258      4.3830436935793244
   355   1      20.088344485192007       20.05482333948294      2.9569325937148809
   356   1       21.52309408967702      21.618137806461164      4.2276249883023631
   357   1      20.124188741602186      23.030480608822547      2.9460236697177544
   358   1      21.516122475030915      24.537889046336733      4.3056280139458147
   359   1       20.00078991919262      25.724182237676835      2.9080037507817984