dump/Fe_750_5/steps_1 (written by ASE) 

1995 	 atoms 
1  atom types
0.0      28.699999999999999  xlo xhi
0.0      28.699999999999999  ylo yhi
0.0      28.699999999999999  zlo zhi


Atoms 

     1   1    0.050369613924182925    0.021769395170453575       28.60194443843179
     2   1      1.3165185793629688      1.2370586470451017      1.4939750360189445
     3   1     0.10773379699852691      2.9401228041877192      28.694258807479457
     4   1      1.3642276455032638      4.5212938391316158      1.4919368480542063
     5   1       28.63114424235987      5.7827887299804148       28.65716455032301
     6   1        1.41916231999678       7.326363450014032      1.4411548471601676
     7   1      28.664868419285174      8.5437996525346165    0.087688836707150122
     8   1      1.4186408251402105      10.065726141421413      1.5350033997939585
     9   1    0.011887030365701528      11.847289300831417      28.584262421282762
    10   1      1.3954077106119265      12.985087129972975      1.2901623466484797
    11   1    0.096606196750545006      14.391436584789446      28.587643784471982
    12   1      1.4276853384612755      15.828949239326231      1.3779907519373302
    13   1      28.613931755871963      17.154216730415687    0.017608087722771865
    14   1      1.5463948961231941      18.712918061005698        1.35987684129775
    15   1      28.610704415424792      20.149862347953967    0.062660778556949043
    16   1       1.649541750720688      21.822079405030888      1.4381148885143029
    17   1    0.014829872899532833      22.918779625289559    0.020723719989905461
    18   1      1.4263708882641262       24.46633682919067        1.25519698394546
    19   1      28.639294283929573      25.983157666788394       28.61416729438054
    20   1      1.4048114220516157      27.322063258920714      1.3776733938226235
    21   1      2.9696086958915173      28.552178330140112      28.585766841435245
    22   1      4.2684417588470067      1.5539734381358352       1.424113822295793
    23   1      2.7455691893499661      2.8274567944860789     0.20237702932022311
    24   1      4.3677777711886776      4.0863113695677793      1.3832773194014281
    25   1      2.8777103656445275      5.6999642702076354    0.020750228629663053
    26   1      4.3102256355411255      7.2312465109529143      1.5380150548585327
    27   1      2.8906839001470597      8.5538988859857259    0.027361828716686881
    28   1      4.4131764710190984      10.087797098414496      1.4889725812719912
    29   1      2.8091525090593676      11.428779487695094   0.0091745867928579947
    30   1      4.1717140863926794      12.938462203455142      1.4296133289264161
    31   1      2.7388129207425678      14.374739410003329      28.687899438968859
    32   1      4.2767098439340279      15.803906027746059      1.4876198815739263
    33   1      3.0438621941642969      17.230251807534529     0.10799027230275428
    34   1      4.1866393423289017      18.610485576694046      1.5434606402703475
    35   1       2.996345763303784      20.146192416685643    0.029628964842743251
    36   1      4.3191990976507117      21.517149043450519      1.4467920179309772
    37   1      3.2365459654597539      23.041086784827719      28.641954172961466
    38   1      4.3764325455745121      24.383802934675785      1.4537244826639726
    39   1      2.8632364651854378      25.730402162499665      28.620167344144722
    40   1      4.4563684071061305      27.273061710125774      1.4823605740479926
    41   1      5.6740778311026947    0.042624397210433304      28.695136622285546
    42   1      7.2430030488560728      1.3950571886960696      1.4040025864635473
    43   1       5.984105051805737      2.8145691450390475      28.571885374328733
    44   1      7.1811854767493957      4.2333501299694856      1.3576264633473334
    45   1      5.7303860152269062      5.6833164232989235      28.599495962160862
    46   1      7.1884977139586033       7.016573105319722      1.4149350659258062
    47   1      5.7507200874543525      8.5453510066962721      28.632578904217954
    48   1      7.0189900588763905      10.127043922484162      1.3053386655229235
    49   1      5.5674016925434691      11.472570855379182      28.599980026015817
    50   1      7.1956723959924824      13.059951336565639      1.4342158180241666
    51   1      5.7447779061564557      14.348816630860432    0.086715350839619829
    52   1      7.2030824445961565      15.878100376616541      1.3084811106511653
    53   1      5.6570124352985225      17.187249828457645      28.693655346658421
    54   1      7.1716017501211109      18.485391471239581      1.3173551216399799
    55   1      5.6768853174172262      19.905220107583734      28.698913115727596
    56   1      7.0540456697326839      21.451175577041997      1.3170129926169005
    57   1      5.8981673456418156      23.116873629135782      28.566175599903644
    58   1      7.1267241656919751      24.233226005782274      1.4403638092340434
    59   1      5.6654996966558668      25.761467642611599    0.087393177393425933
    60   1      7.0156080541318016      27.315364347599704      1.4409662417765392
    61   1      8.6800314703349759    0.053585641778772737     0.12953277826387657
    62   1      10.072371689288333      1.5529660541125272       1.601148644881629
    63   1      8.6336740671863694      2.7598294654128042     0.02228572301471559
    64   1      10.093514866599074      4.2484946399288077      1.3191465294305778
    65   1      8.6223053397985225      5.7203808619258565      28.656483696832186
    66   1      9.9824468260386059      7.0173308892736168      1.4398185108831394
    67   1      8.4699852250061447      8.6546068667099938      28.642553252638098
    68   1      10.024382760700634      10.036361848687175      1.4947040516431009
    69   1      8.4868131376313904      11.571314433488945    0.073200825877188402
    70   1      10.171441950516002       13.10648466211928      1.4118871656667249
    71   1      8.6331127364626212      14.449221575891031    0.047904295146974932
    72   1      10.107991404248992      15.783445782817182      1.4328193914443881
    73   1      8.8336088889267348      17.035534351040056   0.0010111365543025381
    74   1      10.142226569746075      18.703803489542679      1.3966423641971111
    75   1      8.7296056574002954      20.116870343345358    0.045905561551615022
    76   1      10.251341530247624       21.57105654187459      1.3158927427791931
    77   1      8.5245176998322911       22.94470571692753      28.652485187262684
    78   1      9.9750912785403205       24.34659162533902      1.3158591251012794
    79   1      8.5279074781063073      25.857350715032634    0.083978594078757754
    80   1      10.058742771156448      27.135584377826905      1.3935180451361238
    81   1       11.50994212837022    0.018934970980171772    0.068455962557697939
    82   1      13.007264150433612      1.5048276305710133      1.4683095582525663
    83   1      11.592082180526228      2.8322044078244524      28.585148837374195
    84   1      12.878080218458564       4.407653007166747      1.3674398101751093
    85   1      11.482924009838674      5.8840698738799819    0.014840629177729169
    86   1      12.895260749470733      7.0564681078026386      1.5306939921533391
    87   1      11.269493582774544      8.5783979058108013   0.0047263430523116767
    88   1      12.777613850830889      10.031664206871408      1.5802990305016344
    89   1      11.473985225775296      11.516860038719047      28.688649513899112
    90   1      13.000227763261087      12.942575504160924      1.5771896322581929
    91   1      11.579269037037863      14.495278113765416    0.046522272264894575
    92   1      13.013770266580751      15.803444713480804      1.4690171466493882
    93   1      11.559181818025881      17.190784480584039      28.676874960448323
    94   1      12.876427186049012      18.572658992548934      1.4978664515991784
    95   1      11.512736397704474      20.066950786263153      28.589573591126086
    96   1      12.988825279437725      21.639516705923004      1.3422574432157941
    97   1      11.589836370614121      22.989969732622495      28.574588932798882
    98   1      12.839788614217806      24.390029979552036      1.4389710348276832
    99   1      11.449626360102299      25.649652928860444       28.62204421650404
   100   1      12.952962956761112       27.17413306583417      1.3540328546344762
   101   1      14.308136272482281     0.17982367520151177      28.690204207040097
   102   1      15.686119251705888      1.2548758192088589      1.4588407706100035
   103   1       14.39902390812288      2.9678113661521683       28.42151899347752
   104   1      15.862349428010992       4.285596566258536      1.3995663182390907
   105   1      14.326990318260059      5.8071864732195726    0.048717903462591028
   106   1      15.856420043387677      7.2562122658730166       1.376778893382993
   107   1      14.333605407128637       8.532277797495281      28.649367479124255
   108   1       15.70489573102015      10.120467381578957      1.4934620463937776
   109   1      14.159656000555064      11.426782029366635     0.16531544932790904
   110   1      15.624434426436633      13.052485161297415      1.4448184130635588
   111   1      14.287960456574082      14.126137301974765      28.662764348144155
   112   1      15.667098278881097      15.835003568502357      1.3188342543662324
   113   1      14.159430764540911      17.263651397796703      28.663508074914276
   114   1      15.637473819574225      18.716989633762317      1.3367885832800313
   115   1      14.311151718324544      20.028824433005159    0.035050601437831203
   116   1      15.727076699506457       21.39728163172655      1.2912451437640258
   117   1      14.545953968838532      23.033642538773769      28.645024758859083
   118   1      15.771517755326588      24.258665640155467      1.6243210521322102
   119   1       14.28170750999012      25.838497745777364    0.061036587381420253
   120   1       15.89017863496867      27.280387736419978      1.3502310798415571
   121   1      17.142187356661839     0.03405198274426928      28.524560981230795
   122   1      18.697476927995783      1.4003508126278925      1.2679971451900875
   123   1      17.153953108247538       2.863354026206232      28.626200214369209
   124   1      18.712894342582651      4.2188263501916179      1.3810542532287402
   125   1      17.306676977460178      5.7482987213389212    0.016706477279194575
   126   1      18.737054294529017      7.2469273906035632       1.390666063407308
   127   1      17.359376562050315      8.7184454138578023      28.685721324248835
   128   1      18.664975405578822      10.137912240580611      1.3290197643548376
   129   1      17.130554092027278      11.459778869260717      28.656454693767575
   130   1      18.489179393254137      12.844156578799302      1.3483638823518851
   131   1       17.16162688956344       14.39959275076378  0.00072002312763288611
   132   1      18.681491323568622      15.720022104392939       1.470806634242352
   133   1      17.281738492508133      17.221973777908069    0.063294573182201899
   134   1      18.657617297069802      18.599944681502691      1.4143699771014449
   135   1      17.108980415859602      20.087500449794899      28.599027500248567
   136   1      18.581656702697988      21.533217081429246      1.3570360683176204
   137   1      17.025746278716142      22.831653057876942    0.026113814783275308
   138   1      18.608995451553362       24.46881196483023      1.4108160138869823
   139   1      17.239205778181294      25.789011628331277    0.085351922042582462
   140   1      18.855619149078233      27.346704682956055      1.2082929835464928
   141   1       20.01620626286255     0.21275994307122964      28.620960109767452
   142   1      21.437137023613403      1.3760881317004419      1.4052403504126012
   143   1      19.946815377631523      2.8966781859364374      28.504186980354849
   144   1      21.576239185535311      4.2884597343205426      1.4715801289406383
   145   1       20.14418727781138       5.737430414482831     0.21909743266381834
   146   1      21.602459515124444      7.2777161175813809      1.3828465818077922
   147   1      20.069435033955166      8.6867733544626251    0.012468956224608963
   148   1      21.559513126132796      10.059613114217127      1.4368749399199487
   149   1      20.078181852499508      11.570862664156724      28.695848495223061
   150   1      21.560840561761488      12.797913102110716      1.5515467343565088
   151   1       20.08101558588066      14.378378788858996      28.688402548128042
   152   1      21.496944861164931      15.761577291630863      1.6067470044061911
   153   1      20.157262099605106      17.202788158973696  5.7333595100317313e-05
   154   1       21.64217954973806      18.600557909157363      1.6318001009501126
   155   1      20.151743911788671      20.047768810212958      28.694646258013577
   156   1      21.542815538718372      21.601221118790171        1.36356054102033
   157   1      20.081067940091472      22.924985942534356    0.059092294418474071
   158   1      21.482539798144916      24.367936561803198      1.3619207082426665
   159   1      20.161228609246329      25.840495696728468      28.650712971584937
   160   1      21.466364103891575      27.257419114291039      1.3469587030922867
   161   1      23.116607709575849      28.655268742567277    0.042065833524395635
   162   1       24.21201215662396      1.5501775323819047      1.5235353341558153
   163   1      22.828878460204084      2.8223612581792632      28.637484416822765
   164   1      24.299211099760576      4.4326086335737234      1.5333728255918906
   165   1      22.968387238009768      5.7183989919504423    0.033866621545485052
   166   1      24.462391634963478      7.0894019255842382      1.4648332317629877
   167   1      22.925683703875791      8.7457363518738092    0.039885213498041472
   168   1      24.362789136141682      10.254173878917344      1.3183517518583026
   169   1       22.91758344620883      11.630858565419382       28.68113061606163
   170   1      24.541052391010719      12.839055830871018      1.4168896241659141
   171   1      23.049527535230503      14.386204760505311     0.16747441883637731
   172   1      24.332397861038114      15.770594809268916      1.5663747376646251
   173   1      22.795242925988152      17.074515598474587     0.15013807139029051
   174   1       24.35541194504918      18.634415184928606      1.4474166834000797
   175   1      22.803007367602753      19.918580824986599     0.20695446056810163
   176   1      24.631968429017522      21.512439320863599       1.340315870554035
   177   1      23.085561890576614      22.966069375783587    0.036767993797707371
   178   1      24.514197227153435      24.314760307161436      1.4157703714795167
   179   1      22.970093074578458      25.870402237573582    0.045251250705575806
   180   1      24.443766790120343       27.24450998500712      1.4895400414234572
   181   1      25.800839148965974    0.068012453439246279   0.0024786074642861419
   182   1      27.476014839106636      1.5160776854936904      1.4072077571472605
   183   1      25.918924537572856      2.8527633691279579      28.613739315879673
   184   1      27.263334782423669      4.4172515983486624       1.292681233830079
   185   1      25.796628191085805      5.7007760858657051   0.0060901838674908559
   186   1       27.14493139237668      7.0617970699585406      1.4436148400717908
   187   1      25.603318950918975      8.7114694224949396       28.62452819597334
   188   1      27.414161061155003      10.240892351559875      1.2951849895665526
   189   1      25.918444053159963      11.541079368738629   0.0083567241583523237
   190   1      27.183295392995042      13.084938556274544      1.3063391143507144
   191   1      25.737753609546754      14.458569562383628       28.67833794091948
   192   1      27.201016703934148      15.870643752552507      1.3457813772780816
   193   1      25.731967917954329       17.30544429066229    0.064368035535483176
   194   1      27.260151766443904      18.789866827348952      1.2972860459620497
   195   1      25.893010694946401      20.062936277746672     0.15227141369141473
   196   1      27.325249618519521      21.611820189499646      1.3991396800721188
   197   1      25.844773704672637       22.94563937896115      28.504784484781624
   198   1      27.329657846752248      24.470392666000951      1.3409150538673762
   199   1      25.843436420783561       25.84811747507532      28.680780629442751
   200   1      27.188554091422461      27.179909468986523      1.4136780376317695
   201   1      28.497590136365563    0.060891748450888052      2.8108761094154815
   202   1      1.4455852815872734      1.3663319124081228      4.3990893107619655
   203   1      28.658939199120642      3.0196880794267464      2.7853729878844309
   204   1      1.6259589664643717      4.3862436417176607      4.4328508116327674
   205   1      28.669791297317389      5.7850154151600313       2.852951413157792
   206   1      1.4295652638617522      7.2715804729933309      4.1408469145697042
   207   1      28.645225808956102      8.6337432323716392      2.7027266986041001
   208   1      1.2452124120823116      10.082227817232519      4.2857583010064442
   209   1      28.588076608820035      11.649702855199305      2.8804861749822765
   210   1      1.4154453658158126      12.762855145931923      4.4015462587910994
   211   1     0.15571986241627769       14.45451862419651      2.8365593872093435
   212   1      1.4796544895493884      15.702051566108517      4.3933251763057308
   213   1    0.062736557514848482      17.266635727630952      2.9205996999951807
   214   1      1.5108294041098931      18.847943964361487      4.3570852365209953
   215   1    0.023141506379387517      20.191970462575355      2.9548649125344548
   216   1      1.4990860863421531      21.670176173158072      4.1454867974012481
   217   1    0.063914927608426944      23.161182134484346       2.843704822911489
   218   1      1.6165960225683214        24.4777748876582      4.3461828227772523
   219   1     0.07222264222238145      25.919943117453467      2.8599067175895341
   220   1       1.421500122381202      27.414742211652261      4.2393116553424415
   221   1      2.8624704786031305     0.14683708366692397       2.743356333015992
   222   1       4.286443456567425      1.4984494973139806      4.2627681503464041
   223   1      2.7536229592413979       2.811989790663993      2.8701080417634612
   224   1      4.3256809156742406       4.322128911778532      4.1837574671319651
   225   1      3.0752975970466476       5.665372139017852      2.6867750246606641
   226   1      4.3124298853105358      7.3344486221077512      4.1500520352881027
   227   1      2.9803207344631244       8.866536942718831      2.8550370454567418
   228   1      4.2115849065328685      10.025587180421539      4.2931722976520934
   229   1      2.9223351577046328      11.476149980837194      2.7869601915267244
   230   1      4.3499220551465543      13.033140099515633      4.1691965635592974
   231   1      2.7224065922892819       14.35655399643222      2.9200710389359843
   232   1      4.3928596148932151      15.849329671084394      4.4459211335451085
   233   1      2.6945968365900517      17.137853513252576      2.9125690377152882
   234   1      4.2773981591240728      18.534701690875742      4.3031689265918471
   235   1      2.9651926319499471      20.100830815164194        2.93829841697098
   236   1      4.1202759761741854      21.543930700017672      4.3074902399928847
   237   1      2.9813744325694338      23.108644676081667      2.8395170607616005
   238   1      4.4461987992748107      24.436143359002475       4.319685345478816
   239   1      3.0552157375626638      25.750684536256706      2.8515713045937563
   240   1      4.2514149871374274      27.273814139361043      4.2097325810719326
   241   1      5.9088885145996386     0.18900414978147659      2.9414772903146478
   242   1      7.3353479357435942      1.4686033326233423      4.1883844455867587
   243   1      5.8110785367062228      2.9239052376123307      2.8502967407786413
   244   1      7.2948002086634478      4.2057132999877922       4.292318039652149
   245   1      5.6697099999049616      5.6337127169154178      2.8896401698440366
   246   1      7.3155941029807856      7.1473860838775183      4.2550113250100026
   247   1      5.8707311128543145      8.6623509712126019      2.8286145540766481
   248   1      7.2391269098899942      10.042659514915679      4.1737536667201312
   249   1      5.8443678788364757      11.547381183009733      2.8142085226278364
   250   1      7.2950817840481212      12.952810338917484      4.2452874087302384
   251   1      5.6420860440765699      14.450755593200981      2.7962947729836185
   252   1      7.0154335385404947       15.86081677270656      4.0996051750900087
   253   1      5.7421934910682566      17.116158699946855      2.7116918324604842
   254   1      7.1771937734894298      18.734759330794173      4.1393884180802596
   255   1      5.7206177102887947      20.080404730809278      2.8328176133376917
   256   1      7.2500169401421548      21.381750273814166      4.1531310223040734
   257   1      5.7219981205161385      22.937831735369741       2.915788785169287
   258   1      7.3486482716311947      24.297510942733268      4.4299757033126488
   259   1      6.0201147654279907        25.7232082171714      2.9036463059833704
   260   1      7.0941231945426138      27.342393644545535      4.3238966559450276
   261   1      8.7993906770281569    0.036927205285656114      2.8622931779699128
   262   1      10.131568454657675      1.4729612976869939      4.1355928142833118
   263   1      8.6950309361916212      3.0527801713294824      2.8018813528032416
   264   1      10.145984825994377      4.1732918807141779      4.3341214517950535
   265   1      8.7725304159044537      5.6311862226763125       2.859892364299025
   266   1      10.049802997452751       7.205896139122256      4.2708294733088428
   267   1      8.4966017575922201      8.6171136542618925      2.7405635270986974
   268   1      9.9150125087573464      10.041479038138462      4.2620375830070349
   269   1       8.623466652154411      11.486805766727926      2.6541525631061287
   270   1      9.9857313396565637      12.899196366250944      4.2236666380181322
   271   1      8.6870321047268249      14.458947864773675      2.8753833679845475
   272   1      10.003206517169636      15.751377628724304      4.2137706977870959
   273   1      8.6039393983922903      17.314670833263545      2.8503116584540957
   274   1      10.044118856130904      18.642773476551742      4.2650432748123945
   275   1      8.6655677586303117      20.085075804429184      2.8401719844649276
   276   1      10.080579706794817      21.413518017077319      4.2320314650868234
   277   1      8.5994409112063774      22.856593465261643      2.7630855880648255
   278   1      9.9988740369862192      24.228250143669637      4.3712776937784588
   279   1      8.6154107055952593      26.011771010628536      2.9982947363793504
   280   1      10.022444647781406      27.113741484825216        4.38375468550697
   281   1      11.431545352920841    0.016539221719199478      2.7059829127192754
   282   1      12.984328507417585      1.3101927471329089      4.3043823837577824
   283   1      11.655528348624543      2.8595550125290186      2.8950491904982583
   284   1      12.962785881185939      4.5115994380295179      4.4674474504629194
   285   1      11.481891389845321       5.767868064269611      2.8496858993980014
   286   1      13.028956521729931      7.1611266160654257      4.3404695190790887
   287   1      11.397187847299858      8.5831725668544365      2.9826584417137054
   288   1      12.840416512579168      10.079392278175197      4.3316377632380991
   289   1      11.301533519489597      11.484788862762821      2.9300755493553408
   290   1      12.896784669629705      12.844082156874389      4.4585047453704121
   291   1       11.60334579783048      14.307035835970762      2.9334677026988931
   292   1      12.978912043156456       15.64883288909979      4.3229226325356978
   293   1      11.615135565140143      17.164528432434651      2.8390067486197386
   294   1      12.899314571928407      18.744339150560446       4.252320671166185
   295   1      11.516258991719996      20.109918632702257      2.8231092671783689
   296   1      12.864472175571024      21.476283022096098      4.2307642827090133
   297   1      11.324662320755472      23.169461378947158      2.7676062810601127
   298   1      12.804451871647501      24.455101306752145      4.2381821817596688
   299   1      11.436961076673677      25.767596438974412      2.8003286010583781
   300   1      12.857750472214407      27.236422149959388       4.086814022065389
   301   1      14.428397751738283      28.616894872310571      2.8921322499951958
   302   1      15.955478601971508        1.57230535808461      4.2500638667938411
   303   1      14.416947889623295      2.9208645680486138      2.9144613170136511
   304   1      15.813271107005901      4.3490682797393783      4.2285190482101136
   305   1      14.295010369317092      5.7860508522981089      2.9984264358181445
   306   1      15.887074072865548      7.1531642042250887      4.4497812349569852
   307   1        14.2192659099026      8.7322706783496802      2.8523044702801581
   308   1      15.756621283140181      10.001318390478518      4.1246973617233635
   309   1      14.284693091269492      11.489545267128848      2.9304483866914777
   310   1      15.739586881859678      12.902279386791287      4.3786723311475724
   311   1      14.446533683003057      14.480279779416174      2.8877390334134465
   312   1       15.94606216161608      15.829149805194174       4.306004833707469
   313   1      14.442879924757618      17.283015669379044      2.8363160567772177
   314   1      15.841497079237724       18.55578955930995      4.3424226258212828
   315   1      14.452246586853368      20.085331750524841       2.868513059769294
   316   1      15.909252226856509      21.364509772773054      4.3456752029155261
   317   1      14.405552786428027      22.792862048762405      2.8086887769555893
   318   1      15.774008084146947      24.394811371294445      4.3620330942554775
   319   1      14.456854392840702      25.889315045741714      2.8119699465825287
   320   1      15.795395021083417       27.15532557424649      4.2157868875225661
   321   1      17.203721693294305     0.04389221880579737      2.8563809005126251
   322   1      18.651989723316344      1.5593653822585563      4.1956652081853258
   323   1      17.283022623697921       2.905945151446764      2.6866199239507065
   324   1      18.685617496802852      4.3075816617536411      4.2858474760827825
   325   1      17.030599075629691      5.7922149017810503       2.741969055103981
   326   1      18.698383332473071      7.2459768214502231      4.1800727798181088
   327   1      17.235540861140827      8.6207763926475618      2.8357628115762847
   328   1      18.590039052458369      9.8910188187630741      4.3118930396662742
   329   1      17.162406684931629      11.498732560673172      2.7874415060642939
   330   1      18.499593467211152      12.832392622468367      4.2917341423694433
   331   1      17.128761406979475       14.30062385442025      2.7768144151389715
   332   1      18.720838386698851      15.530747069534165      4.2552327163643771
   333   1      17.145795760831724      17.107495381358582      2.8131533595579872
   334   1      18.676789580991699      18.558308603641631      4.3487816897842295
   335   1      17.101987994083647      20.026895692060563      2.7886833001313573
   336   1      18.490510682410868      21.369680392830343      4.2787555150150887
   337   1      17.128114085070738      22.909476827235853      2.9232507536904091
   338   1      18.663128246059934      24.377433992881564      4.3381897416927266
   339   1      17.261287019591212      25.820222568332628      2.8216723917305675
   340   1      18.626488413908778      27.112775211841353      4.2287657740258116
   341   1      20.102330280467108       28.64124255890852      2.9784749360785936
   342   1      21.444303222061361      1.3829225585116898      4.3382942561793234
   343   1      20.041041961182838      2.6980741828976966      2.6997187557911033
   344   1      21.465941864220653      4.3541653416099413      4.1685751727692777
   345   1      20.008707206277673      5.7636829758932153      2.7418027723155669
   346   1      21.615557272008509      7.3564576033102771       4.305712421162732
   347   1      20.198657457169638       8.661888554981422      2.7209879450608581
   348   1      21.459072635118574      9.9192813831438098      4.1718264133830143
   349   1      20.014999276535203      11.464132761636431      2.8180705429387456
   350   1      21.687471964823548      12.760234379976515      4.4396344585042309
   351   1      20.079322672378119      14.296846735012593      2.7731889749029834
   352   1      21.529503429948392      15.672323892307515      4.0765436756728155
   353   1      20.088459903478316      17.059510208597299      2.8944123053405115
   354   1      21.382212340190293       18.61115455951926      4.2907084928817625
   355   1      19.941913504057528      20.108644645337993       2.827108298812516
   356   1      21.524926110572565      21.450425066235926      4.2100067570020565
   357   1      19.940563070875253      23.074898653685448      2.6978320614060287
   358   1      21.557008339879495      24.322198300962377      4.3782150668577913
   359   1      20.179357666284485      25.707995642557044       2.878308075775307