dump/Fe_750_5/steps_31 (written by ASE) 

1995 	 atoms 
1  atom types
0.0      28.699999999999999  xlo xhi
0.0      28.699999999999999  ylo yhi
0.0      28.699999999999999  zlo zhi


Atoms 

     1   1      28.650736308200194    0.038315115491527156      28.446112678067056
     2   1      1.4457380503816355      1.3362671535981345      1.3940536091248867
     3   1     0.17334679278839268      2.8685513521892423      28.610150934606398
     4   1      1.3470868032282857      4.2390972123653476      1.4869833057470954
     5   1    0.089547467709383488      5.7842062381415023    0.031925195087080645
     6   1       1.531574770186785      7.2585687042630918      1.3901928588179648
     7   1      28.642167469078007      8.7401609955768631    0.036247718834851984
     8   1      1.4660468349071385      10.131885808501375      1.5481831636593029
     9   1    0.071972451707940921      11.488338186405102      28.671417121217221
    10   1      1.2350530824684489      12.836092362384747      1.5587528325020557
    11   1    0.056051865327290666      14.191712704653442      28.640200291206785
    12   1      1.4901140165398032      15.704783414542622      1.3926058313554117
    13   1      28.655544627995681      17.333820695198416      28.680168053882298
    14   1      1.3866293257295201      18.526277189871774      1.4824378765858581
    15   1      28.424994533392795      20.030809817747194     0.10720098868962394
    16   1      1.5527849543031516      21.515199109450659       1.355493594715186
    17   1      28.537785003336612      23.108095633738547    0.082372684401070789
    18   1      1.4125519699061782      24.431885509505221      1.5001141065076462
    19   1    0.017657509027552497       25.78823154898096      28.678952586093164
    20   1      1.3308239999211318      27.186065536527867      1.3667649670487199
    21   1      2.8523885689035451       28.66233072786406      28.611033890028651
    22   1      4.2086713735934618      1.3607184405454644      1.3793205738889922
    23   1      2.7494981510895178      2.8874193170979368     0.15442181204009559
    24   1      4.4216880252599768      4.3489840427499136      1.4018250212843111
    25   1      2.9425038832183956      5.7925824393899958    0.039988057884818289
    26   1       4.292907813168334      7.1707539599645038      1.5209809217616446
    27   1      2.8652206252178307        8.74188205076325     0.04572873665925966
    28   1      4.3353927007234523      9.9788006593588587      1.4083162684795647
    29   1      2.9204382472651815      11.436546808349974     0.19858837271939375
    30   1       4.432455987744981      13.036109647002839      1.4288321612585599
    31   1      2.9087863360306629      14.285543854484297     0.14647417045807726
    32   1      4.1790653219214606       15.81183147734326      1.4284016141446367
    33   1      2.6744161920035951      17.165400465234004      28.588175167564916
    34   1      4.1400495343467432      18.712272177589298      1.2906207636637412
    35   1      2.7635871833525507      20.062735615788917      28.534945323594361
    36   1      4.4514139341405814      21.370899211902874       1.478020079683132
    37   1      2.8791684513981144      22.849128303155357      28.694973820976532
    38   1      4.3921314471760864      24.413371166755006       1.293592701311012
    39   1      2.8377092266723172      25.708378339269981      28.507751309961026
    40   1      4.3004899374812666      27.090688731281631      1.3864091214123277
    41   1      5.6590099990810616      28.509832485924068    0.092819115311476769
    42   1      7.1998941245072325      1.3789672811277216      1.3651985472822274
    43   1      5.7583891308340851      2.9825521827025754    0.021663172007822588
    44   1      7.2343109320213328      4.4126789762739369      1.5279517640641991
    45   1      5.9243243492103153      5.7274053762695152      28.585118245540261
    46   1      7.1390272084426289      7.2796299830614872      1.5272533487638167
    47   1      5.7654163915292171      8.6700452268809141    0.059063970503336942
    48   1      7.2905744444839025       10.16148345488841      1.4455570353335931
    49   1       5.713015439709026      11.526132926103086     0.15332949165657511
    50   1      7.1040920029637027      12.863126148461022      1.5240833213152416
    51   1      5.6933619706853564      14.535525033740786    0.039035871893793171
    52   1      7.0843058196980788      15.925045274125415      1.5965639286190807
    53   1       5.721419009762692       17.34521300131852     0.11281471749548483
    54   1      7.1227191558875811      18.675656280136664      1.5193821735913962
    55   1       5.743933432341791      20.065661650836226      28.681682822461458
    56   1      7.1392393167144439      21.655678443826488      1.5850702437413804
    57   1      5.7771759304626267      22.942371649056845    0.044470284421754547
    58   1      6.9919616449127773      24.378816918502231      1.3624541134667536
    59   1      5.7751885275962067      25.793418353308095      28.618586095229389
    60   1      7.1184395371876183      27.242641767275188      1.3856514085257465
    61   1      8.6786618499536576      28.651306388323011      28.650552298069968
    62   1      10.059840313762328      1.4766662392895902      1.4045083192386425
    63   1      8.7906357401991002        3.06203460029948    0.047912994718001152
    64   1      9.9813092772435148      4.2868657926120335      1.4756174434085902
    65   1      8.6247196898594005      5.7934763302025107      28.650612270413905
    66   1      10.174670066541779      7.3307464691557582      1.2522437415630401
    67   1      8.4975504789823901      8.6614392744081918      28.682094908960568
    68   1      9.9701318663067457      9.8888448463675669      1.4245080485212267
    69   1      8.4490188872116718      11.426863133684403      28.532970828951509
    70   1      9.7795654992185064      12.869977237681123      1.3500333183509508
    71   1      8.2878104801926487      14.339815692142357     0.21306959746761986
    72   1      9.7206830605143821      15.909337268817659      1.2068611646158629
    73   1      8.4544384473269432      17.478686315822092    0.032201043205225086
    74   1      9.9469142244027982      18.566874002040212       1.580162328176504
    75   1      8.3725010141797576      20.053075846737183      28.640800472669866
    76   1      10.071958965459205      21.608026165797806       1.389226094806973
    77   1      8.5097718440347681        23.0672134137873    0.018155990140439806
    78   1      10.001532378365079      24.393625781070487      1.5108056307900484
    79   1      8.5796322119195345      25.795989180059035      28.590332365609417
    80   1      10.110169906883137      27.244339101150942      1.5150399722112644
    81   1      11.521086275866068      28.667145975921574     0.10260806003307138
    82   1      12.832976071793036      1.3887061474859366      1.4459303484138673
    83   1      11.603605609308032      2.8023882419875128      28.612243561523204
    84   1      12.928907942647987      4.3679522579824086      1.3368367145014766
    85   1      11.391321413258376      5.7464393436779968    0.033457419037961303
    86   1      12.896466298982808      7.1063773134890447      1.5282142823479381
    87   1      11.571479896466444      8.8241866509422255      28.662966966679907
    88   1      12.937101956255697      10.151357884398623      1.3591906386905417
    89   1      11.345308551962914       11.51223009866832       28.63795488690953
    90   1      12.592850153277459      13.022419804609733      1.4220857908293174
    91   1      11.215318854360289      14.361008337001723     0.11158262857860575
    92   1      12.896940770502557      15.756819213318163      1.3759333062706891
    93   1      11.403182506416945      17.283549051577474      28.644422185056403
    94   1      12.811816557056085      18.643564610548118      1.4611742199330482
    95   1      11.510825317276039      20.061515951380439     0.04334513175512026
    96   1      12.766307129731132      21.551044762572854      1.4101298346839268
    97   1      11.376509151662004       22.87482813010584      28.604720534319497
    98   1      12.918197120374488      24.213022650606543      1.4120862875901596
    99   1      11.636969427173486      25.691027883988255     0.15830315124042055
   100   1      12.982090224891623      27.247189968743584      1.5120946036114564
   101   1      14.367561802766891    0.023996374698151614      0.0959121304395468
   102   1      15.788169767466385      1.4814239312265844      1.4929076993052592
   103   1      14.279666963002326      2.8531415724916434      28.630437142223318
   104   1      15.888975984409813      4.2839565211827413      1.3443460946666956
   105   1      14.379069030184992      5.7994457901377583      28.686961947436149
   106   1      15.708104607247099      7.2348199845414554        1.46522754534043
   107   1      14.333005734944882      8.6774550074739203       28.67925757571378
   108   1      15.783172537398688      10.250544662488444      1.3769768801283706
   109   1      14.223889554115656      11.722111171990729       28.59242266908905
   110   1      15.693419262106971      12.887486763285255       1.600019773287704
   111   1      14.446584276773319      14.471791577543408      28.579426362509555
   112   1      15.879701682479203      15.630046526691348      1.4509556957464949
   113   1      14.420630257400656       17.23741934902456    0.008771869477050118
   114   1      15.765785627714175      18.614137917518381      1.4676541191325776
   115   1      14.183038738800787      20.159061135028502     0.10985694752386049
   116   1      15.817232912911745      21.447273668182554      1.4450219946803375
   117   1      14.356871330614206      22.740867511647512    0.086232583711091618
   118   1      15.670003571291304      24.251899794417596      1.4950387798836677
   119   1      14.414720980901873       25.68947545498445     0.11125924387349628
   120   1      15.826149475794626      27.258586626880941      1.5457210205380976
   121   1      16.992915693041311    0.011539142664992128    0.011905392210292121
   122   1      18.540289440746349      1.3368575451072726       1.468051700289231
   123   1      17.280682878148905      2.8028723872692018      28.689225261990106
   124   1      18.726795462858622       4.235929130616535      1.2346483199403575
   125   1      17.126424230546011      5.7360928237067252      28.500776165788981
   126   1      18.616488110497546      7.1460729765592577      1.4119837759678142
   127   1       17.41676719269763      8.7097612119497292    0.025534601828758233
   128   1      18.648625193724286      10.072622569466651      1.3769301481182772
   129   1      17.247104869737097       11.55795135235156      28.688460895842713
   130   1      18.687767488344097      12.920445768577606      1.5475850661968262
   131   1      17.346033729289463      14.322562744979948      28.671713775567952
   132   1      18.604289679367412      15.713189651716874      1.5297114204010762
   133   1      17.160045855373795      17.233145636285567     0.12356649103179516
   134   1      18.648703143744378      18.619219628474035      1.6088000053394809
   135   1       17.26847788951336      20.135515822203299    0.091084434578760851
   136   1      18.739582753506408      21.411718452435554      1.5072000658932654
   137   1      17.249580215563746      22.966208534464709  0.00086392619878097269
   138   1      18.705242153380297      24.324124855881482      1.6044410002413778
   139   1      17.058111451625663       25.82716259655804     0.21964731339959359
   140   1       18.60082325191738      27.192000073164348      1.3460825788568866
   141   1      20.109699742639325      28.628202401656214    0.054217264522844713
   142   1       21.53929889124996      1.3656577562374888      1.3773514041328894
   143   1      20.091303522521461      2.7441271453269689      28.596026903238073
   144   1      21.349356806475541      4.2592181196233412      1.4998513219425371
   145   1      19.954533317662353      5.7425799923050915   0.0053449254647830588
   146   1      21.454394418484835       7.217470159801441      1.4731857366483143
   147   1      20.000067415391275      8.7237502490245777     0.01805999782251318
   148   1      21.585591016198254      10.050304280544811      1.2421818888173093
   149   1      19.994691706833024      11.531895078456385     0.18336298562213646
   150   1      21.430320994557249      12.937992858204952      1.3860697342543642
   151   1      20.048699236049096      14.279902430768237    0.080721272636890315
   152   1      21.653459525490803      15.668175434816137      1.5691441257324177
   153   1      20.136196803152625      17.007206520110525     0.10939606374097369
   154   1      21.420190798052275      18.622649176197424      1.4266294016840231
   155   1      20.098517945869496      20.190497029378466      28.660891082689986
   156   1      21.685312355056695      21.339608941437778      1.3425124816166667
   157   1       20.16430536057354       22.98403567739766      28.629465169586112
   158   1      21.464692510791881      24.422103954133231      1.2963794642585873
   159   1      20.037920548843836      25.736898367580551      28.572500475599512
   160   1      21.617437527125947      27.344240228197627       1.549178616041559
   161   1      23.041644154030831      0.1321823607538152      28.581984996136061
   162   1      24.297821408705257      1.6402871053577184      1.4292001384009478
   163   1      22.852702163220741      2.9833850499925738      28.635794966017219
   164   1      24.407225275399732      4.3604473292719366      1.3773626691161431
   165   1      22.811020845394477      5.7173916466077923      28.604302980746827
   166   1        24.2834927618932      7.2480194062795942      1.3051904532067062
   167   1      22.922280755854011      8.6219308022859771      28.611469006572449
   168   1      24.290570165777261      10.022932033221633      1.4471511989883541
   169   1      22.834116288676167      11.656505738769944      28.622615200913632
   170   1      24.396906520045352      12.688620577490827      1.5839048944123177
   171   1      23.107823081889528        14.4429749351224    0.069824937541716162
   172   1       24.44843681903345      15.670688474930538      1.6287548510473142
   173   1      23.103169448921161      17.186343481007775     0.22470828455350333
   174   1      24.564892055848439      18.596756448817985      1.5010317295220601
   175   1      23.012551347703642      20.021242867563025      28.692911650013841
   176   1      24.329173694581289      21.414283959957501      1.3661678120854495
   177   1      22.951360081301388      22.877283672518718      28.628873958926746
   178   1      24.228758336690014      24.545581398636969      1.4691641501099852
   179   1      22.844483188851399       25.72849953994292      28.648428935569513
   180   1      24.424976000454151      27.310615610242085      1.4494628611926146
   181   1       25.81250920726071      28.655579101243323      28.594156571727513
   182   1      27.261284195273195      1.5882718691707729      1.2690448471480293
   183   1      25.796144070559073       2.902993436527054    0.056374181905130306
   184   1      27.213600781029928      4.3646373552718725      1.4389306611772654
   185   1      25.882838898104126      5.8218051562734878      28.593010357769359
   186   1      27.330780956549308      7.1524601918313317      1.3406607482876083
   187   1      25.887446207073786      8.5506728422894174     0.11679546487797554
   188   1      27.142049704001842       10.00820725238845      1.4876129321231826
   189   1      25.637335785752487      11.397470727238446      28.673357136895973
   190   1      27.091920929421143      12.932634990560496      1.4631891685045382
   191   1      25.705304530376203      14.324388468096444    0.015930331647109587
   192   1      27.322422459705045      15.725194685729939      1.4379852308226766
   193   1      25.966487342454215      17.172268893113401      28.650440809674595
   194   1      27.318859185553382       18.66358344252945      1.4800932653713739
   195   1      25.598074438853342      20.125933015782721    0.090822216597734803
   196   1      27.318280860093584      21.545251477222141      1.6344797457913394
   197   1      25.826902137441632      22.985269622923237     0.15080556954783331
   198   1      27.134902761921278      24.532161504623204      1.4353390265049726
   199   1      25.517307366819235      25.702637378869174    0.006470407117512884
   200   1      27.200176653824002      27.146101283135788      1.2357163470683745
   201   1      28.652332376317677      28.638877282305636      2.6091901822653196
   202   1      1.5509524420085075      1.3831553899840394      4.0773363906028663
   203   1     0.12323567640073675      2.8665691343817228      2.8585795750527607
   204   1      1.4597349538749198      4.3391317348149272      4.1912358372751157
   205   1      28.584445223922859      5.9279597448900709      2.8805754151876108
   206   1      1.5090942091220769      7.2135085288214995      4.1240098263062936
   207   1      28.656615540562342      8.6283720217436279      2.8061508642016046
   208   1      1.4778632980179858      10.224628823666963      4.2817896778590221
   209   1      28.569491183143811       11.42821937566436      3.0068483894401816
   210   1      1.5879014720658016      12.879384549079443      4.2218850271149524
   211   1      28.546226073313903      14.389038286381387      2.9755527130694319
   212   1      1.4030150411511164      15.826879901984725      4.1353725231263594
   213   1   0.0059253785032991509      17.259631944811268      2.8972989015657569
   214   1      1.4688090433164709      18.693215192926349      4.3327046749868225
   215   1    0.062418584718945055      20.046638276904666      2.9821892723095345
   216   1      1.5350550375434098      21.596253040824188      4.2616542568388862
   217   1      28.656146719491094      23.082864513101324      2.9511298604377627
   218   1      1.4981377442245527      24.330862505782644      4.1480355467410313
   219   1      28.687974778719596       25.77197644232815      2.7891404040800354
   220   1      1.3885828469467487      27.272940420656816      4.1281397808886764
   221   1      2.8649295598589113      28.495057796782007      2.6446036375875464
   222   1      4.3154291868132706      1.2553140202668951      4.1000878734123516
   223   1      2.9473347864921506      2.9137787751806412      2.9823751770602058
   224   1      4.1959009026742651       4.284164336954241      4.1730862621530909
   225   1      2.7911809732810418      5.7500145284647477      2.8190214126591067
   226   1      4.5110525556942234      7.2017691296716846      4.4219746151922816
   227   1      2.8996093808928931      8.7442379073645462      3.0232021791608461
   228   1      4.2257188798287864      10.025721817344108       4.393106392479952
   229   1      3.1064539694562998      11.519292059381435       2.900738529300563
   230   1      4.3994837585649798      12.978963097577063      4.4277002586114005
   231   1      2.8753849451202931      14.426325833075065      2.8559557127831563
   232   1      4.3503266587006602      15.813442211718563      4.2400182604809977
   233   1      2.8231247350324917      17.183530373406118      2.9102368137380972
   234   1      4.1341243716262506      18.603981789134437       4.133637605200251
   235   1      2.7999075868442578      20.078774267294857      2.8995354617869298
   236   1      4.4524835074174103      21.650856520076339       4.355930398625425
   237   1      3.0289478654580675      22.967942872491193      2.8324628214283951
   238   1      4.3711154773546355       24.49937781279397       4.354777579523156
   239   1      2.8359132728804646      25.796157636255629      2.7571350119654072
   240   1      4.4016551679725717      27.251499414888666      4.2678754826852554
   241   1      5.6188993114586436      28.626113689213572      2.7847768543771614
   242   1      7.2904120781012267      1.3306886512160763      4.3139519795834609
   243   1      5.6669319298592304      2.6580341006789139       2.867529597938165
   244   1       7.214776164090706       4.206567878686271      4.1109426078830893
   245   1      5.7749327480409933      5.8267355427218464       2.850717947756447
   246   1      7.1421244201541318      7.3587192111883057      4.3440768285461182
   247   1      5.7355499912392203      8.7984347233666771      2.9976470840619291
   248   1      7.1909737149905846      10.087580596700757      4.3440782142461458
   249   1      5.7912795711746314      11.536440201171011      2.9818281820893495
   250   1       7.215255291747952         12.941773779895      4.2884419713455593
   251   1      5.6841908866943598      14.536317463409688       2.995981504478523
   252   1      7.2742148080843041      15.786339671796462      4.4099516432685482
   253   1      5.6821545337189026      17.337329265180333      2.9529147561380249
   254   1      7.1571835075191821      18.748362976575645      4.2625056597476192
   255   1      5.9007787314622799      20.039734970009413      2.8643457134271433
   256   1      7.1187538321905137      21.520639762018924      4.2528573604727935
   257   1      5.7080001206363518       23.04775468835193       2.862232614350567
   258   1      7.1480986936575412      24.399572114574287      4.4153714457226609
   259   1      5.9147684325357401      25.808688099770137      2.8913724112428714
   260   1      7.0534106697038732       27.12655023818014      4.2400127021987792
   261   1      8.7535608829330123      28.665911824843736      2.8716768028392035
   262   1      10.058006249579554      1.3464908081784521      4.2847299103845202
   263   1      8.6206701429811243      2.8384746713308688      2.7747777230072397
   264   1      10.110538522052146       4.292952147017945      4.1684271612530326
   265   1      8.4718081947365427      5.9180995731795392      2.9083800779632001
   266   1      9.9548486365340967      7.1323806164105568      4.3259787427775676
   267   1       8.756165024641442      8.6261426082363091      2.9132586832484839
   268   1      10.257740163280873      10.178749162364623      4.5549574483003283
   269   1      8.7238246509386759      11.380263130161159      3.0433437275303024
   270   1      10.026822307714845      12.999497057555656      4.3937353177559846
   271   1      8.5422102763651111      14.348951979483907      2.8876027140576457
   272   1      10.082785792320298      15.685654599586918      4.3434665714633622
   273   1      8.5009674338395165       17.22733515714441      2.9661810537581497
   274   1      10.188610648923232       18.60160538959973      4.3340162718644617
   275   1      8.7536683540234677      20.291881267922502      2.8763147635317283
   276   1      10.095805866268247      21.689143721037762      4.3559569722277898
   277   1      8.5751555390772936      23.052549963699779      2.9953772921176447
   278   1      9.8969440209570632      24.345777338577044      4.3739766610068287
   279   1      8.6014628276830774      25.668362584520551      2.8900214334287098
   280   1      9.9746838153890724      27.076191816879824      4.2729718889328732
   281   1      11.413903936807603       28.65746754009422      2.9373657027941196
   282   1      12.993481974659787      1.3170120117665987      4.2915678013365692
   283   1      11.480538004803336      2.9122882600783968      2.9382333358771322
   284   1      12.949314432213345      4.3183066574649134      4.2270300985008102
   285   1      11.414003978882391      5.7636299469393482       2.761603980505277
   286   1      13.127775187443595       7.231974449979548      4.1746530207234711
   287   1      11.431470642331638       8.698858983347737      3.0584183307878492
   288   1      12.909591097389102      10.024438655010522      4.2268827988943194
   289   1       11.33332949994235      11.510771037418696      2.6604724141739204
   290   1      12.757057047264261      12.951496016909726      4.2243743766087158
   291   1      11.304635276363822      14.269865793152986      2.8340216773957523
   292   1      12.825145682037931      15.646251974098824      4.2597661899126802
   293   1      11.399774751195981      17.148419668744808      2.8329330060925009
   294   1      12.772816109266826      18.411569425648164      4.3351563604848264
   295   1      11.336590920706453      19.985647755955529        2.80994405949499
   296   1      12.801527381773459      21.437557458296602      4.1662189327418657
   297   1      11.309277741342548       22.97050855951677      2.9533695994537736
   298   1      12.870367309540665      24.283325496192379      4.2357206545823658
   299   1      11.590930223162072      25.922336305658067      2.8355490282615037
   300   1      12.876907141028189      27.307850337510413      4.3739944480907313
   301   1      14.451150151831945      28.673208859705259      2.7980987866982567
   302   1      15.826091747980039       1.285064043966303      4.3385973859268248
   303   1      14.360167980086082       2.869164396588074      2.8005784206889532
   304   1      15.686515780517491      4.1575999002910953      4.4094383495394878
   305   1      14.427520448397573      5.5650007576101643      2.9782799887439579
   306   1      15.912379900326666      7.2127058454453712      4.1431879284684285
   307   1      14.316195753593746      8.6580644726903291      2.7869032223453356
   308   1      15.722238352854175      10.209895118174391      4.3099704794082063
   309   1      14.141227813654192      11.427460175875089       2.957734697918982
   310   1      15.625492688933402      13.088273366818635      4.1415246777825425
   311   1      14.289961212542043      14.450093615806578      2.6682853273539089
   312   1      15.670947267183845      15.663173154176109      4.2530491767638541
   313   1      14.333106795620727      17.153846027229573      2.8738759967668188
   314   1      15.770540788544135      18.566276895470985      4.1880976339822551
   315   1      14.154020131913882      20.094841698263242      2.9424545529754487
   316   1      15.609647603564724      21.291771387490442      4.3775633576411916
   317   1      14.413189183028594       22.78079914920162      2.8521450306596399
   318   1      15.682230889272825      24.321161848698139      4.2819305217500476
   319   1       14.22583830351568      25.745852251178743       3.018229678374559
   320   1      15.567263511575428      27.213541728226431      4.3154209095349829
   321   1      17.341369848238951      28.607765409871693      2.7513119010489389
   322   1      18.776466741783484      1.4723378803903993      4.4095076104589461
   323   1      17.256155326146651       2.888911559882092      3.0076415315017115
   324   1       18.63793175599827      4.3221298508550463      4.2176938013038825
   325   1      17.191320767755574      5.7438576802759718      2.9839395607306987
   326   1       18.60656175522805       7.240050720667961      4.3309308881703616
   327   1      17.269872120116098      8.8126811390161723      2.8121333665240162
   328   1       18.70159775558524      10.036109389966803      4.5537056438013348
   329   1      17.345134423973789      11.422954828218584      2.9659781608753528
   330   1      18.854883427660354      12.983584466895447      4.3883363528019839
   331   1      17.351813453152651       14.25131565312387       3.042833610945082
   332   1      18.763508890996217      15.846609302408144       4.352319822287221
   333   1      17.056811195865745      17.060114022807014      2.9239695066085112
   334   1      18.715662580642913      18.577111302001498      4.3069928051855806
   335   1      17.147561576454311      20.078018999044232      3.0430645551578825
   336   1      18.558024197594413      21.517419827599234      4.3372881723834285
   337   1      17.230733703922873      22.876352569906807      2.8720271978120699
   338   1      18.644248273277846      24.293803554599013      4.2392250061101961
   339   1      17.213872542461079      25.699181312306493       2.908113972794919
   340   1      18.558279639732415      27.328696898501779      4.2525285261403631
   341   1      20.069710425697256    0.028035883247457788      2.8795820807979098
   342   1      21.702986119672609      1.5060028280103788      4.4399023689538852
   343   1      20.039404337094162      2.8280456335263122      2.7939233519913831
   344   1      21.637154922426518       4.304250461919187      4.2641584152977403
   345   1      19.955060668180383      5.7104805064899207      2.9256083848080281
   346   1      21.385527609490818      7.1974925523695577      4.4706685032898088
   347   1      19.930347094462153      8.7049573172568859      2.9848556252432852
   348   1      21.621696607600704      9.9427609669165466      4.5016164001025079
   349   1      20.096033435746197      11.414438478018916       2.975718805172598
   350   1      21.507920667788309       12.86879044196877      4.6733597415170962
   351   1      20.192285003613843      14.205574327569181      2.9253979438137221
   352   1      21.661439352842748      15.650031223144028      4.3112133198036702
   353   1      20.170575580058085      17.208238226810845      2.9132868923876787
   354   1       21.49907282120278      18.448833934208647      4.2027370877562866
   355   1      20.194909136807802      20.059432388546281      2.9511335615990339
   356   1      21.646111782205434      21.430173374356638      4.4765514569072726
   357   1      20.314179612180165      22.827353105712849      2.7959208181864836
   358   1       21.47270449463651       24.46738356211295      4.2941831126301606
   359   1      20.040619267246864      25.813559710300542      2.8280383652139802