dump/Fe_750_5/steps_91 (written by ASE) 

1995 	 atoms 
1  atom types
0.0      28.699999999999999  xlo xhi
0.0      28.699999999999999  ylo yhi
0.0      28.699999999999999  zlo zhi


Atoms 

     1   1      28.527874987451032    0.016175825114932575       28.46311217086194
     2   1       1.329566231464661        1.34879881690091      1.5374992370016121
     3   1      28.628023678914857      2.8573122461094185      28.569157101533889
     4   1      1.4512781444421312      4.3077460748560377      1.4857189185650554
     5   1      28.552075251525824      5.7632588698642992    0.078731975893924847
     6   1      1.3612150499722149      7.4129346773469091      1.5055217008430644
     7   1      28.694520465250296      8.7643125404306694    0.058436429214361964
     8   1      1.2108662776262915      10.118818169531018      1.5803459317668525
     9   1    0.046582114221951923      11.662186545804371   0.0018558698767378711
    10   1      1.7198206371858438      13.047334958992485      1.5852616587032684
    11   1     0.12394085165099387      14.287236673995013      28.686785491841935
    12   1      1.5152661955556603      15.866097748907906      1.3317540913907804
    13   1      28.526582262563579      17.420989721257222      28.676912006270072
    14   1      1.5634340766046446      18.511780177719377      1.4937412107200874
    15   1   0.0019662651778078587       20.11755609321451      28.659505109617374
    16   1      1.4608154064640992       21.38773301111452      1.3865736653143252
    17   1      28.571273589646239      22.868040176426646    0.030218801278999782
    18   1      1.4262339276123612      24.339964640253708      1.5416895777683306
    19   1    0.019401109049069186      25.816495440017899     0.12763585929869795
    20   1      1.3542282607335567      27.320664562640648      1.4830192601425325
    21   1      2.7442011404499467    0.042122920382371254    0.040177906452117801
    22   1      4.4265651674513178      1.4061229665676354      1.4209630090590961
    23   1      2.8523100910811321      2.8738163813468334      0.1398317490472209
    24   1      4.3606212809481368      4.3254056527871505      1.4658222084091548
    25   1      2.8483800544863938      5.8691717673280772     0.29613892424499733
    26   1      4.1924771742548028      7.4927829633959178      1.3901008594415667
    27   1      2.9236266928353549      8.9122910045338539      0.1846115316614941
    28   1      4.4823601159441102      10.028833849894037      1.3532941456976231
    29   1       2.900829632571678      11.554004120465498     0.13223523722340366
    30   1      4.4227311938470297      12.903975294021983       1.506379734132123
    31   1      3.0430296969065562        14.3093038240171    0.093766845012271449
    32   1      4.3811427334384589      15.949299533897616      1.4955331797307048
    33   1      3.1110681278388972      17.271405768180113      28.684084969301114
    34   1      4.5011558633360078      18.814451625258236      1.5157809130389412
    35   1       2.972762173028423      19.899836689851757       28.64183117353906
    36   1      4.2821338193031355      21.435487638202453      1.5845230729669431
    37   1      2.8702272544035017      22.985813489464029    0.082137836585798221
    38   1      4.2749370827238646       24.38788605975196      1.6282212683653925
    39   1      2.8388480491127117      25.883397610841936     0.13093003471058171
    40   1      4.3670037107154851       27.34413547887339       1.335450721517554
    41   1      5.7648406579202103      0.1156862610105123    0.021684172371215039
    42   1      7.3016534187539097      1.4911389806085253      1.4718495289946067
    43   1      5.8821585540100916      2.9481804746961431      0.1227162482616449
    44   1      7.3074341746413358      4.2842605211092186      1.4477787069901193
    45   1      5.6414316490140965      5.8533571258345942    0.028690147927966318
    46   1      7.0622238718534192      7.1670594228893734      1.3755190990496666
    47   1       5.816430013493405      8.5666751568473121      28.535302672954618
    48   1      7.1373984206237528      10.060400877425016      1.2670983626878758
    49   1      5.7775087469562507      11.410040159420088      28.658757501200256
    50   1      7.1384805971980914      12.828362629731501      1.4778997685684097
    51   1      5.8260050612466801      14.127176132626809    0.056444814001849961
    52   1      7.1015747594270122      15.796554947833872      1.3731790974188578
    53   1       5.782947006317019      17.386416306775477     0.18381100989195143
    54   1      7.0898506714706766      18.916789928934971      1.5086000435939022
    55   1      5.7102368771907264      20.150634963285203      28.565501455485663
    56   1      7.0506545813123056      21.693436457006431      1.5958599584363242
    57   1      5.6984260450249478       22.94611120777919     0.17306351277355816
    58   1      7.0855405746001114      24.537591263199797      1.5854408604695092
    59   1      5.8129856342850097      25.682899471289275    0.027021823582083458
    60   1      7.1002167198985244      27.223452112669523      1.4633080645669574
    61   1      8.7585893311934733     0.14293648758692831     0.12037780731224085
    62   1      10.204589297318577      1.7093183893757653       1.428447941934712
    63   1      8.7340821048670367       2.993622421944564      28.684834901884646
    64   1      10.203267062870367      4.4643204533639658      1.1068599777544808
    65   1      8.5415868357948597      5.8358144246211845     0.14003754055694337
    66   1      10.036315684321593       7.352064918041612      1.4186524358477877
    67   1      8.6158711080383004      8.5835223482620027    0.014082785752555079
    68   1       10.06231023921603      10.060894234062886      1.4037291234578886
    69   1      8.6913952538281354      11.545441275785219      28.672544654823202
    70   1      9.9186312926279587      12.908739744541727      1.5831050723887532
    71   1      8.5865287467239817       14.09449844063375    0.043633061039213245
    72   1      9.9459867537609998      15.740242701965206      1.2734088254734963
    73   1      8.5896459529097537      17.276297695583246     0.02901750014750638
    74   1      9.9136245785406523      18.774526982961483      1.5007635371882546
    75   1      8.5418131552355909      20.242514516912383     0.14988194616950065
    76   1      10.146880245636726      21.523937852286711      1.6572566127058059
    77   1      8.4941711192887563       22.87210019974151    0.019235262837980813
    78   1      10.054978732190142      24.388822512462376      1.4137097227003097
    79   1      8.6635618478268732      25.945268829467995      28.645223588065846
    80   1      10.053019424068669      27.259874499684361      1.4461304990628479
    81   1      11.641821191579874      28.559529468154853     0.14184285764108615
    82   1      12.936111540709316      1.5542453496285917      1.3351461976160752
    83   1      11.601602773375557      2.9626448411493529      28.621457796697161
    84   1      12.986273677300487       4.369023614448154      1.3788342203522901
    85   1      11.618693689745335      5.8964455995810505      28.627257168696875
    86   1      12.972717349024448      7.3340228165158674      1.3056716949607219
    87   1      11.587369556878333      8.8498612070692886      28.628167504730772
    88   1      13.009850742489705      10.126938278418494      1.4770611550810266
    89   1      11.565348858613607      11.494717081881188      28.637510096391726
    90   1       13.03063500072407      12.833044928306482      1.5596608268890242
    91   1      11.490064438996896      14.133044385872097     0.10747779774512758
    92   1      12.764223505461462      15.788121360618879      1.2699942386219387
    93   1      11.193438188375097      17.294215579996916      28.591646308887906
    94   1      12.747634977758313      18.580942163728007      1.5350069429307149
    95   1      11.351096958808986      20.109649658086386      0.2203850331463969
    96   1      12.923493082936748      21.414600764438223      1.4544680157959748
    97   1       11.29637375493262       22.87784268991512    0.052665197844567073
    98   1      12.819750639927214      24.329563433395787      1.4906666488475591
    99   1      11.468984489753858      25.837494445023271     0.16525661317514279
   100   1      13.016269541294861      27.255851028806703      1.5025588403557661
   101   1      14.372940744579553      28.568888098663695      28.687463298463214
   102   1       15.68406661755837       1.665298117823057      1.3292452095707177
   103   1      14.216757718124921      3.1070990881739129      28.602700349777795
   104   1      15.926617029402362      4.3781200636222257      1.3150195839474348
   105   1      14.364860743961682      5.8567455726886912      28.593533883842383
   106   1      15.859526611431889      7.1905023551300324      1.2926672050556129
   107   1      14.401149935900477       8.742235720996014      28.624488139357343
   108   1      15.961442908099061       10.09161598057902      1.3478372132624026
   109   1      14.431053337496035      11.532026688660538      28.640280734783847
   110   1      15.879518827453035       12.86289463234576       1.335337835852203
   111   1      14.384853678499759       14.32645808178509      28.680823860631506
   112   1      16.011651062232517      15.779537864340471      1.3340218602315981
   113   1      14.254310512069576      17.156639582735558    0.026464696779828507
   114   1       15.78010688625335      18.418751965542114      1.4610090131972699
   115   1      14.402587623507932      19.918624994393728     0.19557746924688216
   116   1      15.755536111150835      21.537353437061906      1.3372761700031439
   117   1      14.327782833750714      22.794160181824786      28.669528691001346
   118   1       15.57003793255722      24.321429328339132       1.332740743802014
   119   1      14.289295330275959      25.910238540276232      28.607107630370749
   120   1      15.821744426869007      27.233273099727793      1.5363663295275503
   121   1      17.164514227719557       28.67070142646779    0.012269922145867454
   122   1      18.724967803967818      1.4336106094190206      1.3858286915952482
   123   1      17.198585144533901      2.9284893113031587      28.528120509155229
   124   1      18.562133255169467      4.3323451641733275      1.3872830162986356
   125   1      17.623177147696641      5.8034345088837771      28.515433615936761
   126   1      18.784444035137543      7.3204450629016673      1.5335199395052095
   127   1      17.311049593049987      8.5001098484888864      28.637099910436696
   128   1      18.764128280494649      9.9855451531914277      1.4403686337978894
   129   1      17.332113615282928      11.421177182565437      28.660414595274307
   130   1      18.759903145789885      12.940628575896323       1.461907149408159
   131   1      17.474576781426151      14.356396048947929      28.513712809189062
   132   1      18.572326585078212      15.807860271135056      1.2616129469882937
   133   1      17.103277975414219        17.0209334456177      28.515253097103724
   134   1      18.760653819909514      18.620510675350975      1.4135175543289724
   135   1      17.127725595841536      19.866481877723309     0.10997845433528255
   136   1      18.650294766608123      21.448981319387098       1.477599817198108
   137   1      17.113296467581133      22.884442104909098     0.12445854627751485
   138   1       18.58709476189172       24.34672645619661      1.4622854177964295
   139   1      17.116795207345987      25.715813200444888    0.027294047355337601
   140   1      18.559098607602142      27.315736090138351      1.5356079981227029
   141   1      20.127781886688997      28.574842926786605      28.611915640840209
   142   1      21.535342014484375      1.4072025589131054      1.1570550182409525
   143   1       20.07301293259254      2.7711313084712081      28.689714027572169
   144   1      21.461013150250661      4.3260951113840456      1.4080411454594459
   145   1      20.192265242936383      5.8915648181044027    0.054006965075837007
   146   1      21.618492240267049      7.1793129214446969       1.498582794904324
   147   1      20.155933888781203      8.6004169827808408      28.655618864658123
   148   1      21.564340570235014      10.182872298142502      1.5095546005107046
   149   1      19.977708443742582      11.358497069170435      28.587276001747526
   150   1      21.372367518647476      12.832575681077692       1.384000135770417
   151   1      20.223928829966464      14.427312252191959    0.049077412954647896
   152   1      21.550339803255525      15.663983976115333       1.538994648113488
   153   1      20.028511611733002      17.161004826650416       28.53705676073794
   154   1      21.568999300818916      18.492361438612516      1.3355750116057037
   155   1      20.103906534718394      19.991700233365002      0.1455631284348102
   156   1      21.662647240456689      21.494024846772994      1.4102047874096681
   157   1      20.107176521679563      22.936547423955265    0.087820160971489175
   158   1      21.665129887550076      24.392555716071506      1.3942856603446321
   159   1      20.074978621776296      25.748760288142591    0.021135040535682478
   160   1      21.517621229575873      27.199714654815146      1.2192685208834406
   161   1      22.999677813469528      28.674703464723056       28.54551605348081
   162   1      24.380639370362317      1.5045020787321155      1.3837951458064128
   163   1      22.944614331224138      2.9434129858130156      28.305786869859336
   164   1      24.363288311388526      4.3021717570502478      1.3957184935269769
   165   1      22.919823334495202      5.8395875732092053      28.629638277371829
   166   1      24.206962050145396      7.1503418488346933      1.4403645975653709
   167   1      22.815796278716427      8.8397949349814056     0.10599008056965441
   168   1       24.30742756542865      10.070700995873198      1.5679688289371598
   169   1      22.950378911256536      11.448736669403564     0.25328706372036991
   170   1      24.325520357499681      13.078598152775307      1.6628849841809923
   171   1      23.037353094540773      14.297648317052536     0.11630045178211505
   172   1      24.471131830648265       15.63044386618129      1.5172242673290275
   173   1      23.003739946522064      17.197348184411275       28.64564985211387
   174   1      24.444010242751304      18.634941667460264      1.5354319575973587
   175   1      22.999141270920948      19.973555732927476     0.10258109430594677
   176   1      24.454628453274026      21.634423323023295      1.4616602249198309
   177   1      22.898076522468592       22.73908925977037      28.671575573685317
   178   1      24.284463258306882      24.309884691574695      1.2259440616885746
   179   1      22.921160679819785      25.856205406529366      28.611921679346395
   180   1      24.463140656866749      27.342832637804616      1.2864006584698588
   181   1      25.865202947142677      28.436684253761161      28.647630100019711
   182   1      27.065660027172903      1.5587550359998896      1.5563778646436743
   183   1      26.040537254163802       3.028826384155324      28.691160807444781
   184   1      27.197317919059198      4.2425054903018795      1.6715634930983696
   185   1      25.811566920031879      5.8553988104442674    0.079094747173701435
   186   1      27.243247939365954      7.4613480623569153      1.5241751892720896
   187   1      25.846069523990014      8.9890353996565082    0.019124769257746248
   188   1       27.31392669193518      10.307688673756267      1.5028138375864717
   189   1      25.682420208525524      11.562910611294956    0.017917464473418923
   190   1      27.240446537801468      12.890982279515624      1.5675751647507121
   191   1      25.832436731301236      14.329850447397428     0.19213973845891114
   192   1       27.19496368427464       15.64873509899515      1.5660988612872626
   193   1      25.844515201194525      17.151085797108987    0.098159139748406718
   194   1      27.274403949636067      18.794592769202612      1.5664390608920042
   195   1      25.757565641065458      20.124198120565772    0.076757755705796196
   196   1      27.259377841752645      21.430314401474121      1.4442545180826174
   197   1      25.875462367711517      23.024375345548513     0.11286636210336368
   198   1      27.351417612463244      24.475713784013596      1.4252330433785911
   199   1      25.732819230887731      25.860853180997612      28.648472514704565
   200   1      27.307176930977441      27.291898610647433      1.4561095387430103
   201   1      28.677172250778259     0.08134655504505893       2.847880415952853
   202   1      1.5244321852820024      1.3387457337004767      4.3280988657492072
   203   1      28.689286662675773      2.8172323467715725      2.8597271884947082
   204   1      1.5320863210846827       4.200448932802586      4.1065903353827036
   205   1    0.089413559796958406       5.911958436593272      2.9103800514729041
   206   1      1.4541435659262323      7.2125110604584846         4.3738161404786
   207   1      28.640696384588782      8.6799940419566592      3.1401005188643727
   208   1      1.4070046849892506      10.068443765273139      4.5195854607114656
   209   1     0.17862987240735131      11.785768763506329      2.9482771340340377
   210   1       1.493226543784294       13.07701389395482      4.5017208847441434
   211   1    0.016025722638529399       14.24402167958123       2.850700146759912
   212   1      1.4106211301739338      15.931263403850084      4.3242777341595291
   213   1      28.672454490914092      17.187589920914878      2.8468527239414354
   214   1      1.4415422465904961       18.60046966392704      4.2478178986092052
   215   1      28.637112646845498      20.093279040767253      3.0101891224093893
   216   1      1.3347906440717807      21.449211153072397      4.3877347583291106
   217   1      28.644326470105241      22.728749819742749      2.7492689480242571
   218   1       1.392637995607084      24.327979774394425      4.4405833084132871
   219   1    0.012812698551728721      25.850812708661106      2.9513256613044874
   220   1      1.3244232560376104      27.385777502544133      4.4072360235992125
   221   1      2.8190428446501432      28.645021979217137      2.7886924065489667
   222   1      4.3701890264558312      1.2785165073509133      4.3592292150614425
   223   1      2.9722248022084252      2.6148061640560858      2.8471142594432886
   224   1      4.3474823653516736      4.2467468801153467       4.263458126229545
   225   1       3.004685340767121      5.9080358929881145      2.9808424775642255
   226   1      4.3522994597775364      7.4093829629018106       4.313643114957304
   227   1      2.8465424228850238      8.8120793524321837      2.9354583399323668
   228   1      4.4792332790198568      10.111314219938292      4.3356557481570261
   229   1      2.9377111304551069      11.434637296427168      2.9798808287651228
   230   1       4.305272378912802      12.930356345608175      4.2739350352126788
   231   1      3.0080497774310206      14.477350564970401      2.9274873311233791
   232   1      4.2553819701180782      15.935556665004267      4.3488612471113557
   233   1      2.8792422528992816      17.208026033412285      2.6993776080653307
   234   1      4.3682008386415943      18.591061071917363      4.4677419801160232
   235   1      2.9635429818727053      20.001628905244242      2.9081389351325009
   236   1      4.3527484858971137      21.508623086813806       4.403074519296279
   237   1      2.8005374053314664       22.91111164512003      3.0503620486484668
   238   1      4.2410922375200695      24.491838820819606      4.3869311739861105
   239   1      2.9180450761838448      25.934666063750885      2.8070153234688622
   240   1      4.1440809177496307      27.218496876721385      4.5243327916306137
   241   1      5.7267590492966534    0.075018820138666578       2.811103895545795
   242   1      7.1910988455628448      1.4585312221832287      4.4263888130923652
   243   1      5.8388605657252466      2.8135183062134161      2.8617413076528013
   244   1       7.143523156233976      4.3983899309416543      4.3087580675755115
   245   1      5.6404230633002932      5.8503050520862585      2.8634658259065189
   246   1      7.0240468732825478      7.1639230603087807       4.207985231831171
   247   1      5.7626831335015005      8.7172761231233338      2.6828221260593299
   248   1      7.0936768841889162      10.058889396160193      4.3359662061025146
   249   1      5.8103771795270607      11.419966140148107      2.8771547585623258
   250   1      7.0831500301609065      12.978887994592288       4.204881648271515
   251   1      5.5963479545268688      14.422158569105887      2.8279879515313837
   252   1       7.053644500817069      15.809901519239194      4.2953538812097403
   253   1      5.7280045502022636      17.350516096417728      2.9893884429206512
   254   1      7.1109226984685483       18.70129678963044      4.4122249586324216
   255   1      5.7599703232831727      20.170170050282973      2.9934013874374337
   256   1      7.2144367403174696      21.509295189801108      4.3814680787968108
   257   1      5.6284334837050727      22.989137863110276      3.0856337029010792
   258   1      7.1571542761800675      24.289648927684361      4.3314241690750706
   259   1      5.7704417991912251      25.962138903379746      2.8591643103757289
   260   1      7.1905443204814086      27.418890137644585      4.2012450148700466
   261   1       8.613874055084878      28.623726932034742      2.7562533707125678
   262   1      10.167263355413288      1.4196146032480439      4.2806361774195878
   263   1      8.6582453124666401      2.9021734157641088      2.9553162531625197
   264   1      10.024518768660139      4.4425256711617855      4.1347010795827774
   265   1      8.6655014542233282       5.660748530105157      2.7156043305095174
   266   1      9.8744469967597741      7.1468418679776278        4.27666641189633
   267   1      8.4330458837425599      8.6109471977860341      2.7007733246473764
   268   1      10.113315522717686      10.026824504778398      4.2971364370625169
   269   1      8.4713310291453219      11.310491896786198      2.8255862143606465
   270   1      9.9282824286243603      12.992698448490948      4.3143141242923591
   271   1      8.4721706638179182      14.402723779931936       2.628832546036723
   272   1      9.7389179825889016      15.720586476397026      4.2373405710398986
   273   1      8.4331545208609491      17.200673402156834      2.9220256065893122
   274   1       10.01802961368125      18.608100408338387      4.3732345842571618
   275   1       8.529151564174958      20.021727292650422      2.9878896526511753
   276   1      9.8928612623403787      21.530768723963831      4.3394989827709898
   277   1      8.5502903098166705      23.200627621974011       2.884048097031072
   278   1      9.9565298887881184      24.532726361562791      4.3999004434188098
   279   1      8.8188493107654384      25.886741227122432      3.0034167548645123
   280   1      10.126644641386015      27.453958727602558      4.3164816989623649
   281   1      11.556027274105984       28.64333689130871      2.7185559604982235
   282   1      12.879880819898068      1.5020700383753922      4.4455459774392247
   283   1      11.419116463035405        2.86839263925574      2.8444363495111133
   284   1      12.823092417668462      4.4492320814270112      4.1911976028679758
   285   1      11.480605752202059      5.7523143702474346      2.6542632034770239
   286   1      12.952575052537831      7.1505062779085238      4.1514610008683919
   287   1      11.522800566838079      8.5720437965652572      2.9008865926628706
   288   1      12.979682497572831      9.9329599796117556      4.1974726419210242
   289   1      11.420972431869965      11.567576020835954      2.8548455970053519
   290   1      13.074263638332818      13.044971943826821      4.4807047995170359
   291   1       11.56201355746982       14.24310732610048      2.9068053196852337
   292   1      13.137586914562418      15.682507571147179      4.4223407194804354
   293   1      11.336609331816266      17.111784280465606      2.8450679140107242
   294   1      12.863315725523208      18.536239577567788      4.2554302197632881
   295   1      11.453016864100816      19.940169229769324      2.8426502784382151
   296   1      12.773698566653414      21.334614121505073      4.2423605782027858
   297   1      11.505678056703061      23.020250467722533      3.0376669341399309
   298   1      12.948018935372733       24.30171416000254      4.2885049980324759
   299   1      11.522109410254101      25.825179638982892      2.9163945344256978
   300   1      13.006993512292476       27.32381205617471      4.2177897808120202
   301   1       14.40053369172691     0.11506496176848502       2.838548070765476
   302   1      15.817920701647035      1.5647766169494841      4.1107627059042793
   303   1       14.45001867444849      2.9949856279894211       2.841310125134179
   304   1      15.859900579019257      4.3019856984416585       4.348634953544706
   305   1      14.307324696193923      5.8153325806159133       2.724724638903512
   306   1      15.659592860569317      7.2073119597666571      4.2725437284877925
   307   1       14.46220931056682      8.7237543140775138       2.744180984933053
   308   1       15.83450382396331      10.044379050939943      4.1996703224519205
   309   1      14.543446058621971      11.514046236631081      2.8600055893457905
   310   1      15.719091590992722      13.178240836288232      4.2193469550606766
   311   1      14.409745368032208      14.577803039719768      2.7869277498870701
   312   1       15.73644171293906      15.835801227542431      4.2368452507535119
   313   1      14.185887186104534      17.055981336004404      2.6739744412766511
   314   1      15.657855162430268      18.542079530112836      4.3461727637098315
   315   1      14.485104253028013      19.896010548722856      2.8141822691204186
   316   1      15.628506405452548       21.35089569985935      4.3202661301560887
   317   1      14.313262297315879      22.834584062513571      2.8037245848456323
   318   1      15.681030139455476      24.285065881316065      4.2335067938177424
   319   1      14.215006891659458       25.78834680288027      2.7867595757377566
   320   1      15.784267654022102      27.557360840279525      4.1732875199362729
   321   1      17.246106761800899     0.13748845389458231      2.7680713415624281
   322   1      18.732657845071326      1.5803083298297582      4.1528413101769477
   323   1       17.36325841887297      2.9238976006609483       2.964067175920055
   324   1      18.711482165703433      4.4023244670915291      4.3015004807714696
   325   1      17.195673643553214        5.81137449419532      2.8187478253141993
   326   1      18.657952672688221      6.9969495567019573      4.1747101079958426
   327   1      17.081367434190241       8.443986036314671      2.8699168061061631
   328   1      18.711529838127785       10.01339680855834      4.1403859655893234
   329   1      17.093694343609762      11.591252316109998      2.6981609397374777
   330   1      18.604314188634138      12.926311468398234      4.2825515289279767
   331   1      17.304127245243855      14.235357363665468      2.7534938270191565
   332   1      18.688659773699644      15.770547059966185      4.5349159004178974
   333   1      17.284647091468553      17.116996420092548      2.9013257560580143
   334   1      18.677153749662168       18.63124016993218      4.3692611519626965
   335   1      17.191796761641541      19.950905232182901      2.9322750826611164
   336   1      18.576921777796901      21.469468630492081      4.2121593736552159
   337   1      17.035402158211841      22.980651630498055      2.8115007522374058
   338   1       18.49334144907672      24.564015676813501       4.341359709441635
   339   1      17.134090681402817      25.799922586531945      2.8339262037116204
   340   1      18.798530295325079      27.537108261166537      4.3561720070398682
   341   1      20.208720119128689      28.669676622632512       2.717514666142324
   342   1      21.448894046866393        1.50889811255646       4.151012060159438
   343   1      20.059523166139783      2.9139116885878775      2.6134116323414669
   344   1       21.61163429519976       4.447107203480785       4.311229033706482
   345   1      20.067126702599321      5.7066347297993705      2.7511054278626927
   346   1      21.551648463070293      7.1786086556511464      4.2428366124073129
   347   1       20.28300696712747      8.7025946913740881      2.8243898281892132
   348   1      21.649728502138508      10.165885155848907      4.2888159791013862
   349   1      19.989767498695791      11.596283282051012      2.9605745451707595
   350   1      21.382918546443538      13.021096607765692      4.3353702087980643
   351   1      20.121279373939512        14.3253892865976      2.9374244284582551
   352   1      21.479262354169922      15.668749409374531      4.6015773333327648
   353   1      20.066027690915512      17.165731077544613      2.8986711156413603
   354   1      21.469796368581573      18.555883032994597      4.2704728194789787
   355   1      20.105572256681132      19.932361113869565      2.9893421017236692
   356   1       21.45568182718257      21.550486174804032      4.3804337480914342
   357   1      19.904268889890982      22.944581178046697        3.01291126544207
   358   1      21.260116471690612       24.36946779568305       4.264546732801878
   359   1      19.899316484148613      25.679906759277301      2.6889217474350393