dump/Mg_1000_5/steps_91 (written by ASE) 

3995 	 atoms 
1  atom types
0.0      32.100000000000001  xlo xhi
0.0      55.598830921999998  ylo yhi
0.0      52.130399999999995  zlo zhi


Atoms 

     1   1      32.065180531215752      55.556315793653411      51.998968995202262
     2   1      1.8774048132305901      2.6745267129889774    0.066455642541874055
     3   1      1.3611442568595975     0.83236890733622171      2.4778446662408675
     4   1     0.26875089700628263      3.6811618336850427      3.1809399744421509
     5   1     0.16344859872356227      5.0658764931258764     0.15888382315102445
     6   1      1.6108334954214807      7.8287109318862713    0.038255700257852465
     7   1      1.5186644199146369      6.3339667177797487      2.7206191170567151
     8   1      31.996344364213332      9.1336813030065294       2.874658337859473
     9   1      32.014478153030801      10.700385233484068    0.059692445253069416
    10   1      1.5707094438714215      13.299899533645871     0.34141614515673724
    11   1      1.5097694898266369      11.773168960093152      3.2015096216586985
    12   1     0.16910110585979626      14.658730090719581      2.9442742740528831
    13   1      0.3128783794651791      16.366341208561067      0.3654912578618133
    14   1      1.2603859475829187      19.356580461646654      52.087117004599456
    15   1      1.2780439110457127       18.04155762069281      3.1837103446840058
    16   1      31.817829521965386      20.338217485610848      2.5212149169448672
    17   1      31.643564250445504      22.504011015209596      51.922951386979811
    18   1      1.5706331830116866      24.939200099662461      52.030005851352591
    19   1      1.0957216392372184      23.234587581212075      2.4753300478103601
    20   1      31.688221366198171      26.119271151295724      2.3601267543859836
    21   1    0.074151807413391432      28.331510166975484      52.015784919759597
    22   1      1.4313330391074406      31.092537800666456     0.18397080936650975
    23   1      1.5133619865561074      29.346015560501044      2.5481607603642265
    24   1      31.799461052998733      31.516552185838197      2.7854619312662403
    25   1      1.3795509513198012      34.415282145074869      2.2295566742173403
    26   1       4.888884740430302       35.81422019874055      52.009389084587511
    27   1     0.31654668813720516      33.116811786438689      4.8655204309256206
    28   1      3.3688462646439516      37.088177114371689      2.5416688010255299
    29   1      30.450502547900054      41.981976440363603      4.8900663938359195
    30   1     0.17223430535564424      42.440936435613708       2.303975280998654
    31   1      0.2368135997089921      39.254196196465955      5.0601470814064253
    32   1      1.6080031131969306      41.530530048040397      51.707957519183751
    33   1      1.8485183858249612      47.175544604339251     0.23588113236934716
    34   1      2.8472287852516649      48.159552426582444      2.5800283418202921
    35   1      30.445741514072434      45.309205183055305      2.5268273836910362
    36   1     0.20061078457702633      49.800679851351816       51.94380883852758
    37   1       1.150512926035691      53.222751951658552       51.91448389793598
    38   1      1.1431332294582761      51.179140358296202      2.3779072420290941
    39   1      31.443407521538823       53.79034104509369      2.3981386039773818
    40   1      3.2951462984348892     0.26068936072268778      0.2468829002848289
    41   1      4.7142343911116225      2.6330633145380151      0.1245147690894854
    42   1      4.4900910235826066     0.70260333434811273      2.9168062562868333
    43   1      3.2817145461739665      3.9710737153257529      2.9634078687743854
    44   1      3.3448031963018581      5.5882873513388693      51.903624637653394
    45   1      4.5557800411172051      8.0105258447977477      51.600347328947485
    46   1      4.7452619127358613      6.2531724237412138      2.5900042608150651
    47   1      3.3146865903813074       9.023240332948248      2.4268956786203115
    48   1      3.4082344979857426       10.96318850390138      52.033684410216672
    49   1      4.5126559370290442      13.992320982365454    0.067248918350451464
    50   1      4.4919407893363577      12.160104537566319      2.4270796935666086
    51   1      2.9229205161900751      14.898382343379001      2.6767074395627386
    52   1      3.0313391088663479      16.645304206717892      0.2365357295523445
    53   1      5.0005460670155983      19.388513202288969      52.045702310555193
    54   1      4.0712186843515337      18.151491918641035       2.879278577274158
    55   1      2.2761219336099558      20.709672810188003      3.1745485052900775
    56   1      2.9552472469812892      22.000914901705617     0.32138895662381745
    57   1      4.6820644441201322      25.205590341081486      52.002538510213725
    58   1      4.1268586578372126       22.95184916797826      2.8051685764946401
    59   1      6.3258763048129438      25.827148823661638      2.4557586300349423
    60   1       3.293796862167079      28.119337484740416      52.094185194836989
    61   1      7.9400352508886449      34.000404807403577       49.01899664380992
    62   1      4.8101745335915842      28.876383667915231      2.6552540985003557
    63   1      4.2178928980356991       28.40162264818424      49.590937714874627
    64   1      3.1773035944653021       33.51934884791698      51.789450861618938
    65   1      4.6090037040477032      34.291687372431909      2.6172971485855405
    66   1        3.17837429477968      33.592967896054532      5.3009356001913135
    67   1      3.0957427807109332      39.449503317803945      4.4128634676167646
    68   1      3.3259496286911436      36.893195111963784      49.430376238922811
    69   1      3.0632840429852708      44.070365382475856      51.881628335979805
    70   1      5.3657491673955588       40.18301956235269      2.1647016632589438
    71   1      4.6926614510842333      41.758320115896339      51.853532029737423
    72   1       1.515376001010424      45.447871117955295      49.799097579028121
    73   1      4.7978335037353252      47.524126397273577     0.32504859537535652
    74   1      4.7316019103355078      45.413834767989258      2.4499064347385442
    75   1      0.3590895929946456        44.5191693052505     0.49537909999084528
    76   1      2.9864401319299452      50.568274804275461     0.10432620458537814
    77   1      4.5758019281351885      53.045906897222501   0.0089537891855450396
    78   1      4.3860715543378301       51.02324961569127      2.7430654061890065
    79   1      2.8195743862006037      53.573213195498383      2.5704906407885248
    80   1      6.4143122983500245     0.20146330104558391     0.28940941760565098
    81   1      7.9505137784035176      2.8024762360690527       52.06278200745313
    82   1      8.0962627291093199     0.76000916926812412      2.9090806296238192
    83   1      6.3456739457957392      3.8272336297779641      2.8534375493974649
    84   1      6.3429163582806485      5.4180600984047658   0.0038537183975318849
    85   1      7.8803897347882303      8.2072717580472876    0.080301329941771346
    86   1      6.0143122421272643      6.0749842091020785      5.3347577670686483
    87   1      6.5860800877342491      9.5635037420476028      2.3677258174927083
    88   1      6.3668801286555876      11.246662499410711    0.029922173442511413
    89   1      7.6041635518130235      14.364837892359985     0.14072763577130121
    90   1      8.2945484957079643      12.160663296450348      2.4923505148316925
    91   1      5.8046626520432385      14.874895498334125      2.7964792670356249
    92   1       5.967791013700217      16.550494647057338     0.10310740428379055
    93   1      7.7994280595810164      19.829661950098149      51.629496853264961
    94   1      7.3921511404409701      17.983723301485679      2.7493646438002584
    95   1      6.4109636697045405      20.542968454270305      2.5961535608142676
    96   1      6.2558814828588893      22.606408126228711      51.890751598266327
    97   1      8.1510765382609254       25.21911984714307    0.015363478585015385
    98   1      8.3290732453091376      23.058064598895793       2.554828254214502
    99   1      6.3932055217597359      27.853804751285857      52.095039128536875
   100   1      4.8421255754920143       30.78427797974199    0.043755143879608091
   101   1      8.0687770570957582      28.895625106227143      2.4910438577894793
   102   1      8.0685225144222041      30.448926538811602      52.066765793675437
   103   1      6.2776044130935613      31.914107601925053      2.5496803074054424
   104   1      9.7349516445018356      33.502057271759966      51.608893443025273
   105   1      8.1523876389252319       36.09518924774531     0.32739849018096379
   106   1      7.7535814398566956      34.491299289773586      2.8235392746932555
   107   1      6.5986986199988085      37.206838374999336      2.7570266901652936
   108   1      6.7309025846286206      38.787250862032643      52.086510192450298
   109   1      8.0854560965748323      41.542111721946597    0.039516851948490118
   110   1      8.6077268324763541      39.665179640772145       2.673239771651907
   111   1      6.5245427059199441      42.918147194823035      2.6440351801560413
   112   1      6.6167945279361042      44.061872656502423     0.23549524275265743
   113   1      7.6750021760544849      47.063412800743308     0.10878512843217635
   114   1      8.4179663665865476      45.411322848045351      2.5762870986563025
   115   1      6.5003150884403373      47.790905782242049      3.0159422819101702
   116   1      6.3999135375934815      50.000841495650562     0.72177694761860389
   117   1      8.1481478767910964      52.675107033339714     0.46311386007135402
   118   1      7.5237656139021745      50.537581700362985      2.9810531006889853
   119   1      6.2442231023236099       53.80607198942419      2.6131483750606428
   120   1      11.326962841304985      1.4379680926037988      49.798547387646551
   121   1      14.640179397523045      8.6951416014159726      52.042455886626456
   122   1       9.419954344684033      55.551237246444039     0.21526748209623103
   123   1      11.275722364611864      2.7575835947736635     0.48750660303228721
   124   1      14.317274664097031      6.7260521196088359      2.5260964597864257
   125   1      11.343886642023939      8.7411579783490865      52.115713148401788
   126   1      11.206610215564934     0.87981919120900076      2.7246900204703701
   127   1      9.5797382302661216      9.5693576885498093      2.4331672291123709
   128   1      9.5803431632690916      11.371128917982539      51.886165378253956
   129   1       11.20157638167019      13.995214955407787      51.898516985436459
   130   1      12.924210909658072      10.748153882086404      5.3141176093779219
   131   1      9.3079457539098733      15.015117284130008      2.7289022705906425
   132   1      9.3027791103665418      16.993337742786998     0.18328157516457533
   133   1      10.729977390402029      19.630938848150919      51.615415974514093
   134   1       11.52400198106792      18.081136588403055      2.2693313276770719
   135   1      9.7250253140101357      20.667555127195808      2.0339184892538635
   136   1       9.270148180449409      22.497976205669925      51.654058819911384
   137   1      11.395837514497829        24.6872523123583      52.026670289332614
   138   1      11.729026211915025      23.300211223983176      2.4681360389559956
   139   1      9.5808987918321211      26.124542754962217      2.4391321491259528
   140   1      9.5003803762681311      27.879571869602334    0.086016202225716307
   141   1      12.917915366305847      31.330494674423324      49.428212264698097
   142   1      11.353480176197733      28.714959475713901      2.5726074279791802
   143   1      9.6844709411586649      32.104099247273346      2.2569865258637738
   144   1      11.211963297830478      30.517831061331247      51.695769693614416
   145   1      11.190586232730658      36.316837126323023    0.070596067236811305
   146   1      10.861342575899707      34.415454497813897      2.3384586919880732
   147   1      9.7575044274843581      36.987517056722183      2.6392632883737637
   148   1      9.7184349462057327       38.95641443425535      52.036912269883096
   149   1      11.016404860393838      41.645826691221288    0.010952963792297014
   150   1      11.438914703355554      39.914937963055891      2.6636074314815783
   151   1      9.7895829162259727      42.726405076246785      2.5269465360612351
   152   1      9.6879883978884056      44.553691278385585      51.899221527672779
   153   1      10.790478387927982      47.073651079184181     0.19499660867404506
   154   1      11.181946353524358      45.325143314933463      2.2656502238261864
   155   1       9.685426759203887      48.257288179617476      2.6142823796974626
   156   1       9.400459512943959      49.763691971931131      52.057941776938826
   157   1      11.020344820008187      52.964953455122419    0.027371384903760284
   158   1      11.202593807963273      50.960452559716337      2.5713659663949859
   159   1       9.545200835632107      53.376320361597386      2.8147156432084492
   160   1      12.514833665138202      55.585777464772086     0.30933615416035815
   161   1      14.305802374194608      2.9873915315174329     0.16951449471675431
   162   1      14.294009634005178     0.83304568038065907      2.9344212432407866
   163   1      11.130137479931228      6.6707694586335275      2.6746328737328371
   164   1      9.3133591415113006      5.5456446791944654      0.2807068182059157
   165   1      12.813645509268147      9.6363663389865302      2.5096097976982574
   166   1      13.206279218387168      5.5651050454484619      5.1472092215154568
   167   1      8.9328494273641397      3.5479341557449291      2.4591495956118892
   168   1      12.876202204183043       11.22960328401199      51.761995739358625
   169   1      14.111483812063621      13.966220930942628      51.878068536864468
   170   1      11.425367960892356      12.229930490214988      2.3698218969247549
   171   1      12.733732381281381      15.185317283204865      2.5198655115657878
   172   1       12.57186717200107      16.698804383903308      52.008806153269603
   173   1       13.83814629791012      19.225190142595626      51.732942339592974
   174   1      14.495905333390079      17.650906401234717      2.4525680063176343
   175   1      12.901323770225099      20.619213426700686      2.3004007743675041
   176   1      12.107760748752506      21.926176254026213      51.965148421269333
   177   1      14.793192315206074      24.964242054331265      51.975433501428654
   178   1       14.67063852719575      23.014265456864397      2.5053425838414252
   179   1      12.945578002321035      26.235634976056879      2.4970042204772742
   180   1      12.572393448599485      27.983874581834321        51.6697677619103
   181   1      14.877409647873362      30.596162057037468      51.959812767599388
   182   1      14.320960522360727       28.74699194544533       2.365666292801369
   183   1      12.909893782494892      31.384945722581325      2.4295447827617234
   184   1      12.776812410619719      33.183037794606186      51.948698888760745
   185   1      14.193160413453766      36.165886923905063    0.036536924651670778
   186   1      14.231791093033458      34.107823046018829      2.3838099036713682
   187   1      12.671124029319962      36.577540319106063      2.5576846352515359
   188   1      12.772419412953719       38.96737056784238      52.033392066164446
   189   1      15.807534242900937      44.462117404889305     0.18513290269896543
   190   1      14.809802911629109      39.796613688207835      2.7826445840298768
   191   1      16.095124213816906      42.774241031604241      2.7419575586046014
   192   1      13.072902805503906      44.211342580606207    0.072735168165898575
   193   1      15.845180763599151      48.193278998599602      2.3945242755171949
   194   1      12.957344487269001      42.827019801310151      2.7200958019043502
   195   1      12.814523080818114      48.084241791385445      2.4076370060787706
   196   1      13.850401794024174      46.835568412936247      52.128653393289326
   197   1      12.218948308777131      49.931596148082818     0.23169255363343416
   198   1      14.294209830030251      50.972478084711604      2.2296272726354718
   199   1      12.894248670578024      53.531717639241158      2.6821700403250293
   200   1      15.695511104294976      55.464390293421602     0.25145784665439463
   201   1      17.744195030388877       2.728606718163042     0.50783693843514044
   202   1      17.455763935193488     0.79773493578203769      2.4765355187715894
   203   1      16.176338395212177      3.7937245119512446      2.7188372570084027
   204   1      12.791176216126836      5.6896401697133809    0.067488817099062931
   205   1      17.787191981309757      8.2245346262133694     0.13327811940943718
   206   1      16.277513607449752       5.409499862568226      51.997455783819348
   207   1      15.952211517723279       9.673678845334571       2.940058149978404
   208   1      16.143840454911206      10.917495949073796      51.835372953664148
   209   1      17.598300898633365      13.941314793970063     0.23414381124945738
   210   1      21.232709120387746      11.925713205676908      2.4341637963841478
   211   1      14.674783056698571      12.139335175458307       2.174375830900305
   212   1      15.444104060610863      16.523554738380255     0.18328343688054036
   213   1      17.945598130835663      18.974711720958716     0.30681858398088063
   214   1      17.629814761681455      17.339985220904595      2.7272953602762526
   215   1      16.037211597835448      20.293445150658187       2.385770926601487
   216   1       15.97334204909145      22.273198127911648      51.977510127258782
   217   1      17.789029163109774       24.87621546834427      52.065139080010262
   218   1      17.949062612243171       23.01182776999288      2.3870517683037433
   219   1      16.233607640660914      26.199597693087718      2.6114381354090077
   220   1      16.412627157490395      27.627122736159695      51.860643442286879
   221   1      17.661887232605295      30.695898550763605      51.733124999649192
   222   1      17.634270506534737      28.671380420787266      2.3996910699394265
   223   1      16.005692326322979      31.525896880071095      2.4804571113285356
   224   1      16.215916823253941      33.236230536452815      51.971244161813871
   225   1      18.046057563807903      35.929888695624598      51.796788446456951
   226   1      17.655781205291202      34.133834551974566      2.7224822107116324
   227   1      15.948267404932535      37.062941405584532      2.3816257390957571
   228   1      16.197974990548772      38.765630857407714   0.0040456608204789508
   229   1      17.390198268501692      41.798401016124465     0.41173544378415239
   230   1      17.781262606386779      39.540441992568816      2.8019902070906868
   231   1      14.655948433963736      41.428710216972078     0.17958921245168274
   232   1      17.182747318237077      47.373077310694214    0.047964425751426787
   233   1       15.69327915069538      48.025976158828051      49.418612378197381
   234   1      17.788067019931578      45.695542326716719      2.5348148114088072
   235   1      14.392206902911511      45.466413827864741      2.6223833431616836
   236   1      14.993198934996972      49.687766389618531      51.727671598919166
   237   1      17.205011980341439      52.507746353747613      51.998233844592811
   238   1      17.372203276725987      50.532870609668478      2.2129951083935966
   239   1      15.626066790402309      53.795514042634245      2.4283667012236383
   240   1      19.101942594277023      55.222990562301725     0.29087382980516452
   241   1      20.546634973635694      2.8022200873345393     0.18161744503381247
   242   1      19.179021052471974      3.9860197744883985      2.7796022650797858
   243   1      17.432987125589129      6.6977886089845065       2.997278348340251
   244   1      19.409271450356453      5.4630418187991889     0.24069587360119932
   245   1      17.685653419450027        12.1576060888314      2.8212923988223459
   246   1      19.244151221799378      10.989839492883174      5.3632695342304206
   247   1      20.761049613154277      8.0553382816392283      5.8831971777546528
   248   1      21.199185254901341       11.13767947608487      49.565915558108848
   249   1      20.570492042936269      13.742277299211212     0.27182081275856262
   250   1      22.754120500271625      9.2011506424753584      2.5228364159953611
   251   1      16.009520703262179      14.660740412708458      2.6450388080471914
   252   1      19.245557868858597      14.884794989987761      2.5934766405565903
   253   1      20.876886626721699      19.521153924464748      52.037639382986718
   254   1      20.722243292903041      17.556932346502393      2.7187315925787101
   255   1      19.392091920772749      20.059009617754789      2.6229921163763725
   256   1        19.3004234297354      21.940103331208224      51.805858599418407
   257   1      20.753742117012031      24.914335791935706      51.958282114369773
   258   1      21.096639923642417      23.099830807582975      2.1570134456889125
   259   1      19.429617587924124      26.358093886690916      2.1772195915652959
   260   1      19.557438749887552      27.709981963858347      51.860700174485288
   261   1      20.935085327347611      30.528294003688121      51.995607985622698
   262   1      21.078678588674624      28.600866376578765      2.5372022679750792
   263   1       19.25944568110824      31.209063615920901      2.2143905235972889
   264   1      19.271850105597167      33.350061248896139     0.18165632364802795
   265   1       20.91712857991617       36.07709195551729      52.070141904625004
   266   1      20.921776478836957      34.298563730446482      2.4933254465390413
   267   1      19.082689568334555      36.825773599575015      2.5009399694292136
   268   1      19.579459071277238      38.435235569549747     0.12536520987023117
   269   1      20.818213798913895      41.533153933572869      51.888304440088611
   270   1      20.708722825778256      39.995281932292876      2.3428061070185517
   271   1      19.377107366392057      42.553137939697883      2.5958896248892991
   272   1      18.826344555636478      44.566251193768586     0.13612947316381679
   273   1      22.341445812741068      44.033277763840054      52.074876303687837
   274   1      20.745169509735053      45.043179434090355      2.3831447548404201
   275   1       19.26621818216022      48.335812799681207      3.1381366351612172
   276   1      19.135573883441506      49.836608722955631      51.940795497277875
   277   1      20.438686945060738      52.601347277869223    0.075329027451237582
   278   1      22.498127048898297      47.771241145900667      2.6755165497516429
   279   1      18.787072222753707      53.173279216878399      2.1578449583918435
   280   1      20.597560906784391      1.3223581409919538      2.6435189032385118
   281   1      23.866938018833359      2.5298807728296526    0.065186611800347904
   282   1      23.675432586581884      1.1767597799294445      2.7856120749855786
   283   1      22.401897051154904      3.8458010605776307      2.9520494676144557
   284   1      22.344049619143199       5.570250720365217     0.53193958966918597
   285   1      22.691615229538403      10.523467543066053    0.056511930737845335
   286   1      23.837097077903792      6.5664327174830062      2.8329772520889804
   287   1      21.484226696515861       6.112489099504085      8.1203146430518203
   288   1      20.889105085020542      8.3189717928247973     0.37684547436866417
   289   1      22.260660666934633      16.538443391566911      51.842376194780307
   290   1       24.19355358739077       11.68075214983463      2.3817595776343832
   291   1       22.28569757571654      14.742363408399616      2.2826733694185362
   292   1      19.546356863139874      16.574392973326585     0.18837035003784677
   293   1      26.199944318864052      22.205061903775999      51.842977333816904
   294   1      23.643019818223159      17.498645493424281      2.4867372201833948
   295   1      22.020448070143804      20.188277159425301      2.7925011248947511
   296   1      22.166993324124181      22.217206032104809      51.935803471634522
   297   1      23.797071505010283      24.802751597525912     0.13622120875989163
   298   1      24.663993148047606      23.101257480221655      2.4094138665984111
   299   1      22.333683793959786      25.798811091399326      2.7305328205646249
   300   1      22.653326295615258      28.269438146296991      51.782295871965204
   301   1      23.828104297361559      30.970456343027287     0.13566618760652072
   302   1      24.161988412688618        28.5432717163158      2.2126478204438942
   303   1      22.485120030054233      31.744549837742682       2.464554973410809
   304   1      25.906386115605077      33.430680986233519       51.79299724662954
   305   1      22.534941094478643      36.880460573491561      49.580170224991726
   306   1      24.558919113476239       34.41543330215314      2.5873463501073504
   307   1      22.556821377906104      36.962586416334716       2.722195873489524
   308   1      22.634098201354309       38.99995607895351      51.904276847646685
   309   1      23.932856667723332      41.770703842697742    0.055159965360039503
   310   1      24.123818549394393      39.719596608945466      2.7546654006732196
   311   1      22.626083954622157      42.029747863789829      2.4354498244374008
   312   1      24.100629711499771      45.059056085809416      2.5592713118949821
   313   1      24.022945971785539      47.145847520478441      52.042133885796019
   314   1      26.124343816985558      44.297381326672912    0.094276866032598425
   315   1      23.968726644416634      47.160777766264424      5.4373411181384066
   316   1      22.257330214119808      49.783515553839123       51.97132914561368
   317   1      24.131476207752641      52.190405391549319     0.26856557418268667
   318   1      26.790323847242938      51.081802428722774      2.8115243589485899
   319   1      22.564334782597783      54.893804025091761      52.057175343379626
   320   1      25.673121552823655      55.140868015395867    0.048758981663081985
   321   1      26.883649824283008      2.6926790110567316     0.18626886624108716
   322   1      27.019931360509002     0.70181321237694871      2.6336600589644772
   323   1      25.857132724203474      3.6645805157014948      2.9112929070812767
   324   1      27.408092947882661       6.483386941314639      49.948580812863852
   325   1      27.409520307123767      7.7615270802170686     0.41711066586426609
   326   1      27.589108430847688        5.77190849073392      2.7801544324439744
   327   1       25.65206886184404      9.4018530012850778      2.8760140805592385
   328   1      24.001805923378932      8.0211770504281787      52.103923871154052
   329   1      26.901800288042061        13.6555823724226    0.096046199520071249
   330   1      27.463911979117384      12.128377219448629      2.9791465425103651
   331   1      25.681658392550272      15.162618282682782      2.7229135959129525
   332   1      25.295474867507508      16.778590426889831     0.29652245952402306
   333   1      26.869069429969457      19.406291124840902      51.998936811062819
   334   1       26.86095304281087       17.89093836007795      2.5211711961516303
   335   1        25.1642593655661      20.306962927936613      2.4442842502204964
   336   1      28.870204443348598      22.320237962945342      51.910046934759912
   337   1      28.697516021745258      28.017514697022513      51.664647361186553
   338   1       27.56524077316973      23.440729629230557      2.2240701986777496
   339   1      25.856572374921146      25.774423685445544      2.5075762269271675
   340   1      25.645408335742825      27.428760809968399      51.884048391762647
   341   1      26.997433594377608      30.613989248089986     0.15043115632232043
   342   1      27.197986581329904       28.76273192044496      2.4627555716565581
   343   1      25.796553642589156      31.813118431829107      2.3821960410451264
   344   1      23.975438155372792      36.059485926702848      0.1111442112836335
   345   1      29.324590141478062      37.225690334642692      2.0765587789856714
   346   1      27.581513031196966      34.216871248645234        2.35271656309054
   347   1       26.36542896368551      36.887100686304208      2.7084290547932848
   348   1      25.892042951139462      39.023132907424625      52.097155136588974
   349   1      27.529709457642408       41.71002984613996      51.944470387797224
   350   1      27.616227491569099      39.699422940311933      2.4494864512110737
   351   1      25.829681999662519      42.240713895702271      2.6189808042782801
   352   1      23.870520214323392      45.177507811810514      49.351134195264457
   353   1      27.557580743034862      46.967988587014624      0.2927221450806099
   354   1      27.096955623707743       45.24258158893867      2.6988610517282794
   355   1      25.369119096699567      47.951769460851963      2.8619533539182611
   356   1      26.022940282008417      49.026959385639387     0.24977014124997446
   357   1      27.291750853521197      52.617828327000574    0.050330734460130575
   358   1      23.648098698021141      50.632726886111314      2.6060909632116123
   359   1      24.923270300904921      53.835234866663455      2.7620191104747582