dump/Mg_1000_5/steps_11 (written by ASE) 

3995 	 atoms 
1  atom types
0.0      32.100000000000001  xlo xhi
0.0      55.598830921999998  ylo yhi
0.0      52.130399999999995  zlo zhi


Atoms 

     1   1      31.910250820698984     0.43064839519227033      51.763772012691476
     2   1      1.6588739702801625      3.1376250742146481      51.815068781868462
     3   1      1.8331365954775394      1.2024265150873683      2.4865532610236234
     4   1      31.900866280167314      4.0668738563086109      2.4772036630419607
     5   1      31.928771890298613      5.8532859189097541      52.075336635303358
     6   1      1.2088861026293147       8.433178188158065      51.989114680535593
     7   1      1.7089167707477371      6.7182920981329985      2.3447016073219249
     8   1      31.832293069976561      9.2523130935819875      2.4100088290895019
     9   1      31.555363278061748      11.364584889268297     0.39005380021532993
    10   1      1.2236992732037515      14.271563739452674     0.22417348777995399
    11   1      1.2518936758884018      12.146533598134109      2.4611246056157374
    12   1      31.869053586957111      14.792991722123311      2.8056024115855038
    13   1      32.053844085321366      16.722627652114756      52.125300264603801
    14   1      1.6763113348400971      19.716041743664068      51.851503591572488
    15   1      1.8343999128594326      18.068149844898031      2.1787947453430672
    16   1      31.799997166015519      20.517620064108293      2.6247504944940414
    17   1      31.964831623808529      22.287740935704605      52.021282228626731
    18   1      1.2940858531619979        25.2239503167275       51.88309591946215
    19   1      1.4993869177145953      23.317811847916506      2.5059291154496011
    20   1     0.11612526079330955      26.130891274345043      2.6908470110471181
    21   1   0.0027984058207429314      28.092608130193256      52.023983537027512
    22   1      1.3405979268943307      30.710036846972681    0.013407262102805656
    23   1      1.5100534219436246      28.367252024730227      2.6493807215888174
    24   1     0.16270271722791216      32.046797427772461       2.680748888788087
    25   1      2.3745584634778911      34.475185777795453      1.9843081675820002
    26   1      5.0618470547591983      35.992679307260012    0.010045482840468706
    27   1      31.942001749460143      33.198689161321965      5.1097365341474204
    28   1      31.977113277554945      36.949327952377509      2.0049246343426552
    29   1      1.5884305850934359      39.674594509456284      2.4364325624651348
    30   1      31.942380934588222      42.631411284924837      2.5846098444310233
    31   1      1.1355724786723418      41.599324564430233      4.9389852563344467
    32   1      1.0799066178030599      41.367486178387814     0.18338850098725937
    33   1      1.7458096377597874      47.812389377816771      51.621623312287063
    34   1      3.0213874315068949      48.497589218268168       2.017954305905425
    35   1      30.414410891133592      45.603012638599587       2.694545530261955
    36   1     0.18457590106880345      50.582405637425445      51.705283738362645
    37   1       1.688298211754689      52.860426556906916      51.999179423301619
    38   1      1.7764552859440432      51.314077422160416      2.5312699684869413
    39   1     0.27163471713341003       54.38394727904668      2.4104069803151216
    40   1      2.5953439090279891     0.58709282417591424      52.021730091503677
    41   1      4.7411286682014993      3.0025919556945158       52.05716663446789
    42   1      4.5287688346858506      1.0656641053596307      2.7130455282234802
    43   1      3.3771539563821942      4.1543980771341129      2.3527343174940887
    44   1      3.1072229274358887      5.7708311413815725      52.080652713409094
    45   1      4.5295757450188106      8.9076032694309291       52.07597590119326
    46   1       4.553884044816332      6.9058862944032651       2.483397817362285
    47   1      2.7110701709825222      9.2321353803406012      2.4144948425594737
    48   1      2.7698015404075491      11.146866000579303     0.16701450162466314
    49   1      4.6780644772923434      13.940810106570593     0.20494905334192087
    50   1      4.1854743470778448      12.356179302163275      2.4617527882085088
    51   1      3.3548127663004794      15.395479416766227      2.6997973372188415
    52   1      3.1609915837309166      16.702098789207533     0.31517103893330006
    53   1       4.853988872877478      19.484899183948777      51.990634565869662
    54   1      5.4040743232055268      17.912451013958052      2.8048216865713855
    55   1      3.5358446715226211      20.621213896189154      2.3885425085422907
    56   1      3.8246738979901198      22.390360941407028      51.946319484098822
    57   1      4.8871924997390375      25.413654404234002     0.29410929394585678
    58   1      5.2132303678995706      23.329576580023595      2.1862897657111815
    59   1      3.3973250936146946      25.988153075583327      2.8390281026227582
    60   1      2.8261603678141118      28.150139694825604     0.34039902872057581
    61   1      6.9461601007009781      31.365043879876133      49.698528319207838
    62   1      5.0298654768012989      28.462636523943704      2.0634215707279955
    63   1      5.0838644861868199      30.677646556386676      51.985233242461426
    64   1      3.8816483203953021      33.273771756172749      51.808896310118925
    65   1        5.50981019219057      34.300307638442284      2.3436164529464025
    66   1      3.3932457796375126      33.390719883083108      4.8221597964955736
    67   1      3.1161118525809819      36.939553647234597      2.3465989143726018
    68   1      3.3414684017305905      38.718608091325365      52.080860949900512
    69   1      3.0786093031883692      44.940710850278442      51.706518652773291
    70   1       5.148477648408095       39.67429571953685      2.5304666171627357
    71   1      4.5714452986510885      41.584587939898256    0.061005573152775654
    72   1      1.5611717419042579      45.444178060209218      49.652327434097408
    73   1       4.683917161513536      47.238557498754979      52.118079175445743
    74   1      4.3418809411451944      45.677705677970799      2.6038246317059763
    75   1     0.19529290153072373      44.475933795539426      52.050194693832189
    76   1      3.6453585459559732      50.304663062728572      51.569907762972541
    77   1      4.2944771851754808      53.319371050638736     0.24780913925832193
    78   1      4.6387525981752056      50.729047721092506      2.7204673250953895
    79   1      2.8975344039962154      54.111945550170574      3.1394911492476916
    80   1      6.2951906587547102      0.1608975093885778      51.885603551236507
    81   1      8.1814624599902874      2.7037204506030839      51.933144184884888
    82   1      8.1913858718724875     0.98830840752694327      2.4383090652849821
    83   1      6.5223965807583362      3.9018883726610087      2.5287258955895795
    84   1      6.1135444555047282      5.7313168619362864     0.20356381212925367
    85   1      7.7050673254090558      8.4327387601507038      52.057628201701867
    86   1      7.7834308519399249      6.4262540907650605      2.7710074166016048
    87   1      6.2394864865938917      9.3329633915719334      2.3529777941602892
    88   1      6.4462196956127338      11.443892448144251      51.964925773363916
    89   1      7.9524793017223976      13.982471790516801     0.13409787955177035
    90   1      7.6407942601275129      12.057536441021794      2.5799334086482841
    91   1      6.4145708724942363      14.912549088341732      2.2816377012991382
    92   1      6.4058128005788975      16.546946937138003      51.874304424337041
    93   1      8.7793267620102675      19.134705682214875      51.904028221777054
    94   1      8.4120906755941967      17.460410082000905      2.6201955130623671
    95   1      7.1665237807134723      20.276558450545611      2.2005481717431858
    96   1      6.7495224708125443      21.382034912555611    0.018713369527493258
    97   1       7.961443159474249      24.438565248277854     0.39236376094322883
    98   1       8.602084125436539       22.72226147326348      2.7316575207287142
    99   1      6.7164401394192224      25.736067388290945       2.767231833836179
   100   1      6.4900557794882223       28.21281731001682      52.060944774722159
   101   1      8.5075555587113971       30.56366996055058    0.090706909656870935
   102   1      8.3455383777011036      28.683336609129039      2.2703686305614976
   103   1      6.7568853975470731      31.289543101899262      2.5362533857178806
   104   1      6.8620762857322983      33.138685104717538      52.042035704651752
   105   1      8.3130714905555187      36.052994742544634     0.11906054119520426
   106   1      8.2463922928036997      34.138176253378901      2.4820915590517814
   107   1      6.3678102455908538      36.991999230089711      2.6215204835290415
   108   1      6.8106777054967411      38.577203471873503     0.20321988691038306
   109   1       7.246432330568263       41.43069224421491      52.054910911902084
   110   1      8.4747619803653951       39.66324314039327      2.6598341895988282
   111   1      6.2087469662003461      42.374190550848276      2.3179521175502247
   112   1      6.1162973840328849      44.180706547639076      51.766780071977315
   113   1      8.0796820289328597      47.083846352377783      52.017041268383437
   114   1      7.3841058039358849      45.223134133113703      2.1415031213620113
   115   1      5.8730688319168394      48.132077150856873      2.3598123711926697
   116   1      6.5466241501979487      50.379431485346593      0.2587027481921676
   117   1       8.196353036994795      53.303916952594854      52.032103584751653
   118   1      8.1396799096851797      51.227559285717845      2.4847002445674744
   119   1      6.0634291226974879      54.309043044945803      3.0753905483975932
   120   1       9.909167985254884    0.073469332479801336      52.091003569338433
   121   1      11.253876556314681      2.9627753304062048     0.19924225405489665
   122   1      11.323301874474158     0.74903662428830875      2.7690587789080463
   123   1      9.2910752189610424      3.7167662094560403      2.6885168211168886
   124   1      9.3256798007427406      5.5538565749789877     0.13410825822179212
   125   1      11.122401724905306      8.1972287293528865     0.03878859758877725
   126   1      10.754098972086961       6.550404710097065      2.6179171786946283
   127   1      9.6704877091975998      9.0665021065904092      2.4773622374545683
   128   1      9.2538075588963888      11.093900494958609    0.082700465176535412
   129   1      11.282014647038567      13.571630314655236     0.02325448012266762
   130   1      11.390601352100017      11.794349421892335      2.4492093774915284
   131   1      9.8433421934461549      14.968249820968566      2.8599454715169292
   132   1      9.7479300254855445       16.57671634115918        51.7782663561755
   133   1      11.404355527956016      19.270426628177855      52.123954664342143
   134   1      12.023801711579853      17.672761885119272      2.7892986501177393
   135   1      10.272171819583759      19.818142684031336      2.6328008016312068
   136   1      9.9356128703087698       21.88110034702882      52.115203926663071
   137   1      11.242774305890528      24.654032131944298      52.129342622720394
   138   1       11.51751636124361       22.89526250429601      2.9584590122403975
   139   1      9.9565999312260267      25.825840764071739      2.5344343515105678
   140   1      9.8152628169390397      27.588464634707698    0.012046210728247927
   141   1      11.303786943357963      30.654765293996572      51.869524781934977
   142   1       11.58232711104951      28.729814854319276      2.5246567507049011
   143   1      9.9944384430374473      31.468989287218637      2.6036489426183715
   144   1      9.8680702442684911      33.312690643686324    0.057317699160040009
   145   1      11.406876145120942      35.829926429917549   0.0031303658793219247
   146   1       11.12735359702091      34.538388209497356      2.6704763981294732
   147   1      9.6003277347127138      37.163854727471545        2.64803378473824
   148   1      9.6689966790865114      39.213286332358201      51.831660457290688
   149   1      11.205503027413913       41.55990867848368      52.014086841217598
   150   1      11.179520686742888      40.037169862511661      2.8297697571411664
   151   1      9.4140603397989278      42.574827327725295       2.602758911309603
   152   1      9.3514446850880866      44.217532615547846      51.914455700221637
   153   1      11.173744917421137      47.098635891052133      51.956886597431073
   154   1      10.908217884836212      45.694826139201808      2.5019356542924664
   155   1      9.1724182780533212      48.450502369591611       2.172851611226529
   156   1      9.7156937628762403      50.021408281755264      51.810192054426849
   157   1      11.062687695747112      52.873528430922256      51.852010800536611
   158   1      11.574405671800351       51.04945271460803       2.542370422058263
   159   1      9.5003569472054608      53.653627802454686      2.4028365753438052
   160   1      12.706923796136612      55.437186825638371       52.05003013939519
   161   1      14.292285554501438      2.4441626953558262      51.819647526862944
   162   1      14.388718027896838      1.0089399064783031      2.8820235063126165
   163   1      12.538991524074206       3.849265601056306      2.6574090639955883
   164   1      13.211613204624479      5.3337033273992978     0.11161513187244676
   165   1      14.133654567475991      8.0343637082432906      51.992677078305505
   166   1      14.623738665106272      6.6175730780284967      2.9153914104228584
   167   1      12.857909632314639      9.0218964627740021      2.5758615236988005
   168   1      12.898672374361061      10.713477939143043      52.023976893861786
   169   1      14.309262021220297      14.031352361236383      52.130029800246895
   170   1      14.759803084972539      11.756213834465729      2.6937863773034545
   171   1      13.080722937399655      14.880261881860044      2.3343850393649634
   172   1      12.678807892394477      16.606413483658581      51.839882479109356
   173   1      14.351185633279201      19.272760148751445     0.17532268676692953
   174   1      14.803058443134743      17.243396759685101      3.0798050044522296
   175   1       13.23220245991919      20.452111135164071      2.6490811107536114
   176   1      13.023545882362116       22.29203669010403     0.16190225447507803
   177   1      14.799471871055239      25.294863124757587     0.11369254972542248
   178   1      14.930984722147727      23.147486655580206      2.7662895841836126
   179   1      13.246533653229536      25.601611907835977      2.7725015208333392
   180   1      13.118539717890497      27.500067951229269      52.086598297723356
   181   1      14.321372078494713      30.456849599062995       51.78939100801545
   182   1       14.63584728899731      28.645290667548299      2.0618845253571867
   183   1       13.08059890612876        31.4516454281958       2.548008298917197
   184   1      12.693257320910506      33.028557223472077      51.975766959233489
   185   1      14.723209943676112      36.056412536348056     0.17063354823323598
   186   1      14.243462119937231      34.570440790730132      2.8355347875197694
   187   1      12.741318671124356      37.106096124367461      2.4036547081055777
   188   1      13.262546126269974      38.997280867349382      51.911879965265605
   189   1      14.299631538078286      42.049080928884713      52.021314082823828
   190   1      14.272516345300289      39.791084585381405      2.8184744079696298
   191   1      12.652685621621306      42.713515327498428      2.6960421993877346
   192   1      12.759411868103699      44.434366752798397      52.101455729589183
   193   1      14.426552935525077      47.038357615241324     0.26706108218369107
   194   1      14.304779421446506      45.561855493904595      3.0324975597931596
   195   1      12.727286080063408      48.246738819532389      2.6188383116039682
   196   1      12.983183405222556      49.578416971950148      51.932837150400076
   197   1      13.785755725315438      52.298177873086388     0.64093643215031304
   198   1      14.805203821158136      50.527006716763196      3.2158094092725436
   199   1      12.306781165308427      53.819954677799622      2.7585287704772341
   200   1      15.793598025782847      55.243220037971845     0.10494469864781877
   201   1      17.228422062799705      2.6179300371857086      0.4514171780406615
   202   1      17.461175393691462     0.87448067022167686      2.8617184968715828
   203   1      15.490498388438347      3.9375949453979344      2.2834746094483158
   204   1      16.107781944113324      5.6012966356205682     0.15062758687276984
   205   1      17.628211703601835      8.3184219534576052     0.35312187056050348
   206   1      17.626056895792249      6.5991785409762134       2.545404237146029
   207   1      15.846786603032609      9.2739665064742969      2.7522014452489758
   208   1      16.080172417369692      11.389295865852324       51.92934879539056
   209   1       17.66112088243413      14.195260456215943      51.950349559839907
   210   1      17.886792890238517      12.157721028881742      2.6836277133429318
   211   1       16.13158267101754      14.815974810603116      2.5107194297046869
   212   1      15.794291571172321       16.46638795577293     0.16460803042346053
   213   1      17.696382951672692      19.486032731538593    0.098624341596762019
   214   1      17.931813881327386      17.579759613321364      2.6697987025044738
   215   1      16.307247951803983      20.316384654862489      2.4339412338386914
   216   1      15.954805120998694      22.287482697845252       52.06777845047889
   217   1      18.525700323022271      25.041011486599118      52.038850092899956
   218   1      18.095368476629751      23.210024020069746      2.2552992652106454
   219   1      16.457796847983143      26.113942410245393      2.7850890765771643
   220   1      16.366137186870471      27.719917144350294      51.407761640092879
   221   1      17.403622926569785      31.261545709534108      51.817447605776842
   222   1      17.991668570052145      28.351382191229249      1.9766663203302468
   223   1      16.145884648794119      31.083876188544888      2.7858375525769405
   224   1      15.642324633893795      33.441473617498865      51.873175265479624
   225   1      17.393456614308327      36.428520290017254      52.027952562907764
   226   1      17.259453506706116      34.515602116413596      2.6754536800162168
   227   1      15.871959872584728      37.111211049985712       2.686754652176607
   228   1      15.870098237313684      38.946969925096084     0.25186390682437049
   229   1      17.326886929617348      41.923996775775919      51.799934418291897
   230   1      17.429120288519734      39.955579453104939      2.5638991848299182
   231   1      15.627434362343319      42.578866043514964      2.7176007197095173
   232   1      15.837559962796641      44.334842731480627     0.33090320101941045
   233   1      17.275189806675133      47.091002214655539     0.37230452854909063
   234   1      17.693207626142126      45.040440682177127       2.952462372476234
   235   1      15.905483931125298      47.799915488370033      2.8887268587721762
   236   1      16.028273728576032      50.183068410081312     0.19316335441477717
   237   1      17.469332850289199      53.046569824490348     0.63766372118531311
   238   1      17.634817504974862      50.964987552925358      2.9290056152355275
   239   1      15.469918008451655      53.497050207645444      2.7273258112849326
   240   1      19.049806887618761      55.553694024763594      52.053684523335292
   241   1       20.55270681093938      2.6122904247986489    0.023933528030079674
   242   1      20.550514567185346     0.91627010654128815      3.0090974312082812
   243   1      18.943302151865236      3.5455100143967289      2.6839763264492733
   244   1      19.363449249854046      5.2579198712998503    0.077480263670972258
   245   1      20.570354693849755      8.3923259616287194     0.17934520676471571
   246   1      20.541245995067172      6.9819807778445018      2.6602323328591728
   247   1      18.836568930863059      9.4565996634993699      2.7579247880525353
   248   1       18.92555764250638      11.029795623897089      52.113996934243367
   249   1      20.623864905691054      13.783791219487192      51.902388217694082
   250   1      20.773444022538186      11.715619963578575       2.205134687940332
   251   1      19.173343093527308      14.586990349719628      2.6148754696625791
   252   1       19.30972498163451      16.484477182027078    0.020666315815870074
   253   1      20.587103933352228      19.377313857253792      51.836483911096877
   254   1      20.610933111036601      17.779907229739688      2.4619607978497227
   255   1      19.221138001523428      20.549888332808248      2.7728712485967684
   256   1      19.235075588883937      22.031182127666096      52.002630846784697
   257   1      21.192368444585156      24.837778601225967      51.448430790308009
   258   1       21.02062874733781      23.022375713239338      2.4563871055291844
   259   1      19.696244184932308      25.814220049390315      2.5905490835541403
   260   1      19.568946808354838      28.015766319372975      51.924220026163717
   261   1      20.619405702201512       30.70991100390842      51.886072020063004
   262   1      21.521054442483877      29.090731488926981      2.6733949580747618
   263   1       19.60989332005277      31.759451273455952      2.4304213703004853
   264   1      19.056552202243545      33.807468106186739      51.914457742854147
   265   1      20.963271211904178      36.505146385615468     0.10074070629621178
   266   1      20.431834621787292      34.676478227254577      2.7796418830062009
   267   1      18.884208597722594      36.937183201709907      2.7843720395166334
   268   1        19.2985994541284      38.717288167705028    0.046529464611004795
   269   1      20.604973222828082      41.776825757649391      51.968895218831356
   270   1      20.338230860412281      39.967388913853128      2.4192797010371145
   271   1       18.99344164405716      42.539868193563962      2.5907091153800526
   272   1      19.093541181167957      44.332942106601223     0.18081103151955663
   273   1      20.307186815290734      47.556338548105728     0.61827730784543544
   274   1      20.831075008827071      45.525772607393236      2.7250846435791165
   275   1      18.863236007880428      48.099101557429222      3.1336513015246887
   276   1      18.787357197525772      49.898874483391509     0.49311477762386507
   277   1      20.376752328775975      52.574164472143309      52.025554668720169
   278   1      21.036583437292499      50.813789456506484      3.1778728668066831
   279   1      19.041924405588354      54.157955475166467      2.6865220711466171
   280   1      22.052297277765216      55.572660117205082     0.47190992213805982
   281   1      23.715478027205553      2.9859664165460891      51.936139151071146
   282   1      23.913350918186552      1.1927189574112274      2.4975146173541138
   283   1      22.134966162389386      4.1810995849574404      2.5626953840388742
   284   1      22.354640875140731      6.1555812050514804      51.997939742799836
   285   1       24.07888688432557      8.6163427581068177      0.1695578985586145
   286   1      23.424570676751241      6.6730400018966032      2.7996186503001428
   287   1      22.326645493245302      9.4390689937292187      2.9118519364190623
   288   1      22.232661088056044       10.86428966062299    0.086522592056039599
   289   1      23.668236652820735      13.650469874265596    0.033730142024607453
   290   1      23.976736221086053      12.082084803010254      2.8495486064000812
   291   1      22.215839912944251      14.622507526194971      2.4598546639175525
   292   1      22.262174333846065      16.681240299525886      51.868007877357329
   293   1      24.107033387631116      19.305400416957724      51.870803202378809
   294   1      23.569283797055771      17.363468432841977      2.4395159009565788
   295   1      22.323577041414165      20.418107770537016      2.0664535827903263
   296   1      22.374944452474253      22.244347268245686       51.71479542224094
   297   1      24.606770162650996      24.546919075510463      52.087974978413015
   298   1      24.000136658209446       22.86262564962966      2.4558489489863788
   299   1      22.772564447668799      25.983283240546619      2.2908467442769931
   300   1      22.364444140792649      27.993133548026503      51.856823832314227
   301   1       24.03453285485584      30.936672790996607      52.016300200532392
   302   1      24.441528853791169      29.529606040770947      2.2828060268450914
   303   1      22.345181219330584      31.828007934513476      2.5868689595144607
   304   1      22.466490960455243      34.068573054572255      52.098581834345346
   305   1      24.107694878987843      36.630146681517651    0.051610999480378512
   306   1      23.461149353347992      35.135179947099438      2.8351222966327541
   307   1      22.016208240040548       37.61257868232498      2.7211389084897029
   308   1      22.547125729650539      39.144558619166105     0.27324315733177684
   309   1      23.535823516336613      41.934051148250077   0.0055049338561086233
   310   1       24.01443269121722      40.161268819224368      2.5724387486256743
   311   1       21.76579156145695      42.396124317943816      2.5759584690438544
   312   1      22.477318893249354       44.64232794295053     0.54028771272363074
   313   1      23.827658120415318      47.564464432327568     0.22457758378186188
   314   1      24.254983583341573      46.073845315482544      3.1126516442775318
   315   1      22.256464824985869      48.596198812983452      2.5560019630800164
   316   1      21.810423786981033      50.104249935523086     0.26496239998700083
   317   1      24.382860894282263      52.969994416747049    0.040534621584219964
   318   1      27.512566834099612      51.370078412346089      2.5028454237541369
   319   1       22.17533086200709      53.745825478900848      2.6375220415906067
   320   1      25.469051158389579     0.53392045385795883    0.008463393380716203
   321   1      27.474657739524897      3.0283374241904841      51.849869380484144
   322   1      27.272531124871122       1.016890247338734       2.524721984140188
   323   1      25.333438204103938      3.8664587000137942      2.5927265009710152
   324   1      25.560583878449627      5.5558596577808199      52.117087492955918
   325   1      27.212295903965696      8.4780996814144771      52.031376186925186
   326   1      27.216177067705516      6.4683154890883516      2.1874518574968125
   327   1      25.362006152315431      9.2924717720795691       2.827959720939262
   328   1      25.672566590328557      10.987815635585473     0.44315961230902878
   329   1      26.874811215574749      13.641802032012023     0.21854426291722429
   330   1      26.781044498393641      12.117373157565646      2.9470144680700994
   331   1      25.414089352140088      14.981504495592024      2.7643987715247222
   332   1      25.140734864667056      16.472061801564472     0.18625710564409859
   333   1       27.13642553362849      19.144920602712588     0.24829036228999513
   334   1      27.082298708376111      17.565985355501397      2.8206281811042166
   335   1      25.387828421927487      20.147279351614781       2.395220749604499
   336   1      25.931970555241325      22.019254532003881      0.1155807645920382
   337   1      27.253937539417802      25.265463144437295      52.004260141751551
   338   1      27.306362838779879       23.32053344114756      2.4491244710834295
   339   1      25.726283707859729       26.81082189616566      2.4974835804950692
   340   1      25.683605540554272      27.908515409029892      51.854159542056244
   341   1      27.470248254814901      30.900011294873003     0.30570799700137707
   342   1      27.569887514875109       28.87563838818987      2.5880917307462332
   343   1      25.202132880225331      32.412658538955576      2.1727809560202873
   344   1       25.69043792473456      33.532591197188665      51.787362948912026
   345   1      27.330192657238605      37.211476813195517      52.090590528044729
   346   1      26.672928067686257      34.841759783846221       2.248154219956743
   347   1       25.86065942562082      37.906196462345918      2.4945562773144876
   348   1      25.520239468433982      39.676747235794913      51.688364986531951
   349   1      27.318328180632186      42.547353620538914       51.96594348207185
   350   1      27.336049939655862      40.079375741427675      2.1970502009397697
   351   1       25.42917765342283      43.110748066900946      2.6848209774209071
   352   1      26.012177936371241      45.041090215634789    0.091755692777371251
   353   1      27.494331205623997      47.915634963729239     0.25854273824703994
   354   1      27.343875416787419      45.792401437572394      2.9508908202273831
   355   1      25.701901633116069      48.427536446247558       2.862746663057703
   356   1      25.190944083832097      50.213862756320971     0.43417363210626903
   357   1      27.347366291556902      52.523434054781163      51.837078122606393
   358   1      23.717845496725896      51.062159155772363      2.9881590160552207
   359   1       26.16303187015037      53.783196845931734      2.3888333672938815