dump/Mg_1000_5/steps_61 (written by ASE) 

3995 	 atoms 
1  atom types
0.0      32.100000000000001  xlo xhi
0.0      55.598830921999998  ylo yhi
0.0      52.130399999999995  zlo zhi


Atoms 

     1   1     0.38854238861709289     0.20124374558159916      52.068158624993465
     2   1      2.2612987323550713      2.5035456224603445      51.766278231732706
     3   1      1.5504819586043608      1.0961410770126769      2.6384548118011866
     4   1     0.21843340370467146      3.9261304226278217      2.5988567305546879
     5   1      31.799293139282188      5.3494632819713912       52.02171448129576
     6   1      1.3769421522161787      7.9169355614377581    0.094786990472307611
     7   1      1.8012242916233268      6.3103209032185692      2.4991748029159466
     8   1     0.38670247720002709      9.4728245277345682      2.3905497086565948
     9   1     0.13114075869934905      11.479067035123677    0.024840401790072048
    10   1      1.7632413702890311      14.219409014842279    0.077416045250541951
    11   1      1.7883383906921624      12.221572974440399      2.1307535570618836
    12   1    0.071984534210083564      14.961170677825191      2.5480035872702298
    13   1     0.40022935155352762      16.635288107970482      0.2021473467551605
    14   1      1.7793944052102963      19.569740166922781      51.714604261534582
    15   1      1.3130794179425507      17.536821864007802      2.7119588504959586
    16   1      31.669184742540303      20.781141095598521      3.1287240803239871
    17   1     0.14493745655522738      22.006496102816261    0.021255396002333317
    18   1      2.0766626345038568      25.031428074293988      52.090254199672678
    19   1      1.5943737814383234      22.949364302875107      2.6547479313538571
    20   1    0.010081340124601769      25.643117041174975      2.4892093476548305
    21   1     0.36673734609687841      27.356013124642292      51.991250329829818
    22   1      1.4897694401500368      30.298103366015191      51.816823415260139
    23   1      1.3974529513058778      28.599354018400838      2.0248831587201859
    24   1      32.093152787582973       31.24894993350556      2.3143756867195919
    25   1      1.4376243521068679      33.888529669000278      2.5086586787173304
    26   1      5.2696661163328162      35.768262293454363    0.062754952915367465
    27   1     0.35542496195985379      32.624770547199745      5.5450650037050302
    28   1      1.1959666031995124       36.05342702545088       51.98534381491401
    29   1       30.29057803595682      42.029966401318042      5.3817912387029763
    30   1      31.941194873120875      43.263986667613899      2.7763904177163106
    31   1      1.5641140782381884      41.887462058291632      5.1632996507102114
    32   1      1.4307608634102653      41.941307659004259     0.35770253284115172
    33   1      1.7352225655749363      47.325313889748841      51.922883460263833
    34   1      3.0685638381895903      48.105558375609277      2.2273813496752024
    35   1      30.363147444202944      45.540910426368555      2.5812281018605869
    36   1      31.747441323454023      49.950619207305067      51.817626828890063
    37   1      1.2645671904229006      53.090766586666788      51.771099755806986
    38   1      1.4138275740155952      51.065668666481514      2.1764209708589144
    39   1      31.742929226945993      54.067724704985608       2.279563928031402
    40   1      3.6440935887799246      55.311511236141669      51.881904571419845
    41   1      5.0475793878740101      3.1744329604423878      51.483119609350403
    42   1      4.7845717086959585      1.0496355673188977      2.2410887536964186
    43   1      3.2867446645220557      3.6937771332995286      2.3136161466572625
    44   1      3.3772627259797208       5.646364872614015      51.901502052066064
    45   1      4.5972091027822843      8.2116353791221517      52.085516294747123
    46   1      4.7978681491660371      6.3796077153820256       2.492572418191775
    47   1      3.1502218250355001      9.1990902615692711      2.4260973795887537
    48   1      3.4504675327735903      10.927134486821885      51.966590629975919
    49   1      5.0203341722315065      13.597650075003212      52.006816037136744
    50   1      4.9260329591105778      12.185387586575974      2.4262240980588801
    51   1       3.655124682620992      15.135485003455784      2.4354415784269885
    52   1      3.6371995492058566      16.579839906437794    0.045290798398083566
    53   1      4.9013368067894554      19.503951052061833      52.015931642214639
    54   1      4.9983786504221479      17.761584195491626      2.5922226218483844
    55   1      3.1457857124053956      20.210354562710499      2.2920613182382148
    56   1      2.9409593171489217      22.320494368578345     0.17638982343457044
    57   1      4.9281660295599403      24.815097977610829    0.065183142498466351
    58   1      4.4432448311001114      23.348695302621856      2.4851055796904369
    59   1      3.0976104799275417      25.875952319110986       2.363448331655428
    60   1      3.6156267560902449      27.542758280296315      51.910686277389615
    61   1      8.2272798295813683      33.957356245273722      49.372706733166851
    62   1      5.0159431784295503        28.3255320961633      2.7061661861651571
    63   1      5.0164468632642594      30.415222215098797      0.1668021920710146
    64   1      3.4055680509681889      33.654107185123372     0.29320672789169949
    65   1      5.3868064161875662      34.172284192422595      2.7190611379483154
    66   1      3.4041257148560899       33.02390188880797      4.9411677946496084
    67   1      3.4036589465031182      36.781389623949551      2.4719846688556348
    68   1      1.5919804660238295      40.255234018956791      49.736508385418368
    69   1      2.7874775585098019      44.586951921716626      51.953595873641682
    70   1      4.7582384937774629      39.803101443946822      2.8812440105874257
    71   1      4.5440458598282705      41.621542636345794      51.940107483513586
    72   1      1.2617998140149054      45.907373316208258      49.533783659772759
    73   1      4.8590733388192442      47.399779932328094      51.942085375090251
    74   1      4.8923356956736885      45.758997299777839      2.6642617139949163
    75   1      32.099094302761067      44.818192162974825      52.038778326713349
    76   1      3.3371149924489298      50.586919757621779      51.999847251761487
    77   1      5.0771104289589646      52.976781601096263      51.915713900204786
    78   1      4.9124107228220799      51.070375509536028      2.4396772196951639
    79   1      2.9515612223402097      53.793023887929657      2.3186821696963169
    80   1      6.2543821309436218    0.012945804709680441      51.815293461243741
    81   1      8.2339393701543919      2.2692021579528197      51.866899800362468
    82   1      8.3348482160149668     0.84588572609491652      2.6150450736393487
    83   1       6.212502358605593      3.2656821065728905       2.530762673004213
    84   1       6.390803458005351      5.5460688808809255      51.864405616589657
    85   1      8.1926565790991308      8.3759490327036481     0.20625832949417205
    86   1      6.0522734574163799       5.594992916266472      5.1052281440406446
    87   1      6.6602164339169727      9.6573087856811437      2.5226340264271432
    88   1      7.0614147776090688      11.298806918561905      52.030606853557224
    89   1      8.4880566091570913      13.459116580351624     0.54423582443276219
    90   1      8.1989326997737368       11.96988099772393      2.7821697801170009
    91   1      6.7598320931105249      14.976355918486183      2.8031133017372216
    92   1      6.6758981217839866      16.140329454095831      51.977160385842872
    93   1      7.7353483481519927      19.370021298428149      51.867299780681407
    94   1      8.0214470526177912      17.593164714787267      2.0430148753260045
    95   1      5.9272611347873863      20.702817972827262      2.4201892080952812
    96   1      6.4964522365533268      22.194482577761249      52.064953351114426
    97   1      8.5319615958370409      25.212483958052339      0.3078141796852662
    98   1      8.2667529871404213      23.204402927036437       2.380949324445039
    99   1       6.919599695636216      25.782738919287361      2.6774976718972834
   100   1      6.8702268494278815      27.664761107494687      51.801223875553987
   101   1      7.9050107766407463      30.510580444490213      51.528511793500549
   102   1      8.2829190471631158      28.673460192534989       2.983333275164525
   103   1      6.5293430434609343      31.558045005525361      2.4062015100740095
   104   1      9.6208356937816948      33.072090885448375      52.127095840773308
   105   1      8.2737134977361091      35.409605133988741       52.05691290926368
   106   1      8.5250565899956463      34.413676429609154      2.3841992355530635
   107   1      6.7548224065357356      37.220738806236703      2.8199432973858838
   108   1      6.1927899871194105      39.319558941081439     0.28670770199523776
   109   1      7.7830010347995167      41.862541037664421       51.78671561630437
   110   1       8.586342500814057      39.701369707403174       2.569585800649727
   111   1      6.7315217617719991      43.041485355501273      2.6170574228800509
   112   1      6.2083957533299134      44.612834365023559      51.878864542218253
   113   1      7.6639999968511958      47.362475846572877      52.097739804824734
   114   1      7.6530690404666322      45.847179797870851      2.6713413924604517
   115   1      6.0596337263092677      48.352482507000488      2.2600945935914667
   116   1       6.214001449355294      50.055430542636046      51.635882634301431
   117   1      8.0936014590196574      52.911004378380845     0.45556737094826061
   118   1      7.7053850571584706      51.305502171979192      2.7640651810127985
   119   1      6.6225920202141131      54.390716811042239      2.8419963477959054
   120   1       10.67185330410501     0.62334363368880541      49.574280091018558
   121   1        14.7231044796539      8.2680042232875177      52.077293587458861
   122   1       9.834471417338202      55.390429506758508      51.983233944061091
   123   1       11.48131195486476      2.9432424826140631      51.939916420947775
   124   1      14.425532997451841      6.8868820729604563      2.5553794899265512
   125   1      11.800460992752445      7.3567802874129171     0.74403788068185761
   126   1      11.670439778664822     0.94485856122925294      2.3357841732652846
   127   1      9.5469912017559544      9.2909320625558198       2.652834298195855
   128   1      10.160597426141358      10.843538776707371     0.18288569257118156
   129   1      11.559036517917123      13.597516418040776     0.35620733600429627
   130   1      13.109964874651016      11.357829679230964      5.3446334260932558
   131   1      9.6091885217719994      14.916608119600465      2.3152574136533799
   132   1      9.6600014297387791      17.040191451154222      0.1525674301612889
   133   1      11.143202190452131      19.469807696987946    0.057006613470059406
   134   1      11.584202102260909      17.712416467173124      2.9061341727301837
   135   1      9.6546966418103111       20.25514945919755      2.3246519902179275
   136   1        9.38645545016435      22.137095636478136      52.036227809195282
   137   1      11.436850645815147      25.056628185054578      51.900183700463351
   138   1      11.119008930031832      23.371043581008095      2.8206474433203748
   139   1      9.9212315225962548      26.204993823196961      2.6754847616443489
   140   1      9.8142059867069715      27.885622820021148      0.4176241021376802
   141   1      12.581537187969728      31.336187149463004      49.337138276518367
   142   1      11.624005338165858      28.913237668397709       2.812587784375193
   143   1      9.6621506207464094       31.59751045829794      2.7395884184734829
   144   1      10.586391063535929      30.432238768200925      52.126316027684844
   145   1      11.356159756913975      35.775298651676579      0.1088267285314886
   146   1      11.316592171762405       34.26016136612121      2.7417726270121676
   147   1      10.104553693695641      37.097190351234651      2.3816432480516356
   148   1      9.1519645231112463      38.760504449368064      52.060806459497222
   149   1      11.310639309628007      41.500276296506243      51.998653489563715
   150   1      11.651724916256388      39.829906350564514      2.4541351283472079
   151   1      10.091914172022838      42.440871237584467      2.7054783206028898
   152   1      9.0680734045176745      44.572830812816953   0.0033531801012398337
   153   1      10.729850122951822      47.283731052587378      52.037705442051312
   154   1      10.743044744017636      45.252796043696776      2.4428192288081951
   155   1      9.1609769860186869      48.796941156638709      2.6102191140356124
   156   1      9.7064622249567929      50.302836501364609      52.013528840786464
   157   1      11.346164746998058      52.593295850282132     0.17340856480565883
   158   1      11.714706630664189      50.858204384652289      2.6042717996338554
   159   1      10.230394194295695       53.85634172686899      2.9501275035483441
   160   1      13.000279543508398      55.237862694160185      51.755708835725287
   161   1      14.312449471149566      2.6191352026193462     0.43426964934918127
   162   1      14.445072869351071      0.9837451190598695      2.8219374768259033
   163   1      10.750932140281268      6.3251458474241522      3.0394774714715158
   164   1       9.450289329076563      5.2514003062549728      51.963407498377535
   165   1      12.646194288509955      9.4637657660872119      3.0158991223603056
   166   1      12.820357755301426      5.6406323099137543      5.5591053138472146
   167   1      9.4152241899123776      3.6916414363942187      2.5076386198368654
   168   1      13.447906429919652      10.901037238394933      52.124915035710409
   169   1      14.587854604351168      13.759991409688881    0.020161377175990852
   170   1      10.936784219375568      12.308052111028978      2.7947206069568784
   171   1      13.187583362287716      14.685364988099593      2.5004410398982193
   172   1      13.037383376229792      16.353880722822929   0.0053738530730047642
   173   1      14.173932582788838      19.106750693743464     0.26392465546271349
   174   1      14.701975340843886      17.496705520828982      2.7819729358347716
   175   1      12.652649004484621      20.791913391528357      2.3482240683086588
   176   1      12.301220879340036      22.238911759827548      52.102257656356805
   177   1      14.498025704099236      24.771176291710823      51.824602636646688
   178   1      14.519465076424643      22.943566806863096      2.6644989296564838
   179   1      13.254804220874671      25.750774661337374      2.0670798326138362
   180   1      12.998077986473604      28.055162855449666      52.094878321166853
   181   1      14.747160125917338      30.404127410562527     0.21133585986544001
   182   1      14.981169343765501      28.329797138323453      2.7457223872892418
   183   1      12.620610373182773       31.58209926879216      2.8136949040500574
   184   1      13.138957531996633      33.012841286135121      52.036662624369974
   185   1      14.602787589368216      35.531482765587015      52.057644548089826
   186   1      14.881697084714547        34.2083969970653      2.6233012557253224
   187   1      13.249399497174531      37.404698807510719      2.6134681772809243
   188   1      12.762144965395136      38.865471687842025      51.997242020532774
   189   1      16.233540700070449       44.39584910582608     0.25192719286962389
   190   1      14.754056493548811      39.732923912262834      2.3976235780576878
   191   1      16.157523862992864      42.348266187483809      3.1807915810020413
   192   1      12.197077028479676      44.150746525250533      51.699221619632567
   193   1      15.711094782410086      47.854840978002976      2.2899308851469771
   194   1      13.153534738510256      42.321360433541834      2.4661983881851399
   195   1      12.173258598835313      47.708608925739341      2.1581549341000903
   196   1      14.439466929392339      47.131988215405471      51.832461875848594
   197   1         13.068537945869      50.050304298944944      51.720930186057622
   198   1      14.814248864326929      51.166306335099115       2.793220880903815
   199   1      13.220440971062965      53.577813742025576      2.1719501458316626
   200   1      15.969560066131734      55.473841096506099      52.120295047690675
   201   1      17.914194850110871      2.4381242874543911    0.028979384320686384
   202   1      17.748901900542652     0.95046180655023449      2.8906536197859456
   203   1      15.754310830220783       3.938237979853398      3.1041196662518877
   204   1      13.462815763376906      5.1455949730087776      51.717348946515145
   205   1      17.522984001379399      7.9326667310561616      52.118130211800334
   206   1      16.231400911967896      5.0898690829481676     0.26944341657746751
   207   1      16.022711801842782      9.3992920176363679      2.4674094867875627
   208   1      16.601509970508189      10.735625780497118      51.991228047611692
   209   1      17.644347811831295      13.522659269090644     0.15861361072945104
   210   1      20.910350413000408      11.692297512310917      2.3599929364302277
   211   1      14.659591267314587      11.926466536983552      2.8052411362775911
   212   1       16.25100017793908      16.294501434912899       51.84454730573303
   213   1      17.235598843113809      19.273977899665287       51.95913544475971
   214   1      17.887176028440155       17.46568587749428      2.2976479166848658
   215   1      16.349209998199481      20.495545228841195      2.6699690150406217
   216   1       15.91554835993275      22.273998736497735    0.069713300965650649
   217   1      17.964745060710847      24.813340152317998      51.866771812780037
   218   1      17.700872499015855      23.247022211965817      2.5660130418797742
   219   1      16.226204508433714      25.856557085553849      2.2180599674304955
   220   1      15.906963528396348       27.39351303054427      51.970370259993523
   221   1      18.017514471820402      30.712806020220548      52.027096745365171
   222   1      17.942037325682101      28.583570078066611       2.319034703345392
   223   1      16.176353177653247      31.154297961325323      2.8844592493780388
   224   1      16.323986912495936      33.142377344001339     0.14974816329481053
   225   1      17.492945592089402      35.909166028847586     0.20135589408077079
   226   1      17.750468515256564       33.64132759503967      2.6239845490506268
   227   1      16.032021220819111      36.913334847502931      2.4327747830056055
   228   1      16.265989803493177      39.050462269423647      52.026778629257464
   229   1      17.578160958322325      41.710230519666929   0.0083328165491158152
   230   1      17.576694479977423      39.654252594383074      2.6101347549553635
   231   1      14.259667108301404      41.730678520302526      51.499556303994794
   232   1      17.581721499131767      47.091929668679761      52.035371369128889
   233   1      15.521701504518809      48.146083236049677      49.490957988227017
   234   1      17.295891566893491      45.494673889590231      2.9355405376059394
   235   1      13.861388969595826      45.083795399274287      2.6757662281037269
   236   1      16.110973028924118      49.686368056275299      51.877032129228404
   237   1      17.764374965055911      52.987722777182071      51.768464268413503
   238   1      17.673798805825623      51.013756947859903      2.2240073912361868
   239   1      16.559774900881614      53.581126044660856      2.1462655010115057
   240   1       19.33717129907016    0.084357574335604257     0.20037716454562682
   241   1      21.104896140480374      3.1226015238441782     0.19080780734320402
   242   1      18.819559909961114      3.7700479846134471      2.8566112779528989
   243   1      17.714194344177653      6.3339031445010816      2.6616388638937529
   244   1      19.658566297720192      5.6882003730639612      51.929219761329264
   245   1      18.137847359232467      11.991497498180433      2.4213357329693257
   246   1      19.507988040288815      9.0297364592124865      2.8706489871676752
   247   1      19.238347830230722      10.914424029714787       5.165267037772689
   248   1      22.741745935736489      11.045948021157427    0.046714506923067889
   249   1      20.788558321239627        13.5064227090672      51.851370117403491
   250   1      22.648694501976575      9.0393193924600173      2.4869610109806297
   251   1      16.228516641350716      14.924216732232074      2.5238801573487399
   252   1      19.430933347152028      14.704896043777593      2.6506397942431863
   253   1      21.007332284391371      19.293531433954353     0.11634085551444201
   254   1      20.944778575401784      17.548545071155097      2.5557911527395691
   255   1      19.424461320271259       20.26795760117864      2.5290530572691097
   256   1      18.672701003902564      21.974665186993203     0.25291962490381181
   257   1      21.466702136753373      24.869783531307061     0.41371428643421948
   258   1      20.913281060390378      23.009122140429429      2.5640426371770539
   259   1      19.354620324116432      25.643354039734366      2.4204966395042042
   260   1      19.679500979031054      27.623498922580328       52.01095542911721
   261   1       21.07807291474829      30.555263896461007      51.849822443819754
   262   1      21.303193926442169      28.753823641510202      2.4538597178341566
   263   1      19.619697710506554      31.637883051774761      2.6567526482240615
   264   1      19.487467987063322      33.378677036947039      52.062372881264579
   265   1       20.37978871374689      36.008872045767248     0.04241060504948397
   266   1      20.693972645204116      34.494883765048748      2.3362963623812574
   267   1      19.381570100559571      37.170304559355714      2.8894996897590346
   268   1      19.324721633799232      38.717033856228241    0.016797032083212083
   269   1      20.510367086306179      41.218805274605955      52.087991863437523
   270   1      20.737147194832069       39.93098885343592      2.4057684497182832
   271   1      19.100720424933975      42.479848055881988      2.5198789092273008
   272   1      19.293220593083838      44.591538346144766     0.32570819800763462
   273   1      22.187083460903239      44.296833966850848    0.046835660934849831
   274   1      20.061153740558542      45.548155980937736      2.9891582538794075
   275   1      18.658079240469061       48.18234025013313      2.5496636787778644
   276   1      19.052570747760029       49.92838515277834      52.066004741966005
   277   1      21.211561914581583      52.435951788910629     0.10905571549999657
   278   1      21.861510595891708      48.171233190020999      2.2536446889769972
   279   1      19.245868382074615      53.803428027717644      2.9153008932523528
   280   1      20.571985587819999      1.2883809021852974      2.5594159256069595
   281   1      24.179589682881247      2.9544363674542735      51.993849289175728
   282   1      23.816675735250886     0.78999396770898844      2.4206448875425775
   283   1      22.916693609449077      3.8500689468824558      2.6373882458001119
   284   1      22.988161279392095      5.7074150046096968    0.073488996607964943
   285   1      24.327953425284218      8.2557849230559075     0.18696181295233899
   286   1      24.207049879059078      6.6035025825366818      2.6232961721109005
   287   1      22.895838524457723      5.7329597650604729      5.5913149692013562
   288   1      22.537104584833997      9.4838340813346367      49.773414534954647
   289   1      24.117350303529562      14.077150260487159      51.795920064219189
   290   1      24.083471889034126      12.313756314421978      2.7985033919148794
   291   1      22.453354765497465        14.8002725923096      2.1697127868288426
   292   1      19.345613071827636       16.68844867601274      51.954049387578543
   293   1      24.099823041684378      19.284982035028175      0.1636275201822309
   294   1      24.444589569180803      17.874840726695037      2.6560142132178175
   295   1       22.56347992981248      20.488083330624185      2.6866059344184263
   296   1      22.659371608924918      22.100926623977582    0.051879487906930789
   297   1       24.29774613140345      24.950803131138155      51.782656289859787
   298   1      23.967214681527913      23.597144524517326      2.8964541180666665
   299   1      22.655487855870895       25.86568462737916      2.7960263640895011
   300   1      22.582975703095151      27.587050257308189      52.099115690691249
   301   1      24.191202109811094      30.903526549773144     0.10501849882009955
   302   1      24.518959460301087      28.891136580039735       2.163179835092353
   303   1      22.743169935548899      31.766889308579671      2.6157763283812208
   304   1      25.591262074489041      33.574867467645689    0.010364466143261955
   305   1      24.614882795116337      34.344932192778536      49.483654966895124
   306   1      24.525857392710741        34.0297188975469      2.3890919035420306
   307   1       22.81683465950195       36.60166173791405      2.3512082632064168
   308   1      22.224157934375892      38.827227864877308     0.13101733487885084
   309   1      23.962224535391549      41.811247165427226    0.046722668183953465
   310   1      23.935148770295225      39.876787262104003      2.5255407551073814
   311   1      21.849991099555556      42.894313294212466      2.4768000453177841
   312   1      23.314437669422848       45.74548726231081      2.7955774997665026
   313   1      24.075886430359255      46.988580702461363     0.20478205761184221
   314   1      25.571331560778685      44.021032567854547     0.23604107054407183
   315   1      23.324360531045503      47.093926802798237      5.4042058018677341
   316   1      22.783556735359532      49.789116874048808    0.001763240808442787
   317   1      24.262978016645839       52.51956427226164     0.40302784356376459
   318   1      27.194706818323944        51.1513190921006      2.9048171471286275
   319   1      22.756095270664833      55.080476507331809      51.888063017807248
   320   1      25.668636287756211    0.037647982833807964      51.971163251594852
   321   1      27.071528679388123      2.8715675188766512      52.006891711607032
   322   1      27.563179377821019      1.5097955704502211      2.5732793058573566
   323   1      26.051909174558666      3.8193091225374554      2.8066526696915042
   324   1      25.948294852387178       5.634574907602043      0.2038313608732043
   325   1      27.134158035993782      8.7971875287187462    0.035062961903541877
   326   1      27.571870788886635      6.5594962286792349      2.3482313384905047
   327   1      25.797267503950856       9.268301170361708       2.778528554314319
   328   1      25.768849067498973      11.374049794076633     0.32499050312483557
   329   1      27.243741805379713       13.80392305807219     0.23375258347343941
   330   1      27.087507921718483      12.064638047492451      2.8677826233772175
   331   1      25.979932125598214      14.869095531992778      2.5371788967759108
   332   1      25.430124486522715      16.659230684765028     0.26637017911541333
   333   1      27.237503216415732      19.357902316661221     0.25247589972098933
   334   1      27.739623121743879       17.47826161366201      2.5714159815059339
   335   1       25.18392363564891      20.814184491595437      2.5308303861987964
   336   1      25.719569114941997      21.944009165471648      51.997489935386483
   337   1      27.382192503145621      24.727108495954507      51.444112736914022
   338   1      27.216870736015959      23.384047509673373       2.433169655272041
   339   1      25.882977069028701      25.999744419266662      2.7997300810817034
   340   1      26.005230945224934      27.841553138936938      51.986738697218016
   341   1      27.383230404847257      30.684085793398644     0.18584060572517686
   342   1      27.655914970084048       28.92911923303312      2.3433613946884422
   343   1       25.95826284018046      31.635037612408297      2.7907680215158144
   344   1      24.204375085670002      36.190732571683341       51.92623689349945
   345   1      29.550790929577758      37.508253360652866      2.8283237300653994
   346   1      27.608362896753334      34.206489924900893       2.477219005610293
   347   1      25.943237477920295      37.432973474292893      2.4930120811993972
   348   1      25.193042089777922      38.849999286529119     0.10761746019881258
   349   1      27.269625834118244      41.423160034099617    0.040601480183540463
   350   1      27.686789088167778      40.482197456523366      2.6376669820683114
   351   1      25.355132137732873      42.785277813457704      2.5448268130360874
   352   1       24.25889178948708      45.324019148251374      49.574360135316667
   353   1      26.978494183052735      47.379672285988626      51.988557762551508
   354   1      27.324085805285073      45.586846702294778      2.6469567316292371
   355   1      25.019326219437652      48.337609506842981      2.6589431644744397
   356   1       26.05939659080903      50.035653772533394     0.36636596637318836
   357   1      27.389194858714266      52.644020233983433     0.21112515166298665
   358   1      23.741539175386013      51.194279620316415       2.877465774658059
   359   1      25.350777809071108      53.951345670735989      2.3990505307471421