dump/Mg_1000_5/steps_71 (written by ASE) 

3995 	 atoms 
1  atom types
0.0      32.100000000000001  xlo xhi
0.0      55.598830921999998  ylo yhi
0.0      52.130399999999995  zlo zhi


Atoms 

     1   1      31.947450547995878     0.20012616727864488     0.30983551646510643
     2   1      1.0087445656150307      2.6124418189722043     0.17691243588890032
     3   1      1.3171660541931387     0.99772415715499319      2.6490106797483874
     4   1      32.051914082094207      3.7637489091917575      2.6519190441478226
     5   1      31.875943696109111      5.6076017392418871    0.024815770205426156
     6   1      1.4856508535884585      8.4871416804949558    0.054993045975653645
     7   1      1.1337751149356357      6.6515472834251215       2.453401253203312
     8   1      31.683672135670825      9.6783701772440907      2.3938184884466467
     9   1      31.930300131171155      11.594133118699263       52.08551061911578
    10   1      1.4484567152234615      14.443376830102725     0.21066397870988773
    11   1      1.6479451947201154      12.190289821697291      2.5341797766804994
    12   1      31.763550756958598      14.593954308663296      2.5879507885259847
    13   1     0.27722854049574258      17.035867151487967     0.27076366776378669
    14   1       1.983571456766007       19.53562161788113      52.010515249540482
    15   1       1.534741306204547      17.251104314535187      2.6810856712279549
    16   1      31.992518974421962       19.73203698300944       2.296161324052596
    17   1      31.805235555307185      21.834081778563295      52.113535997131024
    18   1      1.9897847708492162      25.172896884812321      51.784626248951845
    19   1      1.0279908094568673      23.123121899627559      2.3792738048016813
    20   1     0.58852923866279849      26.336488030864437      2.2696189594215257
    21   1      32.029477401781037      27.650693149434321      51.774321339948749
    22   1        1.74998339843019      30.456157359884369      51.959632418298298
    23   1      2.0339346740597435      28.858584067712048      2.3004291465651239
    24   1      0.1322053014989045      31.778786138231041      2.5198544713634807
    25   1      1.7710441824983985      34.584628978328418      2.3295647689436092
    26   1      4.7641861170071218      36.082097104155714     0.23038702485041065
    27   1     0.28198397301289579      33.536400334224432      4.9879883167646657
    28   1      3.4057211867487753      37.382701238283616      2.5802123557531518
    29   1       30.71789463864874      41.243582856968494      5.2392762033046196
    30   1        31.7954111434127      42.797328039249166       2.447499128576708
    31   1     0.31180581705664573      38.662256851317146      5.0972447529724603
    32   1      1.3129504294345056       41.78590921207816      51.629705321072194
    33   1      1.7660933121286986      47.136593165729472      51.997714759046346
    34   1      2.9907275145965571      48.004296123352979      2.9305868144578051
    35   1      30.436364436704533      45.757213930701596      2.3639091962387804
    36   1      32.076000051134457      50.388876350117151      51.999987935068944
    37   1      1.5648251441814698      53.241654269005934      52.094982309541322
    38   1      1.6724852748497077      51.084216643844108       2.624348760277718
    39   1     0.42437962433909154      53.552524773446471      2.8300925925766398
    40   1        3.22097639454956     0.52458055922113045    0.086555004109501843
    41   1      4.7575827027890911      2.7616970967548249      51.972342176527043
    42   1      4.6933112679155631      1.1802845925063534      2.4175329586501579
    43   1       3.044271508549766      3.7659442606793521      2.7381085197440487
    44   1      3.2132947529715667      5.3113316883329347    0.029564243263611106
    45   1       4.969826437926999      8.3737789676711678     0.38608097178680256
    46   1      4.6967142195106844      6.6916067408976021       2.689113847946432
    47   1      3.0080270435024663      9.5563611784828115      2.6389738584221472
    48   1      3.0184969160533019      11.135410830348899    0.063098370798679373
    49   1      4.2791378859070415      13.766228478563336     0.35485710331574682
    50   1      4.6299712407186924      11.947848804179031      3.1046689517587982
    51   1      3.5085863662837404      14.838053621801992      2.9493681524656061
    52   1      3.6392460841379117      16.951539153388612     0.19611760327472039
    53   1      5.0439078204733638      19.642756777846483    0.057129665349702693
    54   1        4.76563789437167      17.855341352951395      2.8208721157260404
    55   1      3.1090324996084546      20.457715750005796      2.3617194448676986
    56   1      3.3779029558767086      22.393337924250499      51.980201990363341
    57   1      4.6566190006851418      25.353092084382716      51.946667547210367
    58   1      4.2891478637968659      23.153291699205457      2.5501516741856998
    59   1      3.2265068261403469      25.893647885653095      2.6634326463750888
    60   1      3.2260142313150482      27.865100291957276      51.801911975827998
    61   1      8.2092235002408938      34.030022586685376      49.549875553466009
    62   1      5.0827722156851802      28.576126490065192      2.5514790409896855
    63   1      5.2582417161058883       28.13613727346598      49.481772289091431
    64   1      2.9152170994664903      33.413053424458511       51.84496603038037
    65   1      4.9889766154367985      34.108194320409318      2.1901238287732858
    66   1      3.3736156288882015      32.972165727131276      4.6487670013543694
    67   1      3.5046864684799286      38.771488614892647      5.2056545828770275
    68   1      3.0989507430312697       37.00698272612955      49.817895407554367
    69   1      3.3289800561023064      44.462828802036661       51.94707864538708
    70   1      5.0818798944762351      39.741798527618251      2.4786522776511593
    71   1      4.3637054031608464      41.576777673735279     0.22466763292162134
    72   1      1.5631007450313819      45.754990221417437      49.194905356529645
    73   1      4.7658760710683659      47.641180272901636     0.13008162832238007
    74   1      4.6535870128494796      45.207276924990204      2.5198432519011065
    75   1    0.013386088552380453      44.646253320653756      51.812544466809022
    76   1      2.6916351623608801      50.321218491898478     0.23216310145471405
    77   1      4.3226128315554355      52.832337585961717      0.2828647599385829
    78   1      4.5203432765960585      51.054222961839379      2.5881912696460816
    79   1      3.4516530011252531      54.224028835026836      2.4264365169216409
    80   1      6.1338156270047666    0.087848563573514699       51.77766478808109
    81   1      7.9152965964018236      2.8094268109430329      52.111749743649462
    82   1      8.0029842190810019      1.0851777902401398      2.5435552327087656
    83   1      6.4722289380727958       3.722431164149258      2.8279186165417083
    84   1      6.0658638071516489      5.1396288129255199     0.40801569084803579
    85   1      7.7582341771079202       8.305985636596823     0.41311845860304852
    86   1      6.3039509331899426      5.8546556242082177      5.1264593102777658
    87   1      6.6304601965359495      9.5223534806882011      2.8058536877091482
    88   1      6.3915257266827359      11.373665541958999     0.47917512560273712
    89   1      7.5403894561720257       13.92539926246798     0.75794899313394615
    90   1      8.0472918025424871      12.105703009706454      3.2702619758038329
    91   1      6.3056152658429649       14.73673056977607      3.0445233768812932
    92   1      6.5346898577093802      16.365794739100956     0.39708416261127727
    93   1      8.3526435182950305      19.162619342456775     0.35165456022350627
    94   1      7.6466699914962675      17.307658291526305      2.6601827712530182
    95   1      6.4374902467595687      20.377667167975922      2.3165147096672651
    96   1      6.4152255707475732      22.106675066341285      52.041450678405553
    97   1      7.7482984214756723      24.649345877198538      51.916965826088628
    98   1      8.1243460117064838      22.935596562722942      2.7048795576881779
    99   1      6.3658702453630926      25.418238915200188      2.6558541872058377
   100   1      4.8752169646023313       30.45982025056491      52.050690749358566
   101   1      8.1359626345174085      30.350125358157719     0.15156102450661602
   102   1      6.5577856962310257      27.675458871160746       51.92230484389399
   103   1      6.0709783688461316      31.374422168506623      2.5684345172082974
   104   1      9.6470676754358227      33.128644679602409     0.07474223388997471
   105   1      7.9214381223057213      35.965637842621263    0.032195911956025711
   106   1      8.1039513353356565      34.383525298089424      3.0387682678393708
   107   1      6.6326801337684858      37.176536757846854       2.457251616284112
   108   1      6.3448910965851546      39.223685389198785       52.09067530150277
   109   1       8.119745718191643      41.970544627551739      52.017248920689823
   110   1      8.1123115140623696      40.067049283698836      2.5939137148573268
   111   1      6.4267803472308387       42.47458168721105      2.6336681898874028
   112   1      6.3696958941340549      43.951308341609376      52.097751818947266
   113   1      8.4017930016284872      46.974414885033582      52.109028330512587
   114   1      7.9651091348629652      45.116758259004051      2.4188142584028625
   115   1      6.2758046239348078      48.299562822852501      2.8738820412451864
   116   1      6.5823659902138845      49.825736297219741     0.30009761720340949
   117   1      7.4489652790777239      52.762941457450786     0.13211619485892334
   118   1        7.75185211236498      50.748328778480996      2.6191792091371067
   119   1      6.3073780113621281      53.841721977409684      2.5781154463980274
   120   1      11.237620419838352      1.1777924311325216      49.708938640451514
   121   1      14.318375235970125      8.4943051283994713    0.022562031418599336
   122   1      9.5573509929476543      55.526061691988119      51.955008307575604
   123   1      11.047028499731974       3.071749558173436     0.13256564468262186
   124   1       14.42081326866526      6.9840929473318569      2.6586275595366966
   125   1       11.24832629138885      7.8198248236104986     0.20480031230429033
   126   1      11.024942735225043     0.92341842887299963      2.4439930481207206
   127   1      9.8389630229643981      9.2898114444208097      2.5239734841794079
   128   1      9.4843969078072679      11.667728822123223     0.23514781881848593
   129   1       11.30999959831062      13.900031125726549     0.32697515114118431
   130   1       12.80888994194043      11.382257080213112      5.3506942069009682
   131   1      9.5908253554440943      14.915998811351377      3.0660119072509788
   132   1      9.4162014210623415      16.500913255940784      52.127799368021428
   133   1      11.634464761193319      19.360872548875509      0.4764322142786373
   134   1      11.222791504008198      17.538099048577404      3.0876846882180589
   135   1      9.5487713387149888      20.220339318719557      2.4968458401825737
   136   1      9.5280267177643054      22.021423049653123      52.048371384763925
   137   1      10.915865387553078       24.73285782669539      51.963156253957912
   138   1      10.857062833207767      22.970822728917955      2.4684317262970481
   139   1      9.5529520083519657      25.536365957032253      2.2046418204066689
   140   1      9.4596480190356083      27.686617011279953      51.855365298567087
   141   1      12.843277290123453      31.210969114337711      49.450410931667761
   142   1      11.271194383720387      28.718017276007831      2.6169497900625935
   143   1      9.2489066806606104      31.221770511131261      2.9371613911969257
   144   1       11.10408443289711       30.64351584610165     0.12600871817624679
   145   1      11.313867862957288      35.731465070901336     0.10356086119549281
   146   1      11.053173168716686      33.837386022191588      3.0889781717701403
   147   1      9.3898903922971861      37.225562862036682      2.8464702286540278
   148   1      9.9376701162034404      38.754108402033289     0.17805799529396499
   149   1      11.035719922769408      41.627863669116564     0.46607316212478739
   150   1      11.294633449683262      39.646342676150617      3.1238546642684915
   151   1      9.8666159067005488      42.890394644326456      2.4852826701855459
   152   1      9.6945907032850602      44.348379099026495      51.860964403628806
   153   1      11.428721899327503      46.949438354895541      51.954111558616347
   154   1      11.044185712999409      45.596793498698375      2.4173413117778475
   155   1      9.2193726858558662      48.081283085876464      2.4850763262518289
   156   1      9.9027910393677523      49.781027787627728      52.020563117262256
   157   1      10.954442538558494      52.975466465201414      51.884049269812181
   158   1      11.290613268718316      51.198271425885004      2.0741595204314538
   159   1      9.5054074106037483      53.602471704376505      2.6556086978687703
   160   1      12.810457560473054     0.15891556314119018     0.06032891398485412
   161   1      14.243247335364552      2.8958874321663459     0.36486120460993027
   162   1      14.651623144127026      1.0552224691836671      3.0143756892925198
   163   1      11.110311309627019      6.5259731107080308      2.8827490815027308
   164   1       9.225265696947023      5.5696220216537249      51.894949290589999
   165   1      13.133579310569578      9.6878083014798726      2.7014540125323245
   166   1      13.091618470345438      5.5974186166472997      5.0994740213706127
   167   1      9.6094921998732783      3.8205514585569298      2.4025007506091511
   168   1      12.594571927874041      11.161334721267318     0.19180201642680264
   169   1      14.460197999377893      13.602718660724845    0.053754590113427952
   170   1      11.340141898914608       12.17414942478932       3.003889482884107
   171   1      12.818367512506901      15.129131725398047      2.8468417323526762
   172   1      12.540124355266803      16.685824563536244    0.078967677674321654
   173   1      14.320389282374476      19.374174149522137       51.90640924854786
   174   1      14.434476859928786      17.657455242730318      2.7754602405686279
   175   1      12.789202567046727      20.611868809854606      2.5198772306118009
   176   1      12.577229696037245      22.601502187471723     0.13735172079167465
   177   1      14.476519646093902      25.361981886433593      51.974953640618203
   178   1      14.292638317278932      23.275381902044955       2.299309609739276
   179   1      12.720973573317835      26.013534375436333      2.6246703257682018
   180   1       12.54193229326887      27.775913193573935       52.03399049887603
   181   1      14.363002800368779      30.009493873588308      52.068923176227166
   182   1      14.231733167236346      28.297658680465581      2.2499215918008524
   183   1      13.102420510606779      31.201378664329116      2.1508152306276189
   184   1      12.626666177260706      33.148235435992255    0.057810803257486935
   185   1      14.291179727111793      36.213686071658152      52.118440424309433
   186   1      14.159581348294818      34.160955574323687      2.5273144732745925
   187   1      12.278356230069292      36.824102616215626      2.3519067339629358
   188   1      13.023574513179177      39.335863251704041      51.973790163788244
   189   1       16.12288230847113      44.729428152277805     0.49463726767240601
   190   1       14.62150548544272       40.12528903735371      2.9181174140267414
   191   1      16.188998482297375      42.824138740801736      2.9091246843420446
   192   1      12.711880812751943      44.209165681743102     0.23906821670936299
   193   1      15.830084421891563       48.33171715979865      2.4827334484225565
   194   1      13.204435773478441      42.671813240771748      2.7080304884490727
   195   1      12.281983865978942      48.320757847200611      2.3273299099688503
   196   1      14.585897724865786      47.000823396943112      51.650978513535755
   197   1      12.927421359745887      49.693379306650826      51.896900247691413
   198   1      14.325548831852696      50.857864042372107      2.3546502976331785
   199   1      12.895880325729189      53.638381180802568      1.9677204110312345
   200   1      15.710463549088898      54.827779337131695    0.089983763672665085
   201   1      17.497922550414472      2.0581063692858659     0.31857231016529058
   202   1      17.523626316568272     0.79690726875861051      2.8180301576657016
   203   1      16.088908349766722      4.0092821424111813      2.5962104984502785
   204   1      12.862266924939934      5.6503384092042817      52.080911802410846
   205   1      17.640970022370375      8.3056007331529464     0.28328632745841426
   206   1      15.956137191831843      5.8003395832358233      52.061380658549851
   207   1      16.001060223891123      9.5597727497012741      2.4748067295050751
   208   1      16.005371169478494       11.08560629317487      52.069055429351053
   209   1      17.388483043329476      13.863226108206311       52.00366820736992
   210   1      20.680557675416431       12.46155446485718      2.5497089463329341
   211   1      14.883920615058148      12.083845831017255      2.3934637623984361
   212   1      15.644161955387155      16.459090677581855   0.0062667415016686157
   213   1      17.601422168463326      19.351690362643261     0.20895303448150368
   214   1      17.448561725448737      17.516311002011431      2.4994675652367286
   215   1      15.943844375362778      20.523379505297424      2.5687776645746725
   216   1      15.422920534454859      21.990343045810356      51.803135266897378
   217   1      17.736797467401711      25.091912653168851      52.023769758595655
   218   1      17.281255905697375      23.227260193538392      2.8705068461861183
   219   1      15.782752866875191       26.11076399479073       2.399268030705541
   220   1      16.549297320186319      27.559000149117605      51.850945448812546
   221   1      17.744282032373093      30.598451249118078      51.910930202614914
   222   1      17.751261760020274      29.140831752074355      2.4036340329133088
   223   1      16.217515433344605      31.496194503284084      2.2524902883531484
   224   1      15.667082594717055      33.451104808567436      51.893730140394368
   225   1       17.79430732454869      36.431096115362891      51.529521159361366
   226   1      17.781877738053314      35.231663461148926      2.2415007412186574
   227   1      15.778637321836756      37.293472645956911      2.5057981510993104
   228   1      16.697980095345674      38.955836525828261      52.095774847786018
   229   1       17.86722526650772      41.742952005952155     0.33716215035919861
   230   1      17.772120909136657       40.34123905162312      2.9127501466201715
   231   1      14.631665453054428      41.801033690054048    0.057138931874799383
   232   1      17.638992047569062      47.268324835919699     0.19181185221387745
   233   1      15.965703583450862      48.273282195814133      49.195911994549135
   234   1       17.67406220591441      45.341218244309914      2.9048456375073859
   235   1      14.291798626944908      46.145820283103937      2.8934950515043143
   236   1      16.057926479297286       49.76100775812062    0.043437316139573974
   237   1      17.665045825308351      52.540611252476836      51.966474382431301
   238   1      17.604996840312641      51.061495115300787      2.4932896629301284
   239   1      16.158062920430947      53.785324770479527      2.6942987252684922
   240   1      19.378672769113841      55.315452525716267     0.12924698021884745
   241   1      20.924886337952895      2.6540590878423336      51.922924943254699
   242   1      19.309602377517578      3.0691001711945995       2.614884119750438
   243   1      17.448262655798249      6.4849607369921882       2.710280433165535
   244   1      19.012579328306824      5.5464430950000239      52.059321514795784
   245   1      17.841080833323915      11.878132749731492      2.5279811255977092
   246   1      19.377252188455415      9.3269153590179545      2.4367353055954339
   247   1       19.49959672933268      11.024613293152367      5.2026099857233454
   248   1      22.541600162917309      11.097710739515694      52.120910497553083
   249   1      20.388706253604468      14.038486952375992     0.14599670180334726
   250   1      22.482372209331661      9.5106137369193462       2.693896036351715
   251   1      16.147204377446489      14.740024062589058       2.550902113589018
   252   1      19.183445437121048      14.940186289095481      2.6451490635602481
   253   1      20.662818513636218      19.510776304747939      52.116635547113468
   254   1       20.75199317060267       17.76750366614764      3.0036781696589303
   255   1      19.199146726126088      20.535753249085388      2.6122696355950867
   256   1      18.863390305952631      22.067212529177009     0.42519536221986787
   257   1      20.905770939640675      25.410121214027146       52.01722609970178
   258   1      20.635161225374869      23.391421275933563      2.4841890196344183
   259   1      18.996285210691774      26.184404117854399      2.6772385480148784
   260   1      19.383709270699853      27.890156132065975       51.99516862767188
   261   1      21.148102385837184      30.786181710108142      51.725918709841672
   262   1      20.821148577471082       29.06963447393392      2.3394461994287661
   263   1      19.185536264512034      32.093215142790243      2.1893481111345792
   264   1      18.967843515751344      33.656944840994989      52.129698365967407
   265   1      20.951362225618713       36.60846879627745    0.084677803072087554
   266   1      20.966904797801199      34.641568697231143      2.6443034501125364
   267   1      19.363964906022861      37.826841032460003      2.0294709860577012
   268   1      19.739795718644626      39.529353725016769      51.870828622107368
   269   1      21.001935723190396      42.037552625063078      51.863469313426144
   270   1      21.069138421069621      40.485541755745203      2.4113719827738604
   271   1      19.331570774666467      43.199826061639861      2.7549365623250539
   272   1      19.553769316428244      44.737599530811153    0.076952002222126878
   273   1      22.627099849926356      44.608098717483955      51.934548742458574
   274   1      20.785838280339132      45.890780360537825      2.5905647857982732
   275   1      19.656325047119537      48.368784545098642      2.3506409529627499
   276   1      19.391454932554634      49.906279818253132    0.069509966493551387
   277   1      20.984205380353995      52.743790198528139      51.874112782040022
   278   1      22.777373226245409      48.460930035192035      2.2134677001719547
   279   1      19.070859254879377      54.194255873128995      2.3916410849037986
   280   1      20.896789320189814     0.75575510781152344      2.6467084014643256
   281   1      24.161864763391247       2.693820308223696     0.02809077444520601
   282   1      24.088269838526024     0.85315853157151522      2.9557312994045031
   283   1      22.336739008855815      3.3672861993986052      2.2673858344991293
   284   1      22.321161115219223      5.5003374557958322     0.32036663440945895
   285   1      23.916715507100022       8.471973469425345    0.061653449342717187
   286   1      23.876059105240337      6.7582330013595806      2.6190239283103889
   287   1      22.416606093627401      5.1390200987483823      4.7354340924023468
   288   1      22.437208121320825       9.189444006467772      49.481964100985287
   289   1      23.467436397840668      14.006893180017913      51.872625432481883
   290   1      23.733645931313053      11.972763723878847      2.3587368391302412
   291   1      22.450343172160693          14.94979263438      2.4218799904172008
   292   1      18.932628115258915      16.554544679535653      51.756189420613772
   293   1      23.953234231541035      19.078075617644021     0.11241095483101125
   294   1      23.559816473860696      17.594830578089574      3.2415304444548814
   295   1      22.037739931945794      20.660318693209888       2.178776988225168
   296   1      22.115670859340128       22.66270344641417      52.014066780103803
   297   1      23.941346545883778      24.960606767754889      52.116548839437151
   298   1      23.836966824396871      23.286242107507015      2.7103386991170262
   299   1      22.384397370384647      26.072060503959669      2.5615478992430938
   300   1      22.695793849117944      27.857425124423692      52.116285939429943
   301   1      23.995980556344705      30.860108255585779    0.052889556027214242
   302   1      23.875615662976415      28.884927033073019      2.3934929423597935
   303   1      22.015249419301277      31.715617364849599      2.3771308601496739
   304   1      25.395574301068081      33.474897244373814    0.010088765508285618
   305   1      22.508283105774357      37.439924508787925      49.342990722137003
   306   1      23.756274988964474      34.639289805685841      2.2218026526580568
   307   1      22.739656800515114      37.582448084830531      2.2686262979828169
   308   1      22.600278615322075      39.536736451651898      52.120321891317964
   309   1      24.309488080817534      42.166206735599232       52.08468776543792
   310   1      24.667922828512051      40.254750012125271      2.4419601378862548
   311   1      22.250194434888943      43.161890745348302      2.5078703905369246
   312   1      24.436623400259005      45.962155611915449      2.4421986713851815
   313   1      24.308107445537217      47.315277898637852      51.747059532164748
   314   1      25.503724192825054      44.734000874975315      52.011051514559789
   315   1      24.484965407898915       47.51956215418673      4.8123568022662804
   316   1      22.607378076805055      50.039270112573668      51.804435667770996
   317   1      24.145927920913493      52.646575732804841      0.1435899927582279
   318   1      27.496830740548628      51.231749376813326      2.6919908881385224
   319   1      22.524555475562845      55.416612936674873      52.071962106562239
   320   1      25.181175129790525    0.006009705182097127     0.41910999718652386
   321   1      27.310407014022125      3.0660437907796609      52.050108278135767
   322   1       27.14478070202005     0.81749641449687871      2.5397446222824231
   323   1      25.850306942721897      3.2584024801602309      3.0086103875139254
   324   1      25.196942434367706      5.6452887318913945     0.18398049039976347
   325   1      26.952330471833154      8.1951261681470822     0.21266731570370587
   326   1      27.241689197411585      6.0668185897085376      3.0028730335630307
   327   1      25.657534006936618      9.3471169751234218      2.5839197499858293
   328   1      25.516121664701217      11.100535542572876      52.075008303511417
   329   1      27.255546924849217      14.099186478349939      52.012282445689351
   330   1      27.026368554367956      11.995974024141903      2.5280862761489455
   331   1      25.372639574519695      14.852082349663682      2.1823347981209391
   332   1      25.198012228257159      16.576419667594781       51.95261725045831
   333   1      27.030300850217532       19.37529253370257      51.631768032947278
   334   1      26.831842987861464      17.794623742757711      2.1289587545459132
   335   1       25.11007573274232      20.572452414029907      2.7549470231902626
   336   1      25.199250593616043        22.4580451226315     0.40238380587546058
   337   1      26.976031239577072      25.221142855189594      51.848832891411504
   338   1      27.058111739179076       23.29653184755767      2.6727507608262138
   339   1      25.137867345682519       26.12856472126921      2.6513591203647193
   340   1      25.747256557068326       28.05734321680146    0.018306800315115914
   341   1      27.320114625521196      30.822254688324925      52.058127280614272
   342   1      27.558770338707298      28.418841059461734      2.4683737424192467
   343   1      26.014298725821121      31.042659887547014      2.3899965885002987
   344   1      23.844158121359133      36.591700818419099      51.859033502384328
   345   1      29.055570985375329      36.934695652209079      2.3962157704344698
   346   1      27.429060460668655      34.240386883435008      2.3983450045688262
   347   1      25.930588853924561      36.954616798787278      1.7754404263694423
   348   1      25.795025921708479      38.853496725820577      51.699585232563528
   349   1      27.306568662361531      41.985297970252937     0.13789820502447525
   350   1      27.345865430990468       39.65294772898055      2.1367698750912636
   351   1      25.523411759283952      43.050930429093917      2.6432230560527401
   352   1      24.124080031010248      45.178534378033682      49.436001772143555
   353   1      27.489399530460833      47.544635639418026      51.777747288201212
   354   1      27.293988106086459      45.563514032391232      2.4290100496434448
   355   1        26.4808453694599      48.478650562083637      2.5623704279805963
   356   1      25.660321511605368      50.171931100909511      51.977502187324532
   357   1       27.01650211393104      52.734647238701953   0.0012932552854558728
   358   1       23.89504881779888      51.264616674850707      2.6072523022495782
   359   1      26.149693484434231      53.842166164565938      2.6034618700039744