dump/Mg_1000_5/steps_81 (written by ASE) 

3995 	 atoms 
1  atom types
0.0      32.100000000000001  xlo xhi
0.0      55.598830921999998  ylo yhi
0.0      52.130399999999995  zlo zhi


Atoms 

     1   1      31.958481919638047    0.035484199985573499     0.47399108059807971
     2   1      1.3615106786265538       2.677290283007244     0.28845462626178847
     3   1        1.46079371857219      1.0252235164010333      2.6823604261066003
     4   1   0.0088887792733775492      3.7811360191850869      2.6818146536453624
     5   1     0.24876032656452846      5.0610085547566142       51.69895413254536
     6   1      1.8091069121537919      8.2070125508784812      51.918571359187645
     7   1      1.4058812256962605      6.3394824046730474      2.3816159019218706
     8   1      31.934326917418566      8.9642613624375489      2.6764126989390875
     9   1       32.04273810730222      10.544853945030052      0.1629826677665023
    10   1      1.4293606752253394      13.644517097537801      51.863153674034464
    11   1      1.1541277929915761      11.755178507214849      2.1521953723664424
    12   1     0.55027195422760766      14.833471655909213      2.4712230871297942
    13   1      31.897038610143206      16.638452826966112      52.001988426505555
    14   1       1.281652422827168      19.262978364709344      52.126676036271796
    15   1      1.6004008172282862       17.37163859184848      2.5485279406398496
    16   1      31.940778002682968      20.420247522700802      2.2248106736406568
    17   1      31.853271464687996      22.147172756067022      51.839105745901676
    18   1      1.0855584701514671      25.254847738911216    0.029139353277861196
    19   1      1.1241009716826875      23.481152726239866      2.2955840350203611
    20   1      31.861856044627444      25.990869822583093      2.5640706513642244
    21   1       31.81295038595076       27.61015498159621      52.096306702131777
    22   1       1.549720842414946      30.284927772907789     0.25381376793365046
    23   1      1.5128619315521874      28.510645628625991      2.8376566990283272
    24   1   0.0014074010436068687      31.774952692860932      2.8307580648188968
    25   1      1.8432687283956064      34.240910036979223      2.1404936660637754
    26   1      4.4913260922450773      36.213661328253004     0.28045115186121045
    27   1      31.777327649371383      33.470405903364153      5.8040902895892437
    28   1      2.8906079496112769      37.189613375342653      2.7288849113332478
    29   1      30.744178361939483      41.683048405746042      5.3892628015044242
    30   1      32.007799229771528       42.95346414731064      2.7578492048272594
    31   1    0.054632059052644601      38.517525996168686      5.5849248406326879
    32   1      1.4127521252249973      42.177962990333306     0.24388179268856236
    33   1      1.6246581728136282      47.368872834880726      51.950237506312313
    34   1      3.2371578497716462      47.974073060651989       2.492213054708726
    35   1      30.597202562098719      45.324830276952916       3.008247421008468
    36   1      31.539619425837426      49.920051243565091      51.837987364866748
    37   1     0.81245898676820016      52.648009405853927      52.093945727256042
    38   1      1.2410255491882967      50.710061013519727      2.7852291198301429
    39   1      32.043160605116064       53.92613723961874      2.7658086615564152
    40   1      2.7480349212320823      0.2845250920173335      51.939503330345254
    41   1      4.7912086980969404      2.7008255743927094      51.927122682060229
    42   1      4.6481297540953257      1.0086677238325052      2.2146818121712166
    43   1      3.2292101979418817      3.5178788503505558      2.3874672194324549
    44   1      3.1881039127528075       5.598039342453192     0.13512081638984641
    45   1      4.8882346273157342      8.5639475889078636    0.041435018091980615
    46   1       4.780896364311892      6.1220627202545055      2.6053025706411281
    47   1      3.1900698789163804      9.2054754725372767      2.4450764812452075
    48   1      3.3632822111257212      10.960073204076508      51.845247079131255
    49   1      4.8352331609505041      13.668650403219843      51.685835474195926
    50   1      4.8436664180541396      12.115932231442599      2.2096395572258078
    51   1      3.2057616101964204      14.666760579689818      2.5092697631405083
    52   1      2.8245978432779357      16.390078500922691    0.066272043443131229
    53   1      4.4554847000111604      19.251345254786472      52.038847630789888
    54   1      4.8366120776399715      16.960832365563771      2.2126853440613394
    55   1      2.7739249338275971      19.969484223436609      2.4927409744391862
    56   1       2.925089565658531      21.945603519756272    0.079923154861136894
    57   1      4.3554772960131274      24.704420716164076     0.12730584124637637
    58   1      4.6268544989078313      23.034987431988178      2.2709971933121968
    59   1      6.0814451148878463      25.553180304122325      2.9436936827049704
    60   1      3.0479096371326397       27.65988607476179     0.28309599284659193
    61   1      7.7517679161779647      33.965142399630423      49.262952950537361
    62   1      4.7828803335569274       28.32453677533098      2.6621236800386625
    63   1      4.6530149890673211      28.249226865426792       49.66713437188708
    64   1      2.9983692866773546       33.06410225258125      51.819627302152938
    65   1       4.630793728718384      33.798803236169931      2.6623187824336472
    66   1      2.9165662061252222      32.998147993815486      5.0322560293966392
    67   1      3.1857764829206681      38.728156516034225      5.3875541696402305
    68   1      3.4530989528174532      36.703622590923231      49.619326452197534
    69   1      3.2168396954772089      44.477340230379731      51.898555414564086
    70   1       4.351169592520657      39.734300535838514      2.6112663786875818
    71   1      4.7013303046681036       41.46706145620356      0.3534976304455717
    72   1      1.0597073737961711      45.361806843559656      49.560439834394998
    73   1      4.6816405058121093      47.359808618385863      52.111134399563966
    74   1      4.8121428825710701      45.406941519884569      2.1373711874376715
    75   1      31.685227294042878      44.439119166659417     0.10224145041629765
    76   1      2.7726217144437482       50.05435670418381      0.1308425203767252
    77   1      4.4475177764736307      52.740443784917012     0.16624947681002672
    78   1      4.8633310042762856      51.177086887405963      2.3793370215360459
    79   1      2.7954452688211195      53.915071440355796      2.3943339691571901
    80   1      6.0487659216020182      55.467262119874725      52.021061543810731
    81   1      8.1171824319727008      2.6302882817498574      52.065146051109238
    82   1      8.1693990786074071     0.82377812304635856      2.7413218897483351
    83   1      6.3983158055723122      3.5540609874307334      2.5790888787855013
    84   1      6.3952992677455693      5.2997564938596247    0.026690453672216809
    85   1      8.0921908148593236      8.3122330642658273      51.969891312554786
    86   1      6.2693561153396544      5.5861019039867763      5.3793835068021876
    87   1      6.3173102478993712      9.9304571387640408      2.2821900389802465
    88   1      6.3313192423451481      11.181401885562847      51.471126020267022
    89   1      8.4671631828181955      13.503281236287325      51.631582310914375
    90   1      8.2244545111840832      12.082486528329552      2.3116224449497316
    91   1      6.6377669752420516      14.439446588678381      2.4544508670943777
    92   1      6.8531525327182843       16.28742130254934      0.0260630386849517
    93   1      8.4536382289885523      19.035376934024484      51.954257314058545
    94   1      8.0903337814920988       17.53987478398836      2.5550979795811384
    95   1      6.1862452924498221      19.830600524997195      2.5167102788715079
    96   1        6.04872852585149      22.027450778115572      52.120697641536857
    97   1      7.6246648951550746       24.81210840620254    0.057913389311752467
    98   1      7.9540508670790633      22.937243296424494      2.4183745650987607
    99   1      6.1549472890393249      27.240710266107513     0.29463398820415393
   100   1      5.1568256608926841      29.930049876162819    0.034394773859740123
   101   1      7.9116581731268374      28.165614165415843      2.5944480898999629
   102   1      7.9536872119444855      30.387830742820992      52.035631398551104
   103   1      6.0622291054191813      31.285820706061479      2.7812362375181996
   104   1      9.7503323518360325      33.305856918810264      51.947393924213983
   105   1      8.0076199526501242      35.920690412670687      52.122891152414731
   106   1      7.6815450265774032       33.70591495617397      2.4271025742556667
   107   1      6.5032019366682938      36.487652317099084      2.7189341942815086
   108   1      6.1794636250836019      38.701762288954178     0.12972586930782201
   109   1      7.7631167741272114      41.462648580660471       51.96976300524441
   110   1      7.5065991256521576      39.833612377643725      2.4820496427359822
   111   1      6.4733136371892934      42.743309938515253      2.7774436168027621
   112   1      6.4195364272580182      44.218106256563267      52.009775332469488
   113   1      7.8988457599016346      47.006569106029929      51.858186897047133
   114   1      8.4305963291584867      45.545671487298598       2.470900823178753
   115   1      6.8516903234019697      48.438704432299865      2.5101366649284942
   116   1      6.1603613080946555      50.131684391829012     0.16092140695443879
   117   1      8.1209002348507298      52.700962135186693    0.060571614469844944
   118   1      8.2877428702331244       51.09250945759964      2.5639698709430756
   119   1      6.3071082387498993      53.807639796015572      2.3720441884811083
   120   1      11.010788959657949     0.51446471332592425      49.445676928340745
   121   1      14.156132484963296      7.9080940889749458     0.18771787334727208
   122   1      9.2078763303350613    0.039155360152550202      52.000340850526499
   123   1      10.823950499058027       2.539088074095412      52.031778798002783
   124   1      14.702501669817716      6.5097478906403188       2.711958655103853
   125   1      11.116325872100521      8.2041859064297711     0.12656550639280797
   126   1      11.180708710929675      1.0387467629765046      2.5923877555958041
   127   1      9.5655651231054293      9.2990700377457109      2.6125911461939584
   128   1      9.8510701345694773      10.994442068354372    0.041317364810523644
   129   1       11.62565247476507      13.811855723773329      51.900442249539488
   130   1      12.894803859639188      11.214000404583292      5.2100897099397958
   131   1      9.6290281873413388      14.887723811991064      2.5410361728281852
   132   1      9.9672048551758081      16.394118228542201    0.038112941363348252
   133   1      11.244925858547834      19.082692398441047     0.15530222202439234
   134   1      11.335700037018547      17.314949449081549      2.6810276934129971
   135   1      9.5952427377872613       20.31815077020989      2.5110734835884045
   136   1      9.2767014690696037      22.073955016053276      51.799780694613276
   137   1      10.924780009144262      25.082143525944129      52.028513810312525
   138   1      10.909606460341237       22.89383071641037      2.7924385497498623
   139   1      9.8444403864556023      25.408028063721485      2.9024088525324681
   140   1      9.5236074322353446      27.629155625207375    0.093729708455919158
   141   1      12.875889627830343       31.56527840632879       49.26151419337971
   142   1      11.069093460049672      28.515415285375617      2.6424398866015077
   143   1      9.0428680806007442       31.09915679578609      2.3574820238476075
   144   1      11.209102979902626      30.398696344289764    0.072580533604698932
   145   1      11.303132534370185      35.878232126151076      51.724941501770928
   146   1      11.145000522295057      33.869256675044689      2.3922077557567349
   147   1      9.7912551078327557        36.7407220097109      2.3355937687973283
   148   1      9.5692264893135111      38.993744001027878    0.044690883766941421
   149   1      11.414876410009514      41.922159921550218      51.996750249577978
   150   1      10.892942714970982      39.646308829474982      2.7489620615019392
   151   1      9.5177824115971941      42.361796849294784      2.5908354099484572
   152   1      9.2821287268299795      44.327493309849118       51.81793949613661
   153   1      10.946986522031105      47.192317200081767     0.12685743538275593
   154   1      11.704454283678103      44.821708916758325      2.2241819062820816
   155   1      9.4929841910592767      48.114316971919067      2.4634243596084771
   156   1      9.3001159969440064      49.573739130970679    0.053701753009185157
   157   1      11.031710449351296        52.5555636427788      51.883788062801223
   158   1      11.546322193065356      50.781701784919271      3.0936692472157437
   159   1      9.8501477292711268      53.680133793292143      2.4059917383064127
   160   1      12.743171095971487      55.498414083547992     0.15603028749341188
   161   1      14.128239162705002      2.2705359889591015   0.0083570757870126723
   162   1      14.396527770589325     0.97998133502029117      2.8297600602958997
   163   1       10.97229872540254      6.7140089764115531      2.8809221862019507
   164   1      9.3297589731580608       5.610598470605348     0.51999752940627275
   165   1      12.980000716983774       8.786277929242944      2.9928513305566837
   166   1      12.485191296901803      5.8549548408928338      5.4137857731897627
   167   1      9.5390803042163252      3.6731090124631369      2.6077413327276764
   168   1      12.481948609536552      11.148231889945807     0.36408801445694833
   169   1      14.809209803862259      13.844308145275667    0.051659717988761365
   170   1      11.201742614247308      12.412429164843484      2.7010952365590768
   171   1      12.666171913369544      14.486975343289267      3.4737814933322131
   172   1      12.989516647268617      16.782745714578734     0.23912514682459157
   173   1      14.742056531548478      19.208140249364924      52.050723167892698
   174   1      14.410647128547177       16.76899247604241      2.8152476534903825
   175   1       12.67170653278729      20.082120688529155      2.5155607125917898
   176   1      12.396589946127426      22.011928527737911      52.053663605747538
   177   1      14.489262039573438      24.492388727747919      52.045502437727897
   178   1      14.075239991702754      23.036482687688949       2.595034271225908
   179   1      12.848043202019246      25.889047235040337      2.6430037039438097
   180   1      12.793637178886323      27.268322348521941    0.054663786715709151
   181   1      14.360423303314002      30.382022374811488      51.884343883273026
   182   1      14.208625680384353      28.454940593051624      2.7779134751362653
   183   1      13.010113878274284      31.025471412857673      2.2308191539982514
   184   1      12.937744243415048      33.204853554513228      51.868525001325636
   185   1      14.033498832508551      36.151177554199371      51.792066234530132
   186   1      14.223615301935128      34.276056428462681      2.3916727138301495
   187   1       12.91522499361511      37.117082301137614      2.3379067710316481
   188   1      12.666189685994732      38.944947186659306       51.85714496543396
   189   1      15.843641765727467      44.372664660237682    0.063682413005081734
   190   1      14.570665621851697      39.673353371074526      2.2831463859638967
   191   1      16.344592307102911      42.467923755692475      2.7201223024531243
   192   1      12.939861981780492      44.482108876835511      52.066277689482988
   193   1      16.155227702299097      48.464705137525712      2.7926483691905477
   194   1      13.265495626043132      42.317637016405513      2.5914589083874753
   195   1      12.864279295709892      48.193422009195267      2.6634470392745988
   196   1      14.729325304079648       47.54038158371975     0.11592006447214454
   197   1      12.205478619768135      50.085753856143185     0.37360432509934005
   198   1      14.437480656120814      51.128963263136647      2.8728438310844782
   199   1       12.77395874476627      53.903317070601915      3.1025737717266568
   200   1      16.182190984619687      55.237418628759386     0.19418884467311925
   201   1      17.499745958690283      2.3571900683772884     0.04656044756223942
   202   1       17.62208523245333     0.41201737835211993      3.3358540563943317
   203   1      15.743664035373097      3.5437046236187291      2.7101247413095408
   204   1      12.800146034281287      4.9722103276582086       52.06057463580796
   205   1      17.455371841690177      7.7779206499060933    0.048777173297140861
   206   1      15.977301632699708      4.8686726010183703     0.10315588620468366
   207   1      15.879456753720699      8.9229429484779104      2.6048386589863353
   208   1      15.934562258691434      10.869054813295536       51.94300908676469
   209   1      17.680016426014777      13.508146286493474     0.04659514572529351
   210   1      21.068714435360238        11.8716550827665      2.5214058907992514
   211   1      14.619892509232178      11.590630535521109      2.6191059489556192
   212   1      16.406346898630904      16.385182845874862       52.10792345324203
   213   1      17.792814267641088      19.409819960749644    0.094878835365639014
   214   1      18.028434455262992      17.794841428601213       2.877229714677779
   215   1      15.741384282109138      19.732165516065347       2.492562930926757
   216   1      15.956573034877032      22.047869784242181      52.046418854450529
   217   1      17.644789592142203      24.847327723428542      51.994500864566952
   218   1      17.329680310906966      22.837046430265282       2.458443963715943
   219   1      15.864904843615321      25.514669309711142       2.640904676887661
   220   1      15.938009458814612      27.411118897892486      51.955730539856205
   221   1      17.219510895662605      30.461866035895582      51.961069505668036
   222   1      17.356706918420414      28.626911892117526      2.3714432959411766
   223   1      16.130764142103747      31.338713776855123      2.2420979387444153
   224   1      16.032577094749666      33.282326783991181      51.993032793259204
   225   1      17.061063711428396      36.310280152990231      52.005819035603665
   226   1      17.296226974757417      34.352230184777483       2.625764759985759
   227   1      15.945470817913712      37.211616743556249      2.6164386273463571
   228   1      15.934204623651846      38.659386345164272      51.853360821662505
   229   1      17.420525595526762       41.71282716971497      51.974644337314473
   230   1      17.805653091223245      39.607005718489908      2.7093477974637157
   231   1      14.301020710671303      41.263240039618246      51.745289148746224
   232   1       17.54283048524362      47.414218131584462      52.035466667221684
   233   1      15.988434621362492      48.535473426829398      49.421947990975205
   234   1      18.219677057771207       45.17143554222146        2.65906157109622
   235   1      14.795162509835729      45.375376120183404      2.6414124206835363
   236   1      16.093855805102606      50.195697355082338    0.037102545938022299
   237   1      17.676322213423962      52.675547645078922     0.11148455306730852
   238   1      17.083214769973008      51.331262149638178      2.7269475513599493
   239   1      15.811141654977078      53.750310569279932      2.4282450057690559
   240   1      19.188593777040857      0.1032889685400696     0.11924923643114817
   241   1      20.692540639774343      2.9961268748418295     0.13917786544871197
   242   1      19.019147969615119      2.8988234309572145      2.7346733683952915
   243   1      17.685410781790971      6.2651934738427171      2.5048582118136649
   244   1      19.412516226294375      5.4126870438861072    0.054312252352450123
   245   1      17.668059543838986      11.721754332176348      2.6622206123334764
   246   1       19.10911211332024      8.9735929486198476       2.598316088373454
   247   1      19.520016379914516      10.749224948989031      4.9676155364638079
   248   1      22.496262682331494        11.0066742412795      52.030938533287355
   249   1      21.026992293284419      14.021307923914122    0.075075544728461743
   250   1      22.753967648253369      8.7171682016802787      2.4107850566181077
   251   1       16.19357362817691      14.223803672978903      2.7039423174556765
   252   1      19.492533196153794      15.132201328308989      2.7382344661163498
   253   1      21.139380853502576      18.994667373326017      52.081752522945393
   254   1      21.427630018350442      17.390557242336445      2.6328898980322011
   255   1      18.953002927804381      20.583271668706036      2.5303902149903377
   256   1      19.413065281521323      22.135451780668319      51.873472407792264
   257   1      20.549148889270256      24.941057900153297      0.3301254191311484
   258   1      20.710179001799865      23.050390679838635      2.5781370258144065
   259   1      18.861017484770045       25.80953611961948      2.6554027749268441
   260   1      18.840841261365316       27.88547308728441      51.991293377771086
   261   1      21.254189632384048      31.077702438275544       51.64796143883828
   262   1      20.349700877307658      28.412132764860154      2.3163019647025527
   263   1      19.312703961603059      30.980069698203508      2.4536149761716333
   264   1      19.309717829599542       33.31932663375904      51.774659782560747
   265   1      20.365264496736867      36.445240301781006      51.841063816946523
   266   1      20.948559567297295      34.633893935724032      2.1150926187565182
   267   1      19.199902402211311      36.935975628573999      2.3225653654312182
   268   1      19.262805002498762      38.998926044673013    0.069481925767334793
   269   1      20.677464792601555       41.65855406641986    0.092984237526194391
   270   1      20.936419600759045      39.834328167444085       2.616465391412818
   271   1      19.547106133904968      42.459629686728896      2.7100401677240966
   272   1      19.050925503927751      44.355197821219889      51.986374620867124
   273   1      22.311741559946466      44.646136877674664       52.12109862115642
   274   1      21.096266939348745      45.414851585980841      2.3329666108599505
   275   1      19.180669080541083      48.066098022091914      2.6712314060360329
   276   1      18.916023615457682      50.287139371258434      51.986277845216691
   277   1      20.849235407051509      52.991354287963929      52.107247036881496
   278   1      22.594036573418499      47.985910701353241      2.7518474721558612
   279   1      19.575066920095662      53.821897587892373      2.4538866885235193
   280   1       21.26161406385636     0.96601754639303961      2.6834167232979285
   281   1      24.101236450243682        3.01258321815182     0.18209140346644523
   282   1      24.614461848280655     0.60432588976852497      2.4584039288870541
   283   1       22.08176565644812      3.6955533001278256      2.8826181720499826
   284   1      22.740234192797612      5.5134870362198027       52.09203948379745
   285   1      23.875658275626108      8.5251457879122885      51.824329403769752
   286   1      24.141228251692297      6.1195410397280581      2.3800693161842403
   287   1      22.268957048724641      4.9372776030794121      5.1010050032565255
   288   1      22.607272803975807      9.4273403454379778      49.202355886344719
   289   1      22.869336579293975      16.787000770685136     0.05294883996275758
   290   1      24.449531443215555      11.800255031962012      2.5026481548945614
   291   1      22.643697076994062      14.309036455930258      2.5749444225555811
   292   1       19.40123176516888      16.481900657556942      51.934201699683918
   293   1      25.513657605269657       22.73298978499097      52.053186862839588
   294   1       24.51125776835033      17.432213400407701      2.6526606456275186
   295   1      22.524685034182902      20.056134807409201      2.6048365140824918
   296   1      22.335897673636762      22.034848730629147     0.18099059641044707
   297   1      23.641585187825072       25.29484105599709     0.36359467784947125
   298   1      23.877530721738765       23.23533469593227      2.4578409048595855
   299   1      22.335200693583623      25.970138968288428      2.7428514832769917
   300   1      22.231615653137776      27.904564634591662     0.33603038196605822
   301   1      23.755743113876498      30.735513660365729     0.45288958315768252
   302   1      23.768037302438202      28.914705297447885      2.9626488933631774
   303   1      21.979320223314218      31.815094861651179      2.5851407844745915
   304   1      25.632457504486176      33.783347151519109      51.973937502686432
   305   1      22.370270836404654      37.134115402030275       49.26660167451292
   306   1      23.762520622833165      34.019250559006338      2.0077965270677711
   307   1      22.001791524092955      37.441228487159599       2.428938777786608
   308   1      22.035572449966963      38.881644961300744      52.034657247887672
   309   1      24.192004916868811      41.668334488659006      51.961769919292628
   310   1      23.787437778904845      39.838453582063046      2.9658064651325411
   311   1      22.571152554155717      42.802182385845434      2.3322850706645348
   312   1      24.302354280321254      45.469916176539193      2.5127672773751106
   313   1      24.107518753007792       47.22573143207358     0.19148793385132293
   314   1      25.507301061311498      44.590356093824148      51.996637945985924
   315   1      23.981247124494679      47.447760261082848      5.2357456910180202
   316   1      22.431040106894578      49.865218136999204     0.16972701214973179
   317   1      23.724917062567478      52.588728419771257   0.0082440168603670101
   318   1      27.066702359595098      51.135857094890184      2.4598434811938064
   319   1      22.536544445312526     0.12314437439290904     0.11971397124090923
   320   1      25.560618058066712      55.536437292033675   0.0039238621966854216
   321   1      27.192062297772178      2.7091442909941654    0.012059565754233267
   322   1      27.290992145342777      1.0249557491507537      2.3590074941695538
   323   1      25.927039801677054      3.4709556615809665      2.4907480501515074
   324   1      25.825446147231268       5.406662929802434    0.061436995270520725
   325   1      27.061080314288613      8.2286134182038744     0.12705713234590549
   326   1      27.362931505393316      6.2381000599591419       2.606107049027365
   327   1       25.82866928607114       8.703693922113251      2.5250380465416513
   328   1      25.873718854346262      10.844315962220167      0.2076441301129805
   329   1      27.426169496980329       13.56065402055493     0.16496456961964001
   330   1       27.44174915641937        11.3277944892442      2.9193593645386589
   331   1      25.592643404378851      14.796681024415395      2.7626774387289963
   332   1      25.961711931698414      16.299648114352582    0.073368674344632262
   333   1      27.617205098922973      19.806005504174426     0.22699927801900127
   334   1      27.639000660080793       17.93651141138098      2.5685978183272082
   335   1      25.504544061633304      20.268819321133513       2.542131859365198
   336   1      28.679242179430286      22.425051171101426      52.046777889087636
   337   1      28.654304880584437      28.310265987801028     0.17976713017922002
   338   1      27.491308618401639      23.063570491200359      2.5824214925472417
   339   1      25.487417099261624      26.151185634349858      2.7343881054712216
   340   1      25.382046818390261      28.283015274023409    0.098471584439080218
   341   1      26.802897536504354      31.008502833782863      51.921455571495116
   342   1      26.924239884640059      28.916489028064461      2.5994500413426986
   343   1       25.63964658851329       31.90205911996901      2.7490765730473288
   344   1       23.42065221251617      36.021764141828413      52.009331930680183
   345   1      29.192221986993442      36.912048949267778      2.5330758125268402
   346   1       27.01704114276918      34.481524750461922      2.5775435016590933
   347   1      25.173160322810556      37.005782068394858      2.6798399617781965
   348   1      25.441541729996036      39.011251391954033     0.26419941973395172
   349   1      26.822092511276402      42.166407567027498     0.19669959751770152
   350   1      27.170210365275057      40.003478465858073        2.59408601485285
   351   1      25.400403833421798        42.8829689199722      2.6647948362261942
   352   1       24.50635665646146      45.585711819948955      49.308781203772909
   353   1      26.735306338791233      47.115522639797391      52.115358684614833
   354   1      27.002408057818986      45.630585054404555      2.8875380882148547
   355   1      25.688839512146558      48.352744805035904      2.8253646037694429
   356   1      25.584636263951747      50.225278628365672      51.911772692761041
   357   1      26.910505791767374      52.575645373668571      52.019650809507816
   358   1      23.770365957352656      50.938396008073035      2.7990049680609852
   359   1      25.788436052992498      53.944083916693323      2.6503726417062303