dump/Mg_1000_5/steps_41 (written by ASE) 

3995 	 atoms 
1  atom types
0.0      32.100000000000001  xlo xhi
0.0      55.598830921999998  ylo yhi
0.0      52.130399999999995  zlo zhi


Atoms 

     1   1      32.022418555645253     0.28701650610805368     0.27143514491301146
     2   1      1.6295709197602068      2.8824570151820339      51.842800241324539
     3   1      1.4567673032189095     0.96825176882710229      2.6725855030837176
     4   1      31.946515042569136      3.7918751988773622      2.3808811312836573
     5   1      31.863870164182977      5.8245328878286999       51.77508699676077
     6   1      1.8028926415109181      8.1671058966751904      51.920905982143367
     7   1      1.5075143096666348      6.3093643807376809      2.5312302081576159
     8   1   0.0040308767280301345      9.4830425647299528      2.3300409856310971
     9   1     0.22937328763762335       10.94593777237796    0.050490176186351494
    10   1       1.255294401297592      13.480047232728467    0.038208960010850543
    11   1      1.9762312116165635      11.777314936606025      2.4103289565583204
    12   1      32.067736956712508      14.668412386212745      2.9375196738034766
    13   1     0.15759222680752716      16.642678010072125     0.39658936614282786
    14   1      1.5826721001944424      18.897363096681371     0.18524275766679288
    15   1      1.2389186099865255      17.404308503001353      3.1262873920939169
    16   1     0.50779544979881253      20.397229545956876      2.5167820401124117
    17   1     0.47592110245751834      21.847263768382518      0.1504942356439207
    18   1      1.7632483488814958      24.654216974882964     0.15827284885481815
    19   1      2.0616084990546164      23.303730233193249      2.5731282248319576
    20   1      31.934046803378486         26.327802323573      2.6986906048137547
    21   1     0.13906651627979091      27.680821207999259      51.712719469449468
    22   1      1.9339711879808104      30.421422775806718    0.010831515723363713
    23   1      1.6225005339679828      28.905503951331696      2.6897516063645144
    24   1     0.24890428000657233      31.313439168658711      2.5340214641557894
    25   1      1.9656819591634345      34.198977062999447      2.5538561081055602
    26   1      4.7816074831816504       36.84076016744303    0.078047972901186591
    27   1     0.13606664870158297      33.234447837374567      5.1721205003243975
    28   1      1.6904553793308934      35.787625849786146      52.019456183215539
    29   1      30.493725580007162      41.404520368692374      5.2025422143597693
    30   1     0.11901092911057548      42.292451829083149      2.7581771202975212
    31   1      1.5731297089909191       41.61857555103245      5.6013050389194188
    32   1      1.5007605888356146      41.729653331931033     0.17145435563673075
    33   1      1.8572152427753572      46.913669280795823      52.101735596451618
    34   1      3.4875745705234706      48.161683261466905      2.4311894541048411
    35   1      30.996128308691119      45.388366699139141      2.4763519410439492
    36   1    0.029251272074231421      49.719387376355712      51.736077095533346
    37   1      1.4420248260523829      53.332322755038781      51.861290743258671
    38   1      1.6209846081177874      51.185919366688658      3.0632056430895158
    39   1      31.942546291369357       53.91647106123196      2.2655170435069114
    40   1      3.2115240281906114      55.498895936089809      52.061746562518344
    41   1      5.5111858624570091      3.0525472327703485      51.644467677920183
    42   1       4.802779480151206     0.63813473363967799      2.1632314083144584
    43   1      3.0592523537081209      3.4380853505056592      2.5274012984593885
    44   1      3.2473428362514736      5.7129331686651534      51.958309907058414
    45   1      5.3675423928342356      8.3354977558235301      52.041570682064005
    46   1       4.952393522666136      6.3423798309756085      2.2968943473392871
    47   1      3.1076281119989413      8.8808308733042818      2.2591383602195951
    48   1      3.5970671979411692      10.966263770203861    0.037178657609193193
    49   1      5.0105301826439623      14.097979930222902    0.025172628462830943
    50   1       5.057356811102288      11.858326798167974      2.7408475731689443
    51   1      2.9310633082462023       14.83616757330153      2.3580744799277507
    52   1       3.679519506896574      16.761439786722679      52.038735243603995
    53   1      5.0180903608655241      19.717656117873492      52.006982658039817
    54   1      4.4995817675162035      17.655464540499207      2.4366442243783117
    55   1      3.5099597469021151      20.582193222483042      2.3615379422351803
    56   1       3.230293964467605      22.274724861364245    0.089276114435733689
    57   1      4.5786153524112603      25.403699343400699      51.868813930852028
    58   1       5.171974775825305      23.412599182419598      2.3060126643605479
    59   1      3.5129333252232628      25.917131756463753      2.6407709806334152
    60   1      2.9379541293512288      27.688420340492051     0.32748130507149592
    61   1       8.492777864465717      34.095627851285357      49.363780296203551
    62   1      5.2268408433702032      28.805371242030432      2.8836365217399207
    63   1      5.0110362380619398      30.715437993679252      51.980531885496617
    64   1      3.6000135075751563      33.480811495608833      51.937800643716642
    65   1      4.9785396447934955      34.476423819286808      2.4577377784233714
    66   1      3.0490325726706291      32.953286123562378      5.3230716477330136
    67   1      2.9035345703084339       37.20492051657984      2.3317081821064098
    68   1      1.7976022200854844      40.097520150170517      49.449616549077774
    69   1      3.5844900229908934      44.028707946536315      0.2086389377890048
    70   1       5.008464694683374       39.45780228931141      2.6880774573817705
    71   1      4.8385910162229875      41.375538201734507     0.18827477424514422
    72   1      1.6310604799542778      45.406196487146623      49.258286522334323
    73   1      4.9795157191550539      47.139254454095003    0.066298600614067782
    74   1      4.7437051261745795      45.129386464073086      2.7494882815421171
    75   1     0.12367525915639732      44.049430945360506      51.913267563430772
    76   1      2.7993122493719018       50.03085533915462      52.034529176797335
    77   1      4.6373383637320824      52.862730069757376      51.926466953752566
    78   1      4.8013615142685229      50.995749706467585      2.1408086199236518
    79   1       3.021522513622394      53.654991885561024      2.6038608337938332
    80   1      6.2766749501870365      55.372991093957395      51.888846464907999
    81   1      8.2821613519048842      2.3615048012205522    0.067255068676939631
    82   1      7.1824071416351778     0.97093702421341288      2.5184920671079318
    83   1      6.4219151641715575      3.8154781290776829      2.3857077970169009
    84   1      7.2459453345463052      5.4257563067065346     0.20877559234697426
    85   1      8.4269915461671658      8.3176026140662156     0.29404524823666495
    86   1      6.2127449035383693       5.703530253938256      5.0401857573490254
    87   1      6.6906826655994402       9.271273916456007      2.3607340017298943
    88   1      6.5919890562979866      11.269403877696094    0.027797490837788687
    89   1      8.0671932416459278      13.920091421445688     0.26236105760293227
    90   1      7.9099807183508304      11.874465834789998      2.7513025186950864
    91   1      6.5441719658964024      14.756370171529497      2.7035807373339438
    92   1      6.5542711316529667      16.899025155258403      52.017723398500735
    93   1       8.031961810909289      19.378778168834703      52.020778276065364
    94   1      7.3690944508528951      17.504270892698241      2.9969076354376618
    95   1      6.1977174761598839      20.420062738034101      2.4066785704756244
    96   1      6.4706645112668051      22.423664811202631       51.77923708521309
    97   1      7.8974308816990053      24.944713108940352    0.033627389588648832
    98   1      7.8677392523367766      22.807003490486466      2.5260643166615839
    99   1      6.5627626347401344      25.983319991351852      2.4891960025735784
   100   1      6.4022175731923037      27.614771284745125      51.496428483937905
   101   1      8.3484716900344047      30.470343038229565      51.841010013982149
   102   1      8.0564092750955485      28.551425164618081      2.3288226403277879
   103   1      6.5635010824492479      31.475656032834888      2.3407979617455226
   104   1      9.3429319965789333       33.05367735621703    0.064672659230446988
   105   1      8.5631249885912215      36.236377439892856      52.056556868122108
   106   1      8.3546796528275671      34.995376967084489      2.9450311597896754
   107   1       6.256340621619592      37.142734677543629      2.3836501405903512
   108   1      7.0427542724395247      38.895886691972798      51.912247657772106
   109   1      8.1732694937999568      41.574494366048569     0.12786814444059622
   110   1      8.1984236944494775       39.91735105014471      3.0161883843063548
   111   1      6.6053233903297315      42.443481153546443      2.7811836935110081
   112   1      6.7315383238611846      44.401836157802407      52.104239718985134
   113   1      8.0690320381070482      47.649672832270014     0.21907341675487907
   114   1      7.7863638412585265      45.297223416898625      2.4702064410772118
   115   1      6.3257024894683438      47.939138333455624      2.4426539705263846
   116   1      5.7687182709643805      49.890817122107812      52.073154041249083
   117   1       7.959299363026954      52.787580308752688      51.912060769016769
   118   1      7.8854467044950773       50.67859809274524      2.0890010595326438
   119   1      6.3296381184202763      53.424902925444059      2.4178978933892892
   120   1      11.247267037303949     0.95566186475934445      49.114768867528632
   121   1      12.773252472182511      5.7278964503506424     0.31219671931708332
   122   1      9.4834218475154763      55.564984947035718      51.815165557252193
   123   1      11.465443553257053      2.7426858465525643     0.27544309833402719
   124   1       13.20567657135369      9.5644640748285727      2.2900720710072937
   125   1      11.403207366912925      8.2645728876142197     0.20917574256501104
   126   1      11.034172928976666      1.0456766918639422      2.7366215576393982
   127   1       9.974492767047332      9.3249377205661492      2.5575530439977356
   128   1      9.6232413492566842      11.458299086870916    0.075170728071590878
   129   1      11.463233156316607      13.981668172508266      51.703733664020383
   130   1      11.492437095780907       12.11474772679261      2.6824979165260348
   131   1      9.4086427936784176      14.825865924999761      2.9386926936375612
   132   1       9.451159098478497      16.547953458329903     0.12166882556116403
   133   1      11.245514495685187      19.437802698787056       51.49217222125192
   134   1      11.113725893137676      17.472171343617191      2.8349365725611264
   135   1      9.6184517093253969      20.208424220070899      2.9919004535919571
   136   1      9.3593710991751813       22.05641499395195      52.025784147200376
   137   1      11.026002064387958      24.918305759676265     0.27117120589438876
   138   1      11.235892623036264      22.531039027766248      2.3218286263044874
   139   1       9.495942867167761      25.232441622113992      2.8565702094583267
   140   1      9.4843016674101648      27.767796453196173   0.0089474962190846663
   141   1      13.191907569403169      31.544287122500439       49.67372302406465
   142   1      11.101191831304975      28.155563366917598        2.74109968338795
   143   1      10.006463356458632      31.175980355832095      2.5453613854443695
   144   1      11.478642684321544       30.19265166957133     0.42248203296696013
   145   1      11.305953117458083      36.269183879509484      0.1485477519988537
   146   1      11.433498565846735      33.992216420169235      2.3177883713244278
   147   1      9.3381339922373314      37.510999486185135      2.5502571326621912
   148   1       10.13495792246427      39.212250405296018    0.033535609780583293
   149   1      11.717767367482784      41.562959042057507      0.1488327505162518
   150   1      11.498603720513762      39.728788939000005      2.7109562920845702
   151   1      10.179498051255921      42.695698796397679      2.8960923977348449
   152   1      9.8333105052377618      44.140890413190469      52.125575638437489
   153   1      11.065020714117013      47.158898121017941      51.865849549866134
   154   1      10.789299890866429      45.516525570772444       2.836853993501439
   155   1      9.4399468656728178      48.071158380607308      2.5498172365578058
   156   1      9.7369513050323899      49.967875097512419      51.848573959036344
   157   1      10.871034791454951       52.56695233202332      51.691962855700638
   158   1      10.511645669404396      50.716911709930137      2.5413612210500971
   159   1      9.1337688413858764      54.212991962380585       2.239123837307853
   160   1       12.63587701028603    0.025625888470124505      51.796851510079136
   161   1      14.490531274463505      2.9748736757437362      52.037646760495235
   162   1      13.720613123058879      1.7317561064171592      2.5627478795195553
   163   1      8.1190589875571462      6.5685118137336325       2.736632906827809
   164   1      9.9700708938463372      5.2482716744632034    0.013917598949719671
   165   1       14.78502876623436      8.1355868732344998      52.005582372449737
   166   1      13.165545153894984      5.3225597580018613       5.204317902277853
   167   1      9.3145628590637166       3.478954358121956      2.5899013434612699
   168   1      12.818678939942815      10.889906418478633      52.001505693272868
   169   1       14.32179136572395      13.377943580297156      51.707697074945195
   170   1       14.77156035313212      12.111094295436347      2.2695944467173534
   171   1      12.943192505816004      14.830827734163051      2.4108980190725333
   172   1      12.442511609741649      17.062880538072214    0.068995241144277922
   173   1      14.601093779745797      19.029043000388036      51.847833668732584
   174   1      14.373360131349244       17.42788071009047      2.6985179349961883
   175   1       12.85021508889189       20.10812549561086        2.19932724429367
   176   1       12.57848387651498      22.268778164799834      52.056377917096327
   177   1      14.705853066591777       24.90319225828906     0.59891421835167491
   178   1      14.128171070880459      22.972050741038718      2.5179251643791019
   179   1      12.717124124239703      25.442489419115013      2.8925681312809362
   180   1      13.202414404680249      27.426651227961067     0.14132161942313917
   181   1      14.241971887905585      30.839139695472273     0.38106166158450178
   182   1       14.21485046701614      28.506301592209187      2.7684495268585292
   183   1      12.987841781576918      31.214037206646431      3.1853567679954131
   184   1      12.730918512726454      33.280994376435146      52.104629288272186
   185   1      14.607243964624377      35.621576250033982     0.30497685268873176
   186   1      14.630705888465032      34.068007951117096      3.0385851413999991
   187   1      13.062739896350203      36.835455326279678      2.7784066113851922
   188   1      13.397824268035263      38.395642283364104   0.0029066821154075132
   189   1      15.929455616464161      43.995381094673505      51.936916376632105
   190   1       14.50174268094379      39.673769155360191      2.7316519617820529
   191   1      16.042515279278138      42.553780786316466      2.0237123090784896
   192   1      12.638565270657798      44.575365487062349   0.0023853226680123946
   193   1      16.281473616648572      48.311050438393288      2.7332088228841802
   194   1      13.091925528698605      42.824479843436514      2.4862011171808809
   195   1       12.78684020610198      47.696166425805238       2.474385540643758
   196   1      14.330759280389685      47.457283891402533     0.11031329293564976
   197   1      12.634060185750595      49.990028547772177      51.930047403562803
   198   1      14.246596779537024      50.516960864056067      2.3070616392342611
   199   1      12.732553685724513      54.172702478422757      2.2303417685555265
   200   1      15.474927942747756     0.11537307367332761      0.1831630746604723
   201   1      17.658084712778347      2.4836885954660057      52.062844460754278
   202   1      16.744851659982299     0.84018758229731128      2.5928154356485735
   203   1      15.891060744578022      3.9432742998464492      2.5452885772801164
   204   1      16.134231506382651      5.5264217606155706     0.19057335761578423
   205   1      17.971592419433858      8.3146483258490029      51.725111637038317
   206   1      18.143293818932413      6.5971494626710161      2.4295718656523464
   207   1       16.43622525856463      9.3797638566130317      2.4246692618955636
   208   1      15.686372016299089      10.981965314580453      51.802885644645912
   209   1      17.384415151696818      13.731301525911443      51.901106929456645
   210   1      20.683148605019291       12.10356856934923      2.8001993028099528
   211   1      16.245210133041414      14.905713384007639      2.4796636612144818
   212   1      15.956437056343121      16.171105906379758      51.542960445225518
   213   1      17.467716086884348       19.63770948469698     0.25190717609227969
   214   1      17.917378069961021      17.806382863285418      2.5633131169972287
   215   1      15.635442959276094      20.425419444867885      2.3307081517496941
   216   1      15.804873900059388      21.868262764172641      52.079220150582508
   217   1      17.702295882807427      24.791195699081456     0.32686297123307317
   218   1       17.54523984158029       23.01607103466386      2.7484399707076177
   219   1      15.665663868700809      25.643477848450306      3.0954547595952868
   220   1       16.09574044308674      27.369318471078277   0.0011856352219116152
   221   1      17.474903065022691      30.221823338051983      0.4350480081565114
   222   1      17.211600429588966      28.361107441029855      2.8135335603073974
   223   1      16.162848953518704      31.111988845011609      3.2524822090591585
   224   1      16.095239258584204        33.1519842279871     0.10456017227171409
   225   1      17.984713957477144      35.918944040969869      52.092716792466781
   226   1      17.634943388315151      33.885342049210969      2.7237525272634935
   227   1      16.131772757291778      37.076700849904967      2.6279888304524519
   228   1      16.408954430589855      38.350414214424198      51.898177472826156
   229   1      18.215419272965914      41.874977647528489       51.81224810115171
   230   1      17.672747910206237      39.631124659927146      2.4839205292165483
   231   1      14.550918937342884      41.323237747991804      51.806057342830862
   232   1      17.904542967764485      46.910516237096232      52.068543941884109
   233   1      16.069834911929302       47.93298446579044      49.775451440157333
   234   1      17.983800503473475      45.319927659697939      2.1639662875683765
   235   1      14.878850646689379      45.644031318367198      2.3031979806062384
   236   1      16.028673018702094       50.01022887152191      52.048552447747888
   237   1      17.294420004755736       53.03717256894528      52.096055587867873
   238   1      17.492917682018451       51.05358975695227      2.5636066076246249
   239   1      15.594290826363778      52.807074913158168        2.50939275199732
   240   1      19.193187823033405     0.11080315786535948      51.956417646391635
   241   1      20.811409801887386      2.7048204492232619      51.690338351914939
   242   1      20.383334181824257      1.2520411880100024      2.4491731322169765
   243   1      19.433377215816812      3.7225632246848757      2.1838275144517536
   244   1      19.769412116606158      5.7095622012239824    0.032517873416450876
   245   1      17.622894408757382      11.994853182450944      2.5512547160393049
   246   1      19.343606617832318      9.6265350570853077       2.459818457728534
   247   1      18.985945513767142      10.955492932596457      4.9234499888587457
   248   1      22.158069819648983        10.8840055895418      52.111965184158805
   249   1      20.620191663571966      13.474823304315134      51.905999642099133
   250   1      22.445643884672211      9.0166748458152881      2.1084117261423923
   251   1      19.260482796408319      14.599641147699744      2.5939509615512542
   252   1      19.044440613392666      16.430401362396978     0.13985085314860826
   253   1      20.913895987722636      18.852327100322718     0.52050988882730942
   254   1      21.195981988181796      17.339625576319015      2.9941661390454315
   255   1       19.42146662093181      20.429329493883916      2.5228860639275044
   256   1        19.3513473444008      22.122268041666118      0.3120210339572696
   257   1      20.841458810951682      25.004953985141835     0.10466443116903164
   258   1      21.038503868113331       23.00923675297102      2.6878631839504559
   259   1       18.95475868931176        25.4556695465701      2.8220169026717628
   260   1      19.062794048739143      27.631886409227484       52.09124037586723
   261   1      20.786672920768115      30.717485936064978     0.35664007034696726
   262   1      20.856446414347594      28.367261367554772      3.0422668373241124
   263   1      19.365017837810299      30.800994558712432      3.0334881708207879
   264   1      19.072492224142326      32.885246311975742     0.27826091040079892
   265   1      21.121565670621109      35.672874979191057     0.22974216931732161
   266   1      20.420582239163405      33.346980303532789      2.3012516364778532
   267   1      19.326294759178939      36.717938627705131      2.7259676559083776
   268   1      19.514901456759468        38.8603087361316      51.957180183911369
   269   1      21.163423994813375      41.371923711125902      51.856420481399915
   270   1      21.044029249353855      39.547024511726661      2.8489466809886328
   271   1      19.751858082454376      42.174991160807252      2.3190626489565633
   272   1      19.699687467860489      44.571318665129752      51.857106526663848
   273   1       22.44239049053018      44.218015223270697      0.2135548888494872
   274   1      20.979503861712875      44.894736873042035       2.664859207515804
   275   1      19.591145741276922       48.00718817417264      2.5967100809319237
   276   1      18.966580412119011      49.919512981071932    0.084751613260221195
   277   1      20.981543203448929      52.300513628480516    0.025174797653634985
   278   1      20.477192064752774      50.819384691938509       2.612182200681898
   279   1       18.78465895247356      54.020278914716322      2.5970775301717337
   280   1       22.53887106362469      55.532665653639299    0.056784939716002195
   281   1      23.941963179891783      2.6625338922885207    0.044111589750557421
   282   1      23.914560231225121     0.85069801683639545      2.1834454139093551
   283   1      22.562733212882655      3.3228124109681807      2.6742968074975884
   284   1      22.695027171406881        5.14908159813226      51.944837842465745
   285   1      24.635269662905365      8.4514599697045121      52.124141008646966
   286   1      24.199854148902325      6.6400988273020305      2.2698392783980994
   287   1      22.658785010612323      5.4309587664929921      5.0749971628331902
   288   1      22.718497885562222      8.9967639686168219      49.470010421826011
   289   1      24.130804987436182      13.513485170797198     0.43628161387444508
   290   1      23.953440863219605      11.695235918974722      3.1421845206804768
   291   1        22.8042206685219      14.851565011679233       2.725109572646458
   292   1      22.349256300331064      16.256101192568277    0.047666376547742119
   293   1      23.675901035368156      18.914742246853258      51.289372454407619
   294   1      24.297311829218611      17.205059760828512      2.3326865643462922
   295   1      22.869833703700365      20.178263257604922      2.7844899334452613
   296   1      22.458139863111491      21.845082877741309     0.17532492042071268
   297   1      23.979463689251727       24.53777373363836      52.064540112786972
   298   1      23.892002480425983      23.117735740319816      2.5687672653336286
   299   1       22.47741069253804      25.665621078651959      2.2942875032648637
   300   1      22.474567852134523      27.897956007811114    0.088513735957662418
   301   1      24.202829005713994      30.258475017659773     0.13465109263029271
   302   1      24.163121813504176      28.119362633280733      2.2349494265236824
   303   1      22.654101129147204      30.575848284409322      2.6640338916330668
   304   1      25.898488268902092      33.057338134290724     0.29666025075094071
   305   1      22.720822310974153      37.335796951039299      49.045170850973676
   306   1       23.85263133919003      34.231452487510026      2.8086598527492268
   307   1      22.974443012035216      37.110300224715822      2.9056182740977938
   308   1      22.697462702133762      38.987284743534893     0.11690470297542123
   309   1      24.605149781826793      41.334838668156436      52.086029709329395
   310   1      24.578429683552862      39.713342324570611      2.7676505067625952
   311   1      23.219358611415977      42.397582624225549      2.4481501564296755
   312   1      24.188803282637469      45.299798370851143       2.637699164752807
   313   1      24.182590228577538       47.17703022287855     0.25411981419156748
   314   1      26.020277447636904      44.685421291481454     0.44262603288072472
   315   1      22.306493477790816      47.822257907171725       2.486074157376108
   316   1      22.097595146570718      49.742905160653429      52.010319108353357
   317   1        23.9221389766589      52.934307061982729      51.897724625183535
   318   1      27.198739073246305      50.742172403914076       2.587407984325063
   319   1      22.601082782447797      53.716972743356727      2.4564439698479617
   320   1      25.802693344910459      55.544707057479449     0.19492973797865584
   321   1      27.329122084169672      2.7462394454610819      52.090936526640036
   322   1      27.278280599596854      1.1962188996475991      2.9317019279747196
   323   1      25.878957660608702      3.8398944268517883      2.5284402162134518
   324   1      26.049139218478029       5.661608643301312      52.024753439372979
   325   1      27.406535357322692      8.6529755632552323    0.063233752798057111
   326   1      27.392242199719743       6.713811567106907      2.4982778874979545
   327   1      25.601428336907698      9.4712785298763453      2.4612037677601868
   328   1      25.736940872974241      11.196918971466792      51.630720940959137
   329   1      27.076230886018841      13.902842362894607      52.075732246766421
   330   1      26.883942952770269      11.967181217119679      2.5486015376918143
   331   1      25.997955518026625      14.730103708693404       2.977647246842662
   332   1      26.024974176239414      16.731750020509722    0.035866027544800637
   333   1       27.38728729145652      19.283089719614701      0.3534742427884015
   334   1      27.724343744549557      17.524161631354762      2.5069252638572106
   335   1      26.216654600549287      19.985865260993471      2.8150272246476047
   336   1      25.743834021403188      21.886746125271141     0.55574794970691033
   337   1       27.07817992919102      24.524442772132264       52.05015474645829
   338   1      27.470059245160222      22.814907283310834      2.6001196697669338
   339   1      25.759971447010571      25.524579542495307      2.6972585685276598
   340   1      25.976376773066086      27.137057163012873     0.12576350748732151
   341   1       27.38068588836105      29.858828253052355     0.11630471866001772
   342   1      27.236127754045338      28.380339668313301        2.37879066969623
   343   1      25.556432939375195      31.211543997230528      2.6678467950319371
   344   1       24.15578657296771      36.131557735610514    0.087859216631625423
   345   1      29.105900411320672      36.988237166277237      2.2077185250844624
   346   1      27.346293225852254      34.258055633527412      2.6804080576203462
   347   1      25.797240395754713      36.865898912647992      2.4525563398992967
   348   1      25.590072194747719      38.652870316271269      51.964276255412663
   349   1      27.583672752812827       41.62277033086886      0.1975977364758682
   350   1       27.34209005118197      39.768758467073077      2.5203170636222363
   351   1      26.216020802525104      42.875763000073107      2.8020536915446561
   352   1      24.024878684270021      45.537119851541895      49.562120917865514
   353   1      27.339671537271201      48.021539766530289     0.29404532052267723
   354   1      27.931005612685993       46.09523854097413      2.5880171557558498
   355   1      25.518628598265504      48.156075807309634      2.8592979253997242
   356   1      25.603133632150652      50.342148839041229     0.35726497434206844
   357   1      27.107823306413625      52.658887753738213      52.078201823102262
   358   1      23.607701980134305      51.179936902957905      2.4197756308734273
   359   1      25.432958949064435      53.897517696549961      2.9265139257420403