dump/Mg_700_0/steps_11 (written by ASE) 

4000 	 atoms 
1  atom types
0.0      32.100000000000001  xlo xhi
0.0      55.598830921999998  ylo yhi
0.0      52.130399999999995  zlo zhi


Atoms 

     1   1     0.10319470836579968       0.234179902561164     0.11504143355710003
     2   1      1.5127185759717909      2.8416926023670728      0.1047222122643322
     3   1      1.6969138486266051     0.78134402037183337      2.4050457671065555
     4   1   0.0010517995846616108      3.4253194487144687      2.6476427731209302
     5   1    0.050001184768533526      5.7208262995277215      52.113591446645344
     6   1      1.7163134504431947      8.3054631555030678      51.950385224808372
     7   1      1.5894865547619257       6.377886251940506      2.4631236776992687
     8   1    0.055763069180682724      9.4386943526932043      2.6168164382410892
     9   1     0.13427976051538434       11.06565326016997      52.084818221898523
    10   1      1.8100833152558606       13.72836808142878    0.040640255195904584
    11   1      1.9431229879714134      11.747941953429743      2.6771573884900279
    12   1     0.25650178795466538      14.781827080100568      2.7693023248080886
    13   1      32.022451906260137      16.344118551731007     0.25987459897468823
    14   1      1.7532631098927598      19.177362796388433    0.039103542541066398
    15   1      2.1570369035862429      17.130832832828769      2.2713130877080991
    16   1      31.952404508295462        20.3442996859525      2.8841329952829713
    17   1      32.060214531350205      22.070714130100626     0.36088146814080829
    18   1      1.3586837057319052      24.911990102963554    0.077630433224103484
    19   1      1.7557757650463743      23.037845759825053      2.7148406141169752
    20   1     0.14309178380015222      25.970868911065338      2.8596667092490002
    21   1     0.35282780921594448      27.720002311307685     0.21290647004329319
    22   1      1.9767080791591909      30.491708557825941      51.936174874430854
    23   1      1.6163058671819086       28.46767756419348      2.7447707389734335
    24   1     0.31734326507998045      31.362780248550461      2.5678951509045178
    25   1    0.039939776686554442      33.189777999514661      51.852621698555289
    26   1      1.6913337294253505      35.622366905807695      52.025225848599092
    27   1       1.907471217110404      34.257382321246041      2.4343300960776242
    28   1   0.0084742293278192715       37.51377301615836       2.143356942470465
    29   1     0.24109186772881788      38.940115925394068      51.835134119529613
    30   1      2.0247055718425533      41.475517938784819    0.031219106661848028
    31   1      1.5872248927768875      39.483516557901453       2.672864559106543
    32   1     0.27437725363367055      42.641347839071358      2.6097055198080463
    33   1     0.20346578615369981       44.54421105331582     0.25409531304414767
    34   1      1.9883691980662825       47.45193289871041    0.064942737540339412
    35   1      1.8127217816897674      45.533872274116945      2.4464759859691503
    36   1     0.26815580299084213      48.042743416633542      2.6575148716816162
    37   1     0.26068681243463354      50.060005398969849     0.17976329459344012
    38   1      1.7808176938049809      53.059850259373817     0.30313366461741181
    39   1      1.7361105837689168      50.944313626667878      2.5647513864450637
    40   1       31.98428588985988      53.637358243730041      2.8036943913353096
    41   1      3.2871729155303737     0.63285954583334636      51.937196003448918
    42   1       4.885143910790001      3.0654853485009204       51.97353102873727
    43   1      4.9215810250081224      1.0522968003958981      2.4236510053826943
    44   1      3.3356707592527295      3.7510473038735732      2.4908363635854061
    45   1       3.206217706682247      5.7174894135945724      51.974520696659717
    46   1      5.2892224940154291      8.5839772486615011      52.039497752685236
    47   1      4.6713769469430213      6.3101661784726275      2.4393922962788839
    48   1      3.3356840959865539      8.9647523837496834      2.3875364996457855
    49   1      3.4849015469365332      11.071324590798392      51.839227846364153
    50   1       5.253312080676154      13.819582449227527      52.065030343546532
    51   1      4.9202159123258875      11.604622605974551      2.6928368480102898
    52   1      3.6764578423080172       14.53054338398654      2.4559703559488244
    53   1      3.5625619353702356       16.55091042715863      51.949270364603649
    54   1      5.1219764702459534      19.054080015346401      52.070841559495378
    55   1      5.1415814064418921      17.395707981206396      2.6931995641371946
    56   1      2.7503455295867298      20.242953284105738      2.3685349837308554
    57   1      3.1427051462769682      22.296206369520785    0.014061094287977714
    58   1      4.6682685863951336      24.780390235171488      0.1706882029244253
    59   1      4.6131374995204002      22.932973680670418      2.9411396344327261
    60   1      3.2594290856536476       25.51696770112655      2.6175696638236245
    61   1      3.2674180280912886      27.702062681847639    0.015832314803669728
    62   1      4.9333583413070299      30.316261364362941     0.18670303560660012
    63   1      4.6750791326355277      28.442771360245125      2.8039259976094293
    64   1      3.4292933509615713      31.127119847747281      2.3993191275878996
    65   1      3.1784719202917877      32.988150787611481      52.039769374725523
    66   1       5.010505714031777      36.194446459890102      51.887118378398796
    67   1      5.0422167571674095      34.005558812853579       2.929008530334773
    68   1      3.1019684448283344      36.909012611343087      2.4457927164389015
    69   1      3.0183053376156317      38.535548778413961     0.19049953539677375
    70   1       5.230496207642453      41.393587383271949      52.017294469441453
    71   1      4.9808154410334762       39.57833356641811      2.5043095243539399
    72   1      3.2805695149171221      42.520491263566562      2.6496172995013088
    73   1      3.2989011740451031      44.414765057011763      52.017190287980313
    74   1      4.7218668868503588       47.16109014716681     0.24935909390816799
    75   1      4.8164518830562093      45.161262042433663      2.6283568354832108
    76   1       3.406263764533545      48.284887464430106      2.7865623575775791
    77   1      3.3734017021603244      50.231250656674064   0.0068691342741619135
    78   1      5.1959437221427578      52.920155978007116      52.124115790634114
    79   1      4.7744657050949888      51.200757348568381      2.3988421924792642
    80   1      3.2103875653681437      53.809086723373532      2.5897849190005338
    81   1      6.8477651401051052       55.59838811218021      52.000314098733902
    82   1       8.257165602890808      2.7473436618868514      51.872943339379745
    83   1      8.3039205168392201     0.90404090841292373      2.5510067307516247
    84   1      6.6787133972937607      3.7067574100006939      2.5398809787472705
    85   1      6.5341126398036549      5.6664556086303177      51.967541443994861
    86   1      8.1015362654527969      8.3933249575327533      51.827657118522879
    87   1      8.0174506703360464      6.5048350322850119      2.4257847823880057
    88   1       6.574050359385863       9.309894435651179      2.3572970805383968
    89   1      6.6551090774503843      11.148890980776908      52.045518070693724
    90   1      8.1581439576445387       13.76033092889887     0.19342902683384064
    91   1      8.1978722675663196      12.111141952055613      2.5233318697763969
    92   1      6.5736331381763398      14.773940277020843       2.560734388839037
    93   1      6.8455256781883538      16.507736084629443     0.21335780208286012
    94   1      8.1283818195751643      19.640862777906065    0.062829748639744915
    95   1       8.020359589189928      17.718632773125197      2.4597906131648752
    96   1      6.7354012692335337      20.289735539040937      2.7426027647873767
    97   1      6.3166588102979109      22.071627274536532       0.283998637694103
    98   1      8.0585174556922272      24.957925693595346     0.16792077531652111
    99   1      8.0309100238090299      22.990279568090518      2.4989931572523072
   100   1      6.4549706022021507      25.522664187576964      2.7730696062388454
   101   1      6.3849305222813184      27.434961488813098    0.049868157930412674
   102   1      8.1914995512729352      30.165893786463343      52.035787683452284
   103   1      7.8247054307371355       28.49233224879535      2.5157599732963822
   104   1      6.3415984396535467      31.598401216754876      2.6247560591301777
   105   1       6.501058324454676      33.166433509877152     0.17112394238455991
   106   1      7.9153630927900531      36.305510043370276      51.955402185445621
   107   1      8.1611121177466597      34.029681182141218      2.7758577093946117
   108   1      6.4228906744863297      36.876701107247186      2.6583721444121071
   109   1      6.5278962146006085      38.744925736692849      51.990030668796045
   110   1      8.2993307732887462      41.505163063755198     0.12619740131612167
   111   1      7.9639180316815379      39.513425984536227      2.8103277707986067
   112   1      6.7031823299928357      42.536099967834076      2.5873493649798962
   113   1      6.4979253133052799      44.257261006456169     0.39817176276923927
   114   1       8.057867137312769       47.45072035553023      51.982788793008986
   115   1      8.0606372500599068       45.51816622702222      2.4650987522194394
   116   1      6.3382035447959231      48.695663765965605      2.7566087922288429
   117   1      6.5343890284383868      50.250028180351876      51.601433220875037
   118   1      8.1989265237347979      53.162194349491379      51.926521837498605
   119   1      8.1317275785343508       51.05570499594171      2.3327302982608868
   120   1      6.0437233614350037      53.916842964288364      2.2848378293439797
   121   1      10.087433744296895    0.028270870969551339    0.065402522325825219
   122   1      11.568739533668808      2.6357149463117162    0.052710356720890202
   123   1      11.402368586496248     0.90248735638680744      2.8621298020593753
   124   1      9.6076163436716566      3.5423951767780775      2.4601371070055893
   125   1      9.5900460755289352      5.3182734206843714      51.832025826033323
   126   1      11.491778379136196      7.9233056228200223    0.023426865395179099
   127   1      11.264575034422181      6.1512157812939963      2.6792116911407464
   128   1      9.4942685955314694      9.1365918754302111      2.4842487413220118
   129   1      9.7492324846154546      11.044351525480828      52.050060686176764
   130   1      11.286048259959738      13.906612046346387     0.11895274595498091
   131   1      11.251725730921232      11.832769975584803      2.5482065514283812
   132   1      9.6026464623035359      14.999862714874583        2.54289673686382
   133   1      9.8357960326128318      16.690564246429989      52.111524053861288
   134   1      11.347081635344246      19.496680363907394      52.000806094817221
   135   1      11.029579452329818      17.612328215006926      2.5512425720840515
   136   1      9.7095839618558095      20.421025559373653      2.4645304722219037
   137   1       9.609368778317112      22.811278537043499      51.877024368815007
   138   1      11.691733460904025       25.08370660363817     0.19971050745757513
   139   1       11.03239881973612      22.979262892795447      2.2020147058989759
   140   1      9.6730536866424348      25.613053991430785      2.6610628917506349
   141   1      9.8305226569537734      27.537373419317582      52.099461071672884
   142   1      11.512869688937881      30.643625052270298     0.10749745402158091
   143   1      11.392288073594772      28.526275923367514      2.5380007278351551
   144   1      9.6759965424573338      31.436434700898221      2.8535318594530237
   145   1      9.5605159310303041      33.031534991574368     0.14045696221155141
   146   1      11.180202002417174      36.028398253589422    0.072846991100706221
   147   1      11.178587370986669      34.135327180734265      2.4628019587706524
   148   1      9.3064425154796897      36.824811924092728      2.6679126992093489
   149   1      9.6162528416297892      38.763775470396467      51.968659202968261
   150   1      11.336292368185987      41.618487196632103     0.15060386510688853
   151   1      10.617899995775467      39.958506411922357      2.6771896724235433
   152   1      9.8173397290067594      43.061019010416111      2.5481049898773631
   153   1      9.6553364745925823       44.55773131108117       51.90123900017943
   154   1      11.333605534960904      47.426066423312378      51.922718278804794
   155   1      11.022605557668255      45.790324010217248      2.3466200048731083
   156   1      9.4557758087764512      48.329321453235067      2.3140046540979333
   157   1      9.6242937144610323      50.121695951500875      51.865735989228213
   158   1       11.47860699422859      52.835281217216902     0.22094212832553156
   159   1      11.731949897160144      50.940793144679574      2.5552264862662728
   160   1      9.3853369036163041      53.791830517565927      2.5225060623582594
   161   1      13.232918517410765     0.12037584422899769    0.025221057341188059
   162   1      14.349371663376511      2.9183435891014571     0.13059885875505758
   163   1      14.700779755052142      1.1378526795720407      2.6298235776368579
   164   1      13.066550877736727      3.6283503544443345      2.8144370846712756
   165   1      12.797168118013619      5.5242113474906445      52.021345711332359
   166   1      14.653400794643293      8.1820902508658566    0.041540883212109914
   167   1      14.268232054411957      6.4398738523758619      2.4739589816553562
   168   1      12.606435008386095      8.9603397375082938       2.500712411776286
   169   1      13.015145998661723      10.846497046203753      51.967306008055573
   170   1      14.395792679075621      13.729403292919567      51.836901624193402
   171   1      14.301293994105466      11.779809660606242      2.3795387274600572
   172   1      12.711116837503125      14.573642731268203      2.7664546950960722
   173   1      12.806503377431971      16.428122106416414       52.11136700649292
   174   1      14.277469905505493      19.135326247230832     0.32196183697382053
   175   1      14.278613998631876       17.36953355798731      2.5100419793495607
   176   1      12.766045834991006      20.444853026927493      2.8225476940836272
   177   1      13.025167520368248      22.241823565563838     0.11888997938876722
   178   1      14.859383861856193      24.927982826260848      51.702551476865565
   179   1      14.362294163325375      23.038814235915535      2.5436667401145701
   180   1      12.776548985689814      25.688102758947778      2.6103466268103035
   181   1      13.210424439930371      27.290854810189803      51.882280969631836
   182   1      14.622016322524065      30.607797627909488     0.15064259465083565
   183   1      14.567028624559246      28.726249379503457      2.8494583017138262
   184   1      12.721376461685912      31.452938875131384      2.5465657705152456
   185   1      12.951431237276207      33.299110110358939     0.25962697074921265
   186   1       14.14916824014724      35.923155814830189    0.075784800099306479
   187   1      14.321772871119178      34.246076249132194      2.7198584608490433
   188   1      12.634520269126659      37.216048583637274      2.6995524435524128
   189   1      12.814574957077275      38.752379952782576    0.031368007384181218
   190   1       14.21283449375267      41.785759644378921      51.931686018844026
   191   1      14.442347565795885      39.776788107297804      2.7859194761098829
   192   1      13.009595294069792      42.738122612152075      2.7990439225052834
   193   1      13.233783050539177        44.5030116337295      51.850049365510451
   194   1      14.515640676803457      47.146371441444025      51.979952192932245
   195   1      14.322888495915691      45.419830845287301      2.6415801508245642
   196   1      12.817985494319215       48.10983309472077      2.4443140845252462
   197   1      12.779954317367427      50.304450778100161      51.815997075037131
   198   1      14.699078001880492      52.730479045659656     0.21043066949774109
   199   1      14.505061154516399      50.612989951599843      2.8685961205473101
   200   1      12.848932820795167      54.078452223439477       2.433987410317616
   201   1      16.489917633782557    0.074639737608773751    0.017455437406181027
   202   1      17.611412919328011      2.9447524233114173      51.989003115731251
   203   1      17.631664704705926     0.97678254337214621      2.8743291713617336
   204   1      16.504904255555072       3.959438982687673      2.7450189346888512
   205   1      15.972339253131018       5.397452950681064   0.0017231108348702924
   206   1       17.58810704972046      8.4466414815919766    0.034552164315529897
   207   1      17.962323979506021      6.6558702071423488      2.6243140653209238
   208   1      15.762492161466554      9.0685996165416203      2.6076921526603325
   209   1      15.761885553135732      10.969014049157465      51.859058180050788
   210   1      17.510754013872212      13.427390912305826      51.479468198565925
   211   1      17.593581018088656      11.784223334125716      2.7314057477298492
   212   1       15.84922976428599      14.458579850545838      2.5396911186438991
   213   1      16.119100383109053      16.564751222637202      51.952096409192023
   214   1      17.528408078696945      19.396304965519793      52.003932818876045
   215   1      17.687793066578273      17.563416630170273      2.4391531736937013
   216   1      15.884873687071961      20.235309132414844      2.5847826198298991
   217   1       16.45180298887469      22.213135595621313     0.21802737487263496
   218   1      17.996244623334643      25.008827003477862      52.118262599406329
   219   1      17.612347341015312      22.965605234939311      2.8865897852651181
   220   1      16.169808798914971      25.585967111731371      2.5273843957530255
   221   1      16.141552967720138      27.401835995146062      52.097436909844618
   222   1      17.781481484746379      30.424624349889079      52.022502103507868
   223   1      17.724577732010079      28.517324563290984      2.4025848129356699
   224   1      15.973381087650516      31.525822469155116      2.6666588452293327
   225   1      16.322563182998035      33.095534505210679      52.074825642157293
   226   1      17.232297497049316       35.98836637010222     0.17804720640660185
   227   1        17.7536743271551       33.89663549408273      2.8227546992295953
   228   1      15.943545246954125      36.820832661035155      2.8667583533757508
   229   1      15.776324844195093      39.177497005884277      51.845427053015669
   230   1      17.389874459621627      41.801234900367035      51.831781693313921
   231   1      17.671813849880955      39.396480522915624      2.6609795315532003
   232   1      15.972299455347121        42.5907148963136      2.3568063228945793
   233   1      16.360436443845156      44.481827175398884      51.966854446075132
   234   1      17.658115335022426      47.232791461279355    0.088185535592678041
   235   1      17.470286083760669      45.303297246139806      2.5149206128821064
   236   1       16.05854945409402      48.140486705253174      2.6662339328649685
   237   1      16.110795945278632      49.807147076914958      52.106740169120151
   238   1      17.898027962470898      52.839624308406663      52.080209633422044
   239   1      17.589848677009439      50.943277443351896       2.626508246277143
   240   1      16.279350528919917      53.836182348570382      2.7422629837966572
   241   1      19.645252031534188     0.17120233704263799      52.067559101131721
   242   1      20.917392379458878      3.0210929319926842      52.046006274742453
   243   1      21.020748790017869      1.1511994677032575      2.6776213226004861
   244   1      19.401132559295903      3.2526913304823388      2.5013883860198716
   245   1      19.061708787623161      5.4092507499127196     0.11823866560986097
   246   1      20.978181353188301      8.1552632194406502      51.920972202599494
   247   1      21.255063906529593      6.3802957684667385      2.6247238548493694
   248   1      19.441746576615653      9.2484888748780634      2.4897154468416907
   249   1      19.160709350724005       10.99771623720661      52.104948082482771
   250   1      20.552623980579025      14.086042695433411      52.055336370219337
   251   1      20.770448169833415      11.962423369042334      2.6318857643404647
   252   1      18.832645033804244      14.538899207902045      2.6336979395967122
   253   1      19.171872387504585       16.79607478325411     0.27627370567495452
   254   1       21.02678133196158      19.633972541922805      0.1390166979850668
   255   1      20.919838977156829      17.969256695313334      2.5765996627632548
   256   1      18.991877511264505      20.539477016283296      2.6381721480206441
   257   1      19.239509072852538      22.269623096512571     0.18276795790647268
   258   1      21.221200932437956      24.938656477298945      51.899921846007508
   259   1      20.788417872189349      23.363373839056521      2.8990666063825161
   260   1        19.4503229466217      25.813478601771962      2.4952929156841024
   261   1      19.352785125109101       27.71548962387854      52.008898597561377
   262   1      20.662724497770373      30.376377102313473     0.07519620819457451
   263   1      20.813679735384902      28.478647628408254      2.3747794685429664
   264   1      19.239572656196618      31.206494386431981      2.7876203935684263
   265   1      19.367828704422937      33.330716096733134      52.101079626121809
   266   1      20.878269876325245      36.170888420068913    0.031012901634383361
   267   1      20.604285101288617      34.097546150129382      2.6538412081872531
   268   1      18.842699012814677      36.820093037887418        2.43602755685782
   269   1      19.091184953356741      38.740488984542438      51.735368893053881
   270   1      21.199785132072748      41.193779545819197      51.918910791602968
   271   1      20.715417449331472      39.360496528637398      2.3770094560201134
   272   1      19.190465298354127      42.687677236153853       2.205170294037512
   273   1      19.441790114382208      44.555440369741802    0.042209372418984835
   274   1      21.166729616391326      47.128463083043883      51.999322022597347
   275   1      20.755524224093218      45.587451893480093      2.4921948829108018
   276   1      19.176158611174898      47.981536088070854      2.5176338233256619
   277   1      19.134858290234508      49.978777195624751      51.945617490188916
   278   1      20.938924846106019      52.550729381945345      51.890340360658861
   279   1       20.72071697460526      51.020901656798834      2.3159230766946726
   280   1       19.42568240483121      53.947125358961472      2.3801638731750301
   281   1       22.53285641687679      55.314128488875212   0.0004172377968986438
   282   1      24.005626268885266      2.4307374743294501     0.12175218507704599
   283   1      23.971615327076666     0.61165869492082214      2.3710232090133592
   284   1       22.79444673773013      3.4829557813332879      2.4787730031148145
   285   1       22.89889222914065      5.7181812705700406      51.843304897114358
   286   1      24.190701942472938      8.9563336372748825    0.052206216018547788
   287   1      24.183041043512368      6.7582537769552724      2.2686767160392405
   288   1       22.53511996328999      9.0428821383160827      2.5706720209846461
   289   1      22.014135582546373      11.072707154144982      52.125633964670776
   290   1      24.506939831536478      13.965766007270034     0.01755361980392333
   291   1      23.935199785768226      12.037648391206575      2.5423416321640113
   292   1      22.243161956055122      14.577148352375874      2.5938182973151029
   293   1      22.621282727435958       16.80560183840279     0.14207512420498589
   294   1       24.39947650697064      19.282405619118766        51.9471320104631
   295   1      24.339322325438943       17.23292998573951      2.5571176714793409
   296   1      22.617076469245873      20.258087268401493      2.6289995948463982
   297   1      22.702365890603552      22.179739757526885    0.071620590663070791
   298   1      23.988975551619863      25.215819712135183     0.16644376236773606
   299   1      24.379442275520191      23.113742065269779       2.419199879505785
   300   1      22.645897428948629      26.053694626885051      2.6970059993573665
   301   1      22.422857065177734      27.769369118831204     0.02949495979068386
   302   1      24.265787595024193      30.425409559974185     0.17722457345681708
   303   1      24.387247230462176      28.754271058888982      2.8545048969906746
   304   1      22.364669675890511      31.139704364196142      2.9100249882476152
   305   1      22.761603316212945      32.996523611233378     0.50908778567974711
   306   1      23.979782424885567      35.948528036544438     0.20362771510957506
   307   1      24.188309075118056      34.087108638254612       2.991639435824323
   308   1      22.460885197110308      36.895413500478419      2.7729116634769122
   309   1      22.679568152918275      38.610490225425124     0.21313174015833031
   310   1      24.311420315817717      41.329126364454716     0.13965015394822411
   311   1      23.799758856468266      39.821445861496507       2.796477848115194
   312   1      22.379815032538954      42.751692078464693      2.2591535347586529
   313   1      22.603108680885441      44.330740544639511      51.820609689142785
   314   1       24.10743388057476      47.017679306368251      51.806541016839581
   315   1      23.973553467684539      45.491974461468452      2.2991664158781995
   316   1      22.400134025927876      48.438270942261937      2.4273033818998826
   317   1      22.307977384977743      50.120130128178943      51.986952256658263
   318   1       23.93633615899196      52.530656638218289      51.954979098372696
   319   1      24.259883639729686      51.062281539198715      2.6420080598432967
   320   1      22.537764449432071      53.651336135582326      2.6198758480355671
   321   1      25.570182843034928      55.412638135900927      52.082032305769481
   322   1       27.03619950491511      2.7445043693055995      52.000173864927838
   323   1      26.933169500998627     0.95156251895300203      2.5440721273614471
   324   1      25.599859224927037      3.4816779861564346      2.5004858469729552
   325   1      25.779274270872364      5.4100162245051964      51.762859164501748
   326   1      27.039071318484609      8.5715510101768349      51.978530722482247
   327   1      27.261283191626593      6.3777158442740367      2.2710806132787886
   328   1      25.870534461551991      9.5246413783018742      2.6332973235051949
   329   1      25.966424598344361      11.443646771682626     0.29945570931812293
   330   1      27.557263997977778      14.444389118904402     0.36540848901457268
   331   1      27.791608608176521      12.112985174416558      2.6443776218788937
   332   1      25.666378725754708      14.493662762849144      2.6999916983577181
   333   1      25.801264062751521      16.674799160764579    0.026399838951851055
   334   1      27.327255127018653      19.530510528465783    0.041874378016334854
   335   1      27.489918022468213      17.429208816987089       2.515915091356598
   336   1      25.694061199823548      20.154976617522024       2.596640774458097
   337   1      25.694510958918222       22.15487087166791      52.072131359637467
   338   1      27.127994232863422      24.977363209255955     0.24828582816661304
   339   1      27.451876624522544      23.094249959776544      2.5648473288654055
   340   1      26.220590828961303      25.742989572398766      2.7267721527380071
   341   1      25.568971025602483      27.923021729717433      52.053736550494847
   342   1       27.52195915240533      30.588665034858035     0.24057881428946692
   343   1      27.386620444470676      28.714294884954935      2.6629301728559533
   344   1      25.939681462962245      31.495591808912526       2.958087554193888
   345   1      25.840106015213454      33.215658551798661     0.21161528502283061
   346   1      27.199463530335166      35.938275163425722     0.27847861043920064
   347   1      27.539198451159194      34.062409157858866      2.6328451679550726
   348   1      25.391827858191228      37.148406274520255      2.7751649138812575
   349   1      26.216838517054203      38.842009809669797     0.33466753985178227
   350   1      27.404411754178458      41.764863145757452    0.026830526634939424
   351   1      27.347127141061023      40.264855362139159      2.6903443165747065
   352   1      25.405503682804717      42.722073167041849      2.4769348324584577
   353   1      25.755444798922859      44.237667834374513      51.911937742514567
   354   1      27.385352085584582      47.290141665163773      52.054932527073262
   355   1      27.078768224110828      45.099489790326373       2.623351464942318
   356   1      25.625810907703503      48.339132233126158      2.4940334249538045
   357   1      25.614561154179015      50.048114112961422      51.920023699374177
   358   1       27.01420050694745      52.752453031105766     0.22926859420739013
   359   1      27.396663730761585      50.916566900080888      2.3924400897329647