dump/Mg_700_0/steps_61 (written by ASE) 

4000 	 atoms 
1  atom types
0.0      32.100000000000001  xlo xhi
0.0      55.598830921999998  ylo yhi
0.0      52.130399999999995  zlo zhi


Atoms 

     1   1     0.40818769134041538       55.26410593548556    0.048516102795153893
     2   1       1.480890192125653      2.4770973958839271      51.746149477618722
     3   1      1.6630641546017406      1.1895776709574899      2.1740839899668956
     4   1     0.28299985248622805      3.8734950546457529      2.5592594722616528
     5   1      0.1119392004424074      5.3693020101402968    0.039560572504665568
     6   1      1.6895135238461008      8.4445519691913873      51.961525610700185
     7   1      1.7304932497919148      6.6314940312372554      2.0569077049582853
     8   1      31.967694940580373      9.0426679391132918      2.6271721190884034
     9   1     0.15143582159062219      11.315637144051262    0.051068520705783514
    10   1       1.826615485778075      13.799862298805403     0.15423440664342702
    11   1      1.4927194624148568      11.967483682110784      2.5974066032197771
    12   1      32.081077670971482      15.005474245313513      2.8393452605511316
    13   1     0.52338164727016501       16.42972956302496      52.114142724438793
    14   1         1.8376037114604      19.258558315987901      52.076947422555953
    15   1      1.7808490729054973      17.438189181388925      2.3883173324695952
    16   1     0.24546308715457751      20.542870301311755      2.6583868912860877
    17   1     0.12075300536051974      22.494018790812955     0.12389631151675304
    18   1      1.5624794330452469      25.142763200825279    0.040945985741092421
    19   1      1.7522154650573745       23.26866158370386      2.4912443874315469
    20   1      31.873693550979389      26.138315114806279      2.5656496604987185
    21   1      31.875434135651609      27.849678250465828      51.999421114372325
    22   1      1.5307712231644652      30.307227666411148      52.070344569312098
    23   1      1.6411144824737829      28.650644186698958       2.469316124109203
    24   1      31.977913059653932      31.729234369726797      2.7338647360495303
    25   1     0.16216124381596922      33.738303638412013     0.11966572791067634
    26   1        2.02548742078522      36.270953047968987      52.059254588912452
    27   1      1.5374956214081106      34.438592256048288      2.8626617891151915
    28   1    0.084162774305584873      37.083846192389572      2.5344586063391215
    29   1      32.019449154206654      38.881518341662542      51.882410493296462
    30   1      1.7907236850926831      41.476753559021979      51.676596040064496
    31   1      1.5523965237705672      40.010555316528389      2.4458158479391483
    32   1      31.984682314140564      42.748172061767214      2.1176865785026444
    33   1       31.96355278847599       44.59789795805974      51.694705421116275
    34   1      2.1203742740533746      47.388469586936864      52.127438778520919
    35   1      1.6365038436828307      45.324341956358879      2.3596505391682774
    36   1     0.34069495477426948      47.907489515076094       2.694920257512563
    37   1      31.995574508044694      49.957774670370192     0.46136684233140907
    38   1      1.9925740400869409      52.399662639295649      51.980083133386735
    39   1      1.8281745528968967      50.859368499430431      2.6968207489289164
    40   1       32.09953996923111      53.758239072185845       2.661341487808738
    41   1      3.4526254667565621      55.231492289637664     0.12576778003691985
    42   1        4.51260781527695      2.6765544674858264     0.34850563382447591
    43   1      5.1049426548888883     0.29494534740099965       2.710567834551298
    44   1      3.2044265198821913      3.9425010376315992      2.6162396542212121
    45   1      3.1374707221838229      5.4610950396856781      51.671067190748346
    46   1      4.6066641348728039      8.0405753849147157      51.799877530492168
    47   1      4.5425134684834836      6.2278408744361755      2.3796396248592599
    48   1      2.9784640438553791      9.3986273328799594      2.3164019063108157
    49   1      3.1896666756899159      11.086769100585251      51.870430454106689
    50   1      4.7884365315955844       13.75641221618362      51.762678163005631
    51   1      5.2015282011756794      12.037461889662877      2.2611881498750463
    52   1      3.5171349224996051      14.633303278629114       2.532211491160441
    53   1      3.3871525337177806      16.488924427991844      51.909025356513034
    54   1      4.7493245010017215      19.427402195443982    0.075925952362067645
    55   1      4.9841373527584967      17.243783770761286      2.5315115446301912
    56   1      3.4231566215556506      20.253716310678314      2.6764270381085815
    57   1      3.4119085175325723      22.081898373240897     0.25550180080312962
    58   1      4.4730687229788426      24.894780356990761     0.40541041181289522
    59   1      4.9329229356179267      23.098205331752048      2.8381015236851286
    60   1      3.0265276506359342      26.025102159604437      2.6164380738312016
    61   1      3.4737729147261205      27.570641039065109    0.078127342332309058
    62   1      4.7530277706380089      30.734373920834521     0.13682617293970104
    63   1      5.3470298592315926      28.740249227257369      2.4689330502392348
    64   1      3.0901973601041082      31.071435989484272       2.627991179774523
    65   1      3.2103055186029716      33.169813492830045      52.078836617287116
    66   1      4.9041143393315059      35.822618615732999    0.041898526801299713
    67   1       4.804121780590755      34.279781485747158      2.4689604851485738
    68   1      3.4509076082991093      36.986776651785789      2.4405529253825109
    69   1      3.1065688904516415      38.832731607414722    0.050083020127951176
    70   1      4.9337754708559078      41.495807458721096      52.005949928506553
    71   1      4.9713471659389468      39.946227393438534      2.3588424937929968
    72   1      3.6359691236739216       42.69796608073522      2.4266933246765285
    73   1      3.1797647462208567      44.517907498285105       51.77810330519808
    74   1      4.8777069196649947      47.018401578161438     0.12170478168574089
    75   1      4.7303650123901759      45.355894742028511      2.8590902358331771
    76   1      3.3466504730290896      48.087696520183783      2.6075496027771288
    77   1      3.5310352584120936      49.957795073547402    0.030129297599335504
    78   1      5.2959964285566539      52.857832842472689     0.13014137236488174
    79   1      4.7834767303127972      51.190060437724789      2.8659020139331259
    80   1      3.1982360259571037      53.692194073415237      3.0457963019109791
    81   1       6.674358788431447      55.514816009578354      52.088232687458351
    82   1      7.7947773035678178      2.7466507381153931    0.097900036476093133
    83   1      8.2446134577238261     0.69829727726427815      2.7472028453655497
    84   1      6.3479973498684457      3.2741729559033712       2.773508529608316
    85   1      6.2740835043474821      5.4146290160713626      51.754537544031841
    86   1       8.100998454387323      8.6561911548897132      52.095834123631839
    87   1      8.0581708481486984      6.5047074854784723         2.3836048802301
    88   1      6.0136213930216877      9.0657463351048957      2.3057372734465722
    89   1      6.4120065822084218      10.926694722235323      51.791961145232634
    90   1      8.4059004351308744       13.60518257311562      51.973435277987171
    91   1      7.9318431479368776       11.72662812580033      2.6578801503793676
    92   1      6.5862175582747122       14.53002709257135      2.4511342663526969
    93   1      6.5654612477195666      16.527799786461575      51.930376594519373
    94   1      8.0932678411716203      19.088565702480317    0.073137421244900122
    95   1      8.3191494952893219      17.308846648276131      2.7017525392729222
    96   1      6.3506396945150021      19.888981026786087      2.7143776466608052
    97   1      6.3603924590986489      22.017191890330182     0.23357321800470424
    98   1      7.7200312271615781      24.883696137124797    0.022532937961024603
    99   1       7.984411119652159      22.777108110220588      2.5775963688049672
   100   1      6.5477859339486564      25.954895087346486      2.7299858696641883
   101   1      6.4661021653787234      27.805970432151344      51.808164195270102
   102   1      7.9519320937075744      30.544576291831561      0.0353363166360613
   103   1      8.1008351298876438       28.79488494018808      2.6984663103139335
   104   1      6.4197503130255837      31.636000050242629      2.5847528123131167
   105   1      6.3117922915445988      33.143286807853805     0.22106667832789165
   106   1      8.0949421294525994      36.262094758832866    0.056273075036624862
   107   1      8.2154681987562963      34.345442924280931       2.508317496876197
   108   1      6.3052675777896878      37.179833896560694      2.4000546622638357
   109   1      6.5411205140688411      38.824576245056356   0.0017947181931571342
   110   1      8.0343292145771557      41.505152435831228    0.092201983980285243
   111   1      8.2622440286953687      39.807587568070126      2.3972865804547752
   112   1      6.4671222108267159      42.697473835180872      2.7147274244627031
   113   1      6.6870867441544179      44.171166472628386      52.059619266155266
   114   1      7.7049545736654581      47.045071850454519      52.029259528150817
   115   1      7.9716020890254109      45.564966156585704      2.6870651854715435
   116   1      6.3323080316938904      48.470982828324708      2.5453753869018136
   117   1      6.3919037376241326      49.618094041350481      52.038347418456283
   118   1      8.2718239171341263      52.412685439152433     0.24792509587796124
   119   1      8.0747952536004686      50.595975155569064      2.8965526817009688
   120   1      6.8881509801774925      53.435524757642838      2.6216410099913237
   121   1      9.7439009106369667      55.255512105055459      51.919071224172654
   122   1      11.192444015487753      2.6531036747410757      52.062602147233846
   123   1      11.252950958027048     0.87464214094467851      2.6657180241041205
   124   1      9.7015460274901262       3.786066204401549      2.5544066709300735
   125   1      9.6232361111694118      5.2926318490851383      52.105210552255748
   126   1      11.132033123927695      8.1151835813292816     0.23368071908702479
   127   1      11.163114605066685       6.674555360129462      2.5737944695691155
   128   1      9.4424340246930356       9.371296493684433      2.7215884487227733
   129   1      9.8069330352260167      11.165659851835356     0.29004644037413158
   130   1      11.588664054603166      14.057391626429007    0.076032913121706985
   131   1       11.58691091829402      12.046738426492666      2.5678800508502158
   132   1      9.9074896147225324       14.45069766442111      2.7275893337566726
   133   1       9.956522636903923      16.246133077361034     0.20377430621765777
   134   1      10.992828880810157      19.474472256788612      51.983382841132688
   135   1      11.522514780009153      17.136638772441525      2.8250624613769806
   136   1      9.6934510103119766      20.406698071148853      2.6357452624364317
   137   1      9.3408082094382419      22.317260291147559      0.4363387547433743
   138   1      11.433914932178364      25.047427209530117     0.16798101419550704
   139   1      11.282243473942746      23.037872683280543      2.6903494717283958
   140   1      9.8108025695463574      25.625726191833202      2.5923981889677949
   141   1      9.6721843635702953      27.839724248287304    0.046956037817178622
   142   1      11.383646743590388      30.678879369279173     0.10794748675608005
   143   1      11.526266683123632      28.516573520405753      2.8434544945458877
   144   1      9.3830380318514575      31.472746112211478      2.6322276250667938
   145   1      9.6914278350685343      33.275779204549117      0.1356660722701194
   146   1      11.211908224571363      36.686417620501935    0.050651744224857242
   147   1      11.313932910375753       34.14368016295127       2.562653457819827
   148   1      9.7066901952021976      36.999391726074421      2.4917579328836843
   149   1      9.6229692206950741      39.197599457827074       51.94515199148664
   150   1      11.238989980732121      41.944445185320291      51.963501385838178
   151   1      11.128498782714489      39.791935305701763      2.3947348146710112
   152   1      9.8468917293088367      42.652691438633866      2.6666961442249764
   153   1      9.7010921208609577      44.698316487656584     0.29386538068328633
   154   1      10.785336047382161      47.235964487989961      52.083024990007587
   155   1      11.280787137499459      45.188195027612579      2.5562447254084537
   156   1       9.625595539137267      48.165666607480951      2.7604235314209933
   157   1      9.6824032518825085      49.796567478528267      0.2779567329706954
   158   1      11.430978906631863      52.733696755001851      0.2937502458140222
   159   1      11.157036645278286       50.96037769963408      2.9008431070485607
   160   1      10.039382351736418      53.727616607547681      2.7771719799964854
   161   1      12.681050794715295      55.574375387213408    0.015641651446655688
   162   1      14.114659816405693      2.6824793783123271    0.097577356179665412
   163   1      14.635822446710204     0.77204478140656463       2.530846847929074
   164   1      12.820744852421022      3.6639509803426629      2.6568376887319896
   165   1      12.982665104222011      5.5099773427115206      52.034190552954712
   166   1      14.703198275360219      8.0178688383027357     0.46689044533478358
   167   1      14.544925238203582      6.1090931389587473      2.7275155612494784
   168   1      12.993290376156093      8.9833503102298593      3.0597774972729423
   169   1      13.497033232397859      10.825164081578224     0.59191365662143047
   170   1      14.639283889174688      13.958438307384064      52.116418291209989
   171   1      14.533999704971988      12.135819650487019      3.0283984694692476
   172   1      12.981747197503491      14.826123994616879       2.779640321392459
   173   1      13.212004077840744      16.777470484738707      51.940082950205785
   174   1      14.490016651023566      19.394704345308131     0.10100369515411022
   175   1       14.52170845716765      17.487137633618929      2.7724650753780358
   176   1      12.703272058509233      19.943961131345468      2.7552038212848866
   177   1      12.601850882962244       22.12603378717457      52.069304036205388
   178   1      14.752439505395277      24.573892450777496     0.29588014534476453
   179   1      14.407724384713269      22.546656568323989      2.5789179096775796
   180   1      12.935912656436962      25.772633242580085      2.8562913216070096
   181   1      13.118186141388785      27.532130446982681     0.31747925741835986
   182   1      14.468864812691908      30.425101354774188      52.116642673680424
   183   1      14.610660127740527      28.887265172320838      2.5816953319334708
   184   1      12.670957460966374      31.402245565329807      2.7446193616625023
   185   1      13.123233715876061      32.995471573107579     0.15482677738731523
   186   1      14.233376483713194      36.111111605935449      0.1044135675622215
   187   1      14.311508531001415      34.101449440463519      2.7137896221215585
   188   1      12.932299999989354      37.315217222206023      2.6547885778313467
   189   1      12.989063011567014      39.292576896015532      52.018417254941873
   190   1      14.400396906875345      41.748832725075239     0.32600920900577346
   191   1      14.481148014506118      40.075414670215061      2.9496364559189066
   192   1      12.746920542451074       42.47119808143465      2.6961090619756178
   193   1      12.844737948627619      44.599697955308862       52.03270614996871
   194   1      14.646956532972615      47.012432871038982   0.0062691757214294978
   195   1      14.609313433920869      45.010439489757438       2.446634015560833
   196   1      12.682812145472084      47.882193392483465      2.5497046312781881
   197   1      13.074098014427483      49.804977540577717    0.075278406997533687
   198   1      14.526056111545103      52.708329860112542     0.44091548485341475
   199   1      14.346943023453397      50.977852535121613      2.8557395832650747
   200   1      12.841532935224555      53.612760413008957      2.8136203214618507
   201   1      16.214910115623624      55.548760514059843    0.099940021938856025
   202   1      17.782544996452021      2.6714622916054513     0.19792037302257515
   203   1      17.811025471092336      1.1073921308094008      2.6887317938681146
   204   1      16.035451902481082      3.2872775203338711      2.8520899725694329
   205   1      16.209792709532834      5.1468449405065337     0.16566731411699034
   206   1      17.378072166031647      8.1397992014085396    0.051389564008801861
   207   1      17.653963606856895      6.4025288063091876      2.8815624129648096
   208   1      16.206077661160393      9.2694740103346547      2.9402429956123024
   209   1      16.251810971947762      11.074099486183808     0.31244492401713542
   210   1      18.055701149308028      13.970602440303336     0.38767463924683671
   211   1      17.420545654117809      12.211023647754697      2.7726423855166549
   212   1      16.070133211436115      14.787128717026397       2.635071886038463
   213   1      16.359764038830093       16.73870217482002     0.20550819095167111
   214   1      17.877499519406449       19.55271276988778      52.101211876412833
   215   1      17.853226890634026      17.558463925661705      2.8578666078192514
   216   1      16.171345016516675      20.114800135583408      2.7639141768783317
   217   1      16.459598446393461      22.033331721926139    0.036653434229375753
   218   1      17.858943265701384      25.227189382943862   0.0085447927526510307
   219   1      17.804850303258934      23.089703396406275      2.5634501379576231
   220   1       16.14165327580189      25.897668682861013      2.8673890039458532
   221   1      16.081917693192324       27.43873563863183     0.32663808137079009
   222   1      17.915970524202571      30.162101843683562      52.121142643628367
   223   1      17.996417320062999      28.554704943438004      2.5614021265724545
   224   1      16.290161593995695      31.258849398068062      2.6396648013167754
   225   1       16.14154971298025       33.08590800396393     0.28391113275291274
   226   1      17.335999791694242      36.375799071426769      52.081111229917923
   227   1      17.436804083960897      34.270889263984401      2.7286228989143551
   228   1       16.19083762658876      36.983273084324026      2.5433832662826403
   229   1      15.875180681692072      38.878505116166359      0.1417169239417897
   230   1      17.300846630429167      41.590103085081616     0.13401838457874429
   231   1       17.54700703869031      39.560634800385458      2.6180010089615338
   232   1      15.809742599327013      42.617975573794389       2.753440704779702
   233   1      16.029656948871672          44.32670044804     0.11968636681473835
   234   1      17.810558541595114      47.160686450044025     0.16515079226740095
   235   1      17.516345907521622      45.274409009783845      2.7619508681764349
   236   1      16.289381212470254      48.325333247905498      2.5867098669385102
   237   1      15.960174040366727       50.16005131194899    0.053637481374349066
   238   1      17.843536571841753      52.954793208208663     0.11293518396849724
   239   1      17.492943647720711      51.010962924043149      2.5981441468862103
   240   1      16.487261452594801      54.024939450382362      2.7969123988239435
   241   1      19.156986985793012    0.023476122965442582     0.20711561789443403
   242   1      20.983328124129542      2.6117363318498561     0.16634504307877943
   243   1      21.192263041291753     0.56008073572463246       2.329562060496901
   244   1      19.006014471758725      3.7570780399190968      2.8892201569934519
   245   1       19.27712989257218      5.6468975521801985     0.11709747603855401
   246   1      20.802810063989014      8.1999659433578262      51.991074353047203
   247   1      20.993099220589944       6.412434429287253      2.4106237444816907
   248   1      19.379681533863117      8.9798786307118021      2.3924035636055909
   249   1      19.439708577697147      11.106580287017939     0.21636236796356992
   250   1      20.966322339264586      13.768947368010631      51.955587569372355
   251   1      20.625184054429251      12.206353889847026      2.7115962245709975
   252   1      19.622100086302048      14.994525225785821      2.8455419930231698
   253   1      19.499405654566974       16.67454491420925     0.17063622745617368
   254   1      21.015957274573758      19.620249458644668      51.867686166145063
   255   1      20.947073284107773      17.835676389132903      2.5354514485787991
   256   1      19.117092238438012      20.205135881966026      2.4358849428672271
   257   1      19.362294113656191      22.430771748581478  8.3239426395357438e-05
   258   1      21.222266926280138      25.058897643020462     0.24140469257124747
   259   1      21.024301499364114      23.275915237930821      2.5689820533782983
   260   1      19.224790700834117      25.876959256170917      2.9676358875693833
   261   1      19.731159136689456      27.668046652577946     0.18077513871413639
   262   1      20.876981613868715      30.517362640761732    0.081249556877700552
   263   1      20.925575493830561      28.794979456461522      2.6884503477367674
   264   1      19.101666497882086      31.511895354395563      2.5081368048462309
   265   1      19.176631938193591      33.530230246226999     0.18870704004146382
   266   1      21.143085881642666      36.462936954808619     0.19927248134260714
   267   1      21.094783997476259      34.164757049484166      2.6786143923956049
   268   1      19.618525979368087      37.119812191407775      2.5332962073572012
   269   1      19.491418601589977      39.298995230616505     0.18660712779132838
   270   1       20.83311748869906       41.94596194638482    0.061906798030857121
   271   1      20.645475134429965      40.126368078761082      2.7784294841623218
   272   1      19.201660261418397      42.697611383729551      2.8745644534124772
   273   1      19.266600867766137       44.67562457598634     0.33799369765534754
   274   1      20.900477788696719      47.664094001385131      0.1801628330206462
   275   1      21.000575434018611      45.489704481671723       2.956653910025552
   276   1      19.524720358099078      48.137797822909533      2.9140885700489063
   277   1      19.343635326176141      50.211266343583127      0.3046311174570337
   278   1      20.965446584133581      53.120310995451689      52.068559201605332
   279   1      20.817419642798637      50.946994777935473      2.6150061480573008
   280   1      19.275504039361682      53.491296074280761      3.0627116379682917
   281   1      23.016993971969651      55.477481556364353     0.13223687690474023
   282   1      24.377208528299132      2.9725659420536603      52.096487753997572
   283   1      24.270140840756671     0.92516246010650782      2.6804063293997009
   284   1      22.640149540565073      3.4022745997772357      2.5898531847857389
   285   1      22.482125352377317      5.2541279098103315      52.128101949926119
   286   1      24.149750194048959       8.351742616861797      52.019368879296664
   287   1      24.088544172293474       6.642581057107833      2.3335475119407127
   288   1      22.199171668439433      9.2569557967879508      2.7384221332279362
   289   1      22.220989254526042      10.796400925460512      51.931247348765993
   290   1      24.106649217401291      14.051287819766904    0.026988768272303783
   291   1      23.913428878813811      11.827472096679248      2.4754365340734004
   292   1       22.45348057665004      14.963736030000311      2.3755343427467803
   293   1      22.495495074609757      16.697939505164243    0.007926766614275214
   294   1      24.449851257516222      19.400799277596867       51.94572292241677
   295   1      24.373498432091235      17.757650179581187      2.3757457883353061
   296   1      22.588195262279264       20.44906171996502      2.5609478148521339
   297   1      22.590831298244098      22.218780738440667      52.084444499075012
   298   1      24.276955600081166       25.04336545704837    0.056310372289865435
   299   1      23.971591336769865      23.198318340477076       2.660018765195836
   300   1       22.51698793092536      26.087317522900474      2.9223629984471957
   301   1      22.675527581049039      27.833866162945906      52.041988311735608
   302   1      24.351974524222303      30.596132915183059    0.025799918595670979
   303   1      24.240632427724567      28.861591894780638      2.7691732486890981
   304   1      22.296981304735478      31.043767222493109       2.680041432080746
   305   1      22.567991590413222      33.511042439758967    0.092567151395389471
   306   1      24.276857449687071      36.342973757919658     0.22493975488041448
   307   1      24.330092872997493      34.412087194926535      2.5119852358571082
   308   1      22.567636333073146      36.983973526360906      2.9467451708130286
   309   1      22.490494295555774      38.922927373868468     0.14041284343927812
   310   1      24.187473399197632      42.026019483739248     0.35572126920528857
   311   1      24.270451918490252      39.474278840402043      2.5710082926634121
   312   1      22.499354330732679      42.673664697500527      2.7789043007342884
   313   1      22.309137466220282      44.698454739653236     0.44856535170988304
   314   1      24.137865670135294      47.565642527573395     0.14433664202047991
   315   1      23.888047497214401      45.292553657903795      2.8860234490009424
   316   1      22.493902572782325      48.325260755501851       2.794043922079624
   317   1      22.705067840816376      50.335745612384216     0.14417244646810046
   318   1      24.250234097217213      52.750346176914071    0.062334422771228165
   319   1      24.432414459163493      50.593472201619285      2.5659747194061797
   320   1      22.939906170145992      53.866310976094503      2.7629613611822452
   321   1      25.965406136534373     0.50010045351923815     0.34073495675482984
   322   1      27.537806370941237      3.0551148145513207     0.24828514525137141
   323   1      27.515588238710777      1.1710499676307524      2.8442570903606641
   324   1       25.60085845189133      4.0237335701115047      2.7188473058783078
   325   1      25.667437364588785      5.7553056801548017      51.996982086015215
   326   1      27.377502692249866      8.1592523159855066     0.11877254745766487
   327   1      27.242330097120764      6.5557500363889707      2.4962269877896475
   328   1      25.379839876768763      9.2531366779144282       2.286287716979964
   329   1      25.535648876842469      11.185652592579455     0.10551996531335761
   330   1      27.286799432592669      14.041076215126697    0.052084382380753774
   331   1      27.279095596872924      11.978959359142497      2.7423960823296802
   332   1      25.412515870595008      14.838273534918931      2.3830334629769601
   333   1      25.796135799435945       16.56678123442526      51.818696076831408
   334   1      27.554079563299947      19.606572455362233     0.18497709416717259
   335   1      27.483414275878758      17.554015172963066      2.8628975272072874
   336   1      25.805870254177588      20.540998806770201      2.5020565244526027
   337   1       25.78428945996977      22.317643923827731      51.914349098758507
   338   1      27.489237090916959      24.991440352340703      0.3598934154643279
   339   1      27.375753238975353      23.259823412415244      2.7322874505129819
   340   1      25.862007788115577      25.969552731243322      2.9201846547298462
   341   1      25.815843006259719      27.837687225874308    0.014578422793044131
   342   1      27.482195166053753      30.680253296833147      52.098633990493056
   343   1      27.353198412161174      28.742615050214138      2.6111337321065951
   344   1      25.625585212318995      31.488960918309864      2.6249938242531563
   345   1      26.063537416680333      33.732071466386294      52.051496245115445
   346   1      27.124378866333782      36.226871653790113     0.22702252239020643
   347   1      27.587825757509165      34.381239886872663       2.512480818267774
   348   1      26.028375217258752      36.912307007222928      2.9486484211405783
   349   1      25.491937867082733      38.753400861638006      51.821931319375778
   350   1      27.689617528056331      41.840409760225377     0.21140043606518286
   351   1      27.430258218716212      39.781512337312193      2.1191623945451235
   352   1      25.991209036533956      42.605270896401507      2.6878514568028629
   353   1      25.723881569808249      44.737100162190153     0.14077241849388658
   354   1       27.28448173457037      47.267850224565485    0.025257979989667369
   355   1      27.243383461151485      45.494363664352385      2.5706888093087779
   356   1      25.709131701038004      48.051334839190716       2.728091471371354
   357   1      26.105866493415292       49.87346200023741     0.25430351981394617
   358   1      27.099255479369472      52.754583438156828      52.049630294411756
   359   1      27.565934767826732      51.067375105205826       2.625733012226346