dump/Mg_700_0/steps_41 (written by ASE) 

4000 	 atoms 
1  atom types
0.0      32.100000000000001  xlo xhi
0.0      55.598830921999998  ylo yhi
0.0      52.130399999999995  zlo zhi


Atoms 

     1   1   0.0080825076455832718      55.509846421619741      52.094013844510279
     2   1      1.5711246766354454      3.1290328012053461      51.976769580181724
     3   1      1.2327763799994154     0.94112322233416112      2.4735237947621349
     4   1      0.1551423657134369      3.8739309711841416      2.4605875414943279
     5   1     0.21750688675582552      5.9898133783448984     0.23017890692537787
     6   1      1.5443058136253101      8.4813748986627342      52.100613497786846
     7   1      1.4570021189687277      6.6122259810817337      2.7349067808655469
     8   1      31.696980514220346      9.4952003002357479      2.4381521234564429
     9   1    0.074770158607263243      11.109666358866711      51.952354844988278
    10   1      1.1603426312138161      13.909911912446137     0.11884372643376383
    11   1      1.8444721570036577      11.908764291086239      2.6551302753111194
    12   1      32.015303680504495      14.698399404234564      2.7191777703831996
    13   1       31.80779977554559      16.410309472325185     0.23592612060064513
    14   1      1.7967526474899642      19.640927791303156     0.31988551175559921
    15   1      1.4273354653210399      17.717320378958199      2.4503461976617151
    16   1       32.00036136394354      20.277094848879528      2.4818121334736047
    17   1      31.847030489402925      22.236442393189737     0.14693313993788207
    18   1      1.3506127195653699      24.877522833057309    0.026650543182138685
    19   1      1.4793433565175205      23.118896246730323      2.3702907116300711
    20   1      32.028242773339365      25.694040883446398      2.9038970743943828
    21   1      32.085371042996456      27.675415286145665      52.034369089238218
    22   1      1.7416499391383184      30.439102716259143      51.684982114878544
    23   1      1.6387326946436833      28.719965880198814       2.474528741029959
    24   1       31.84479595502129      31.053545216322878      2.8582002675709437
    25   1      32.037080700608612      33.398568489468246      52.033181169092032
    26   1      1.8235248270689723      36.056438313408982      52.079332884542119
    27   1      1.7215203190542552      33.732284284791959       2.650522860159251
    28   1      32.060365832247989      37.019887538822317      2.5983892384398191
    29   1      32.039175053380582      38.671028944435406       52.08137879669929
    30   1      1.4440768512014657      41.770120267630254      0.1313726000288773
    31   1      1.1351596081820416      39.655727733424776      2.6699732289945146
    32   1      31.808300957387733      42.862096397694785      2.4318399165480815
    33   1      31.840877205558694       44.65855349402883    0.057031117906708978
    34   1       1.518118955211347      47.254691888379014    0.053628411568905146
    35   1      1.4673781626864102      45.390978350321276      2.5298084620997829
    36   1      31.849215927857408      48.526091753387171      2.7855356009953693
    37   1      31.947031644053972      49.931466634921378    0.074359322845774428
    38   1      1.4469927678835277      52.938929858609448     0.19026077922587142
    39   1       1.504613678039336      51.191861341567822      2.6293125681157647
    40   1    0.088541252473274976      53.866012169810325      2.7448680150431457
    41   1      2.9233681734466925     0.35547765024382677    0.091044636965061126
    42   1      4.7277430477910727      2.7594293501035945      51.992015823327115
    43   1       4.730212571912471     0.85917493352278695      2.6580732163202692
    44   1      3.2603200129432364      3.7605255216419629      2.3765958561885068
    45   1      3.2534285609061668      5.7825204372099224     0.23341638331023379
    46   1      4.8943036087203389      8.6404127984369197     0.10027670515065708
    47   1      5.1355663107220693      6.5811905466514151      2.7420310848581178
    48   1      3.2343000980284442      9.2122543850423266      2.5009138507985504
    49   1      3.0225518544219234      11.061391529979966        51.8696263877276
    50   1      4.6214454468188171      14.087400233888198      0.2601799391268112
    51   1      4.7558245816975253       11.98679159599158      2.3294094165124353
    52   1      3.0574859694683818      14.981168468218408      2.8084312408655303
    53   1      3.1062144969194181      16.357134568469419    0.068184074141676904
    54   1      4.8461027014881113      19.743481696187541     0.52046672247377312
    55   1      4.5491431083686811      17.661042558218611      2.5925944689663392
    56   1      2.9189117646931697      20.379660882669786      2.8673356211850427
    57   1      3.1260162811487513      22.435980706946655      52.006284357576511
    58   1      4.9399365942193079      25.027114893783281      52.064486947183475
    59   1      4.8255899284262131       22.81893149830637      2.8216022472047952
    60   1      3.0086536727448139      25.659785936845832      2.8289309134856468
    61   1      3.2967276736207944      27.716401914695634     0.33741270772981713
    62   1      4.8165588174260821      30.448099876026713       51.81896903061272
    63   1      4.9407925432795334      28.646311429007724      2.8151764556204699
    64   1       3.426543519087232      31.112048721771984      2.2145060010739228
    65   1      3.2457428421895584      33.277454318536861    0.084782518496732545
    66   1      4.9288012759116118      35.746923235107225       52.00422780954932
    67   1      4.8279896216192206      34.268134937692331      2.3746700621253458
    68   1      3.3678062883393713      36.929309418801999       2.326602512515751
    69   1       2.911966967089326      38.957713039312196     0.31887913340449753
    70   1      4.5560910941775035      41.586945074624602    0.028990442095184314
    71   1      4.5914709873841311      39.606373483582239      2.6115019717927952
    72   1       3.003937780666869       42.77043091380559      2.3834133402014639
    73   1      3.1194937049517044      44.646054115783748      52.107515782789577
    74   1      4.5979904331563066      47.306944943431269      51.941342014471147
    75   1      4.4738500765444691      45.215884186529813      2.7537414269123408
    76   1      3.1492900118105394      48.102426468432519      2.6011711772765334
    77   1      3.0752956015791848      50.122989348741832     0.22231760363096115
    78   1      4.9432306949386122      52.618506927328383    0.044948691317327746
    79   1      4.7113668359583887      50.872756396634443      2.5443340967655148
    80   1      3.2347593318729162      53.788032907715902      2.7527596657266096
    81   1      6.4448202436836697    0.082630519832163879     0.31252108288134711
    82   1      8.3647168142653072      2.5661285893354089     0.11103261353365225
    83   1      8.0684112377375392      0.5833526777457565      2.7764602461761072
    84   1      6.3798580322937415      3.4548518495620324       2.417114482478953
    85   1      6.5371220529290204      5.7869044681115041      52.013480289210946
    86   1      7.9758236794709267       8.487530149255182      52.037576464760335
    87   1      8.0993615123826519      6.5572829762704021      2.6063827934535464
    88   1      6.5026600182366545      9.2875119144171201      2.8325202786408723
    89   1       6.505703783892467      11.076650094477309      51.941215676259688
    90   1      7.4601138861704426      13.573365418906919     0.22327676263354107
    91   1       7.587107985407048      12.022320090881109      2.4910277442375226
    92   1      6.3843116528363044      15.067445061488833      2.6542603568252146
    93   1      6.4071510599901105      16.576804621333686     0.24304546372929497
    94   1      8.0696544319458834      19.391659991660347    0.022023853279477042
    95   1      8.0386135436632014      17.778246181051841      2.7423298829512883
    96   1      6.6643304588051482      20.357900276542036      3.0505815321012242
    97   1       6.336245185949001       22.24521195871176     0.11475789377463144
    98   1      8.0880199300645241      24.969691495418786      52.109819530387426
    99   1      7.8435404193957039      23.078881167028239      2.6363409262743072
   100   1      6.2351929764173928      25.976441473981382        2.62991400363939
   101   1       6.463392761698449      27.695872066101604      52.059645655545836
   102   1      8.0164196167955719       30.45978674912811       51.89020219971659
   103   1      7.6868619854593083      28.606632161081169      2.4342660027071927
   104   1      6.2024482864966828      31.386115259989605      2.8109951303831848
   105   1      6.6815096281033837      32.960349915143418      52.119780349496814
   106   1      8.0265340947470758      36.097446242223519    0.080313067520077636
   107   1      8.2319164145432477      34.015800444697796      2.4954595280085079
   108   1      6.4812780492531905      37.152522233518987      2.3808585874176673
   109   1      6.2996836912794585      38.685170803185962       52.03411623542214
   110   1      7.9666373648640905       41.78291594656605     0.17961548412339187
   111   1       8.117340425771939      39.754518805299142      2.5754706124593048
   112   1      6.2566103098881065      42.561113004874443      2.4199404067704133
   113   1      6.1642221382760356      44.605346621518308       51.98444071994281
   114   1      8.0254255516735782      46.985516702495595      52.041491640797283
   115   1      7.7639097146557541      45.640615048920189      2.6062476080197321
   116   1      5.9677547748512181      47.967046974363207      2.5145203203619078
   117   1      6.3331525727515583      49.998806473756737     0.15988411268127398
   118   1      8.0922437166107013       52.68133255838562    0.055156190473886049
   119   1       7.782317196663409      50.691754567395549      2.6454473110718961
   120   1      6.2992407372143013      53.694610694405789      2.5728846477286806
   121   1       9.619085223131119      55.514271805275776     0.13014383814346969
   122   1      11.207683571013169      2.8951841728989649    0.061263097141913719
   123   1        11.2848715922796     0.62553178977391455      2.7112199174469711
   124   1      9.7117672001406063      3.5977180556298909      2.4800268650719546
   125   1      9.5321756167805081      5.7061964586207381      52.093214066066103
   126   1       10.98076609220173      8.3807791498118949      52.005938696195429
   127   1       11.04237609171029      6.1833040883989616      2.7990373985341344
   128   1      9.5637334546812038      9.1631897977600669      2.6825851899291453
   129   1      9.6002453145280757      11.085163250055457    0.063850806438577906
   130   1      11.191013583966825      13.676758630037629     0.03307217596495432
   131   1      11.591343253667004      11.721240169347112      2.4598196652196411
   132   1       9.441213180920677      14.946061211640339      2.5821075344528124
   133   1      9.1742407365353582      16.473020010203069      52.032281232223035
   134   1      11.263988624441478      19.661518379056037     0.10721236270048799
   135   1      11.208687693255978      17.608146204985861      2.3372937961310067
   136   1      9.6196281875058762      20.388427106766454      2.6524609738166078
   137   1      9.3602365892208894      22.154865440340263    0.097460286786887451
   138   1      10.951396028607974      24.753439980095003       52.03944605255812
   139   1      10.896244992129965      23.002473842166122      2.5165493773732122
   140   1      9.4764576989473124      25.839844877922555      2.7706509874731347
   141   1      9.5730980649401953      27.521974113563292      52.000497522584851
   142   1       11.14220066527113      30.443377827889375   0.0070195457901548446
   143   1      10.742031693295839      28.410343824158517      2.6351041105228505
   144   1      9.4439846819379909      31.194590141930703      2.3579778753528386
   145   1      9.7700918050139247      33.126621579246091    0.019862747716596001
   146   1      11.770188880252721      35.841036879777967      51.931870305942986
   147   1      11.119986453363151      34.431676392827335      2.7576470879569435
   148   1      9.6209568288756611      37.259421757031362      2.4342746895277485
   149   1      9.6054207717783893      39.095487790437474     0.22164582907608971
   150   1      11.410073155026893      41.705740887114999     0.09881939268568575
   151   1      11.304244901489042      40.063901611999249      2.4713068662802882
   152   1      9.3818877380457835      42.873038486082287       2.548454268362311
   153   1      9.2369746338381624      44.606088014663541      52.094197019126518
   154   1      11.671952618061136      47.249258623466332      51.936901531564232
   155   1      10.935419492341772      45.303030658367419      2.6393545525076276
   156   1      9.7302494561908048      48.287580920797446      2.5099848004263157
   157   1      9.7077389134420784      49.824794998398623     0.21660982177096272
   158   1      11.453283919224726       52.95566112789227     0.27838921805493394
   159   1       11.41504662094469      50.991504818303916      2.7675185456571185
   160   1      9.3961958076890699      53.503840157229753      2.6761655852973285
   161   1      13.034089019121954      55.515327841389947      52.033498651365136
   162   1      14.169981520841246      2.7358467790557284     0.10246240488393488
   163   1      14.582140554002118     0.99607154222629279      2.5695799651055036
   164   1      12.876194311231938      3.7363493129525498      2.9007360529518387
   165   1      12.580859760868632      5.4175518988726381     0.01475489424324016
   166   1      14.557655248396051      7.9694073660512448      52.003117477399186
   167   1      14.086397355572627      6.3063306445528369      2.4311240406508916
   168   1      12.548669477161988      8.8107273256699727      3.1058348478854869
   169   1      13.394412241870524      10.891396425164219     0.10772355051562127
   170   1      14.653385798945294      13.828428104882883      52.128813191194695
   171   1      14.817410657157408      11.849087585906329      2.4135489069662741
   172   1      13.000667549735203      14.789958151841988      2.4480795569803213
   173   1      12.483355234561019      16.606118864694547      51.946497898491188
   174   1      14.582754575314539      19.406555286049578      52.012587187483135
   175   1        14.2788216329942      17.321046148687707      2.6038488137447588
   176   1      12.891362928821305      20.589768830939501      2.6577518611864064
   177   1      12.931896041636252      22.176012158835125      51.843414452863023
   178   1      14.197573363511141      25.072912729389351    0.093628871691149335
   179   1      14.356191050095514      23.295317579327634      2.7115856205442794
   180   1      12.539245404336468      25.719748790398974      2.9102132553265765
   181   1      12.694238216063729      27.745697762958052     0.16612570475498273
   182   1      14.172343161722299      30.335452599066969     0.22014584878630028
   183   1      13.871320037655799      28.577226810043964         3.0456810810891
   184   1      12.525404405190239      31.661598384587599      2.6948552567295452
   185   1      12.937294381233592      33.515854589248264    0.017898604557819831
   186   1      15.044520700544155      36.208679652869158     0.24963882725750883
   187   1      14.428936309733823      34.008153439817065      2.6667325192611275
   188   1      12.643673726045096      36.867504551536548      2.6252673422559338
   189   1      12.541280504516234      38.841303169560241      51.814730725284669
   190   1      14.497620681359177       41.56973516697694       51.83083819191976
   191   1      14.422458679623038      39.402802113729479      1.9129126001817074
   192   1      13.057358100109957      42.406676140678371      2.5658039646552924
   193   1      13.046103360277616      44.254224060762319     0.15672579204020265
   194   1      14.455797145330964      47.433855748456565      51.931399156139278
   195   1      14.737941980895171      45.202778093678567      2.2940854879221146
   196   1      12.964359829639188      47.740907712590456      2.4977572282061069
   197   1      12.706090644783679      50.281318614966764     0.07929236050723959
   198   1       14.49038168428312      52.752648543787167     0.04458776708581446
   199   1      14.489441914553707      51.410186589308623       2.603645827759161
   200   1      12.730682654814215      53.845654650125702      2.7572729052013019
   201   1      16.146367431626171     0.20752510410739566      52.034770491669043
   202   1      17.590817639464209      2.7548613622765741    0.047829026760658144
   203   1      17.521938658074333     0.77638153514881314      2.6188116338634946
   204   1      16.079443273744975      3.7475525520833597      2.8468460880338529
   205   1       15.76659083469572      5.2536007211205664      51.939834686489249
   206   1      17.448759725446145      8.2597702331303537      52.058335680660406
   207   1      17.372306484615745      6.3382779106912448      2.3551040727645378
   208   1      15.516275313590441      8.9479752720405603      2.6194324705865748
   209   1      16.412129700956928      10.943354015983413      52.038489961233559
   210   1      17.706890041955255      14.298208270473479      52.019884328006846
   211   1        17.7366833904304      12.175316307817624      2.4501909532476653
   212   1      16.023039693550775      14.611701431116067      2.5375108058631537
   213   1       15.72740909444123      16.387489125388978     0.27386484925462584
   214   1      17.817313923886484      18.968358828915658      0.1953405296554393
   215   1      17.764442633548885      17.605756077872773      3.0056559165983692
   216   1      16.143213169614707      20.089359530969524      2.6117657507533436
   217   1      16.329990374668885      21.893685559132035    0.016441188455437513
   218   1      17.607935801138805      24.803431790778816       52.12664174132685
   219   1      17.356412209725526      22.999662589429779      2.4556319293444369
   220   1        15.8743389573541      25.862538625523197      2.6475959144201666
   221   1      16.074011946392858       27.54743706738769      51.697773586331031
   222   1      17.511234141946236      30.332435686432625    0.030615213727908385
   223   1       17.16294776287593       28.52525182237904      2.3228668493731996
   224   1      15.904270971589392      31.230626895673613      2.6594794119008127
   225   1      16.229277455195341      33.273558256789727      52.096479470395117
   226   1      17.843825017070301      36.025292262892648      52.119729435794937
   227   1      17.598839124994591      34.065241157886092      2.7711509390123008
   228   1      16.372237699381895      36.562092194352552      2.7617338700063487
   229   1      16.237245829016455      38.992546723010236      51.632861554551717
   230   1      17.581307661356362      41.630774656725571      51.814693618119271
   231   1       17.30270016112345      39.380887642561596      2.4523911315071016
   232   1      16.009407706530585      42.575261176560204      2.4874016509250896
   233   1      16.022152633628007      44.233910001451768      51.733096642860566
   234   1      17.507399237514054      47.133060453967069      51.934846169917812
   235   1      17.614632810139096      45.234081491514289      2.4559424819302644
   236   1      16.242235544142929       48.35259842058263      2.3621002786891441
   237   1      15.822537449571074      50.002060633688757       51.95389242192531
   238   1      17.565088502462768      52.619177529972887      51.904527832629043
   239   1       17.38680609794763      51.023944644699405      2.4777302620014239
   240   1      16.019455094881465      53.900857564864907      2.4949618176616823
   241   1      19.145882253192198      55.043440116734359     0.23281732501675589
   242   1      20.359952873617015      2.5478294197355793       52.00862761165812
   243   1      20.869187594338808     0.70643069732985131      2.4556993245445704
   244   1       19.14580371998958        3.40547721006264      2.4497672609979348
   245   1      19.154106201525245       5.398350873498817      52.049848801733852
   246   1       20.63474406072292      8.8394472837796751      52.001920354930107
   247   1      20.484552115502243       6.934425636665229      2.2887207617152816
   248   1      18.913156221872025      9.4683532215732633      2.2316382581022003
   249   1      19.282544999906751        11.5028704649453      51.870883027400858
   250   1      21.242817042020086      13.886950486877272      0.0982570929170061
   251   1      20.813954767502423      12.219533695886613      2.5398581928710016
   252   1      19.294222458092111      14.895601761821691      2.9805997358757237
   253   1         19.594714329018      16.607413884252562     0.45540318829795956
   254   1      21.040153674067902      19.233089666004666    0.049178604655399909
   255   1      20.747726048817722       17.58635222238463      2.7130972215113647
   256   1      19.350043352979238      20.397437633531116      2.6911876360305262
   257   1      19.572409669452043      21.980577098607913    0.036875228132184711
   258   1      20.739652737746788      25.097646659343848    0.032041984745193437
   259   1      20.894728837958908      23.233882752596408      2.5789098298058764
   260   1      19.047370505714433      25.778974287968737      2.7872733943953305
   261   1      19.285803223482141       27.79152655311978      51.819036911661748
   262   1      20.625791218146961      30.721920885355733      0.1401403530808123
   263   1      20.742726934107036      28.579308575711824       2.671353130506958
   264   1      19.023636911495021      31.050581726312053      2.7050172580434526
   265   1      19.091135224110857      33.189569203890855    0.065256587931749349
   266   1       20.90452535997429      36.210732863346422      52.081004140333079
   267   1       20.97444689957479       33.88706968391206      2.4143914095374077
   268   1      19.309497079157495      36.726319410876684      2.6388750299366848
   269   1      19.278337635362206      38.979626505078464    0.017302409796757821
   270   1      20.706156390884068      41.643683546951543      51.643065225865499
   271   1      20.831699168296836      39.361905424053951      2.8466567837214369
   272   1      18.867574238894523      42.219624687919911       2.299914093306298
   273   1       19.39489100564581      44.583060645236216      51.852394559843567
   274   1      20.988439456753646      47.358857926957207      51.875805089794149
   275   1      20.769867959156194      45.336679730346575      2.6185275505994974
   276   1      19.085042877149505      47.924601915434188      2.3583804305787193
   277   1      18.894360260948531       49.88262330910193      51.897403076524419
   278   1      20.696442493588293      52.559288659799392      51.970029321010152
   279   1      20.538811596426278      50.634951652628089      2.3316574912631864
   280   1      19.203364011221058      53.274810614040653      2.7810969640161338
   281   1      22.309763273739033      55.282790659093813      51.849061944134959
   282   1      24.058799690770833      2.6307276298679279      52.067760850248355
   283   1      23.804723006966761      0.6487101361478278       2.424054367347023
   284   1      22.312053334015669      3.5684992229435526      2.3065176772540541
   285   1       22.10968622250865      5.6250341673213704      51.459001145576345
   286   1      23.873297799759083      8.3280803581721567      51.984526942967385
   287   1       23.69084945168024      6.3554652336258979      2.7068216278149593
   288   1      22.325857532601717      9.3230721213346044      2.7912602916305058
   289   1      22.559302290192239      11.062293260285008    0.010834449408236996
   290   1      24.523752478703422      13.963306583855879      52.108087860703797
   291   1      24.052713500379099      11.840078224429332      2.9509805986546334
   292   1      22.503087870060579      14.827410792429889      2.8126263277665076
   293   1      22.914694668033388      16.371019367612266     0.24362343393436675
   294   1      24.022211381400208       19.51462048984531     0.28026677808067529
   295   1      24.051519356700016      17.696190092797124      2.7245845074934127
   296   1      22.298694478718943      20.579741555226001      2.4292526947449171
   297   1      22.571732663957668      22.045831368864413      52.089671655716423
   298   1      24.011597589711229      25.010065315198425    0.069973357501779798
   299   1      23.962033894427449      23.297453814826724      2.9632314025039812
   300   1      22.281810508427313      26.092114786086629      2.5143755782395818
   301   1      22.421972674851204      27.681715458027195    0.069543259088669471
   302   1      23.901086566149846      30.605204723214687      52.003223017528597
   303   1      23.892153583669621      28.872982905643688      2.3681085595890203
   304   1      22.344890910526264      31.226073951684427      2.8513956262108562
   305   1      22.344713071794313      33.284073286976181      51.785141769796937
   306   1      24.421564581353962      36.019194957299767      51.986353589848335
   307   1      24.058839232377817      34.190372520906678      2.3788827002562143
   308   1      22.486461456683084      36.728405398875829      2.5962597953652873
   309   1      22.774211460883574      38.775417886444977     0.02130068348835841
   310   1      24.020123054042198      41.638790999356281      51.887601523422298
   311   1      23.851919569170828      39.776568756104915      2.6855747442150983
   312   1      22.147764702204075      42.535658427681341      2.8607039940159953
   313   1      22.561745008929375      44.283270043688077    0.069966393265729399
   314   1      24.112560440345796      47.154951716856928      51.792184702230813
   315   1      23.996428824261265      45.289202363543112      2.6846247971008421
   316   1      22.408852215836038      48.047168917124267      2.4272992303228276
   317   1      22.333435802189744      49.818638031776182      52.063443779400664
   318   1      23.825565572349671       52.60171671494507      52.063002336193676
   319   1      23.923450001296331      50.641571023737427      2.5039237800619443
   320   1      22.338838369297068      53.441777934850329      2.5283476599811903
   321   1      25.515205357218019       55.55916159702214      51.984625000193631
   322   1      27.317043569738296      2.7094911228901184    0.076599550080759804
   323   1      26.996476381084666     0.79431389449383649      2.4556376732287895
   324   1      25.428298422025545      3.7830629870378774      2.5133978193176536
   325   1      25.269269644420138      5.5853156979813763    0.039008970573910597
   326   1      27.240239758264266      8.4546860648305451    0.056386867200766473
   327   1       27.06078889040791      6.5336894197151452      2.4601452141630835
   328   1      25.841229606604877      9.0898075663687905      2.7751966941358894
   329   1      25.842472779792988      11.306628130145409    0.081028660662027741
   330   1      27.344281254353781      14.190932563510048      52.115408839186181
   331   1      27.125630950473056      12.254806402229274      2.9002773118064016
   332   1      25.746550944136963      15.103767739189346      2.3880525707819813
   333   1      25.853069264382199      16.838173161241862    0.027329573232884742
   334   1      27.254609487808256      19.436180178467936     0.14078462933607022
   335   1      27.108088517294043      17.789548495992392      2.7178404858280825
   336   1      25.654266161506261      20.647479274739343      2.7352617509272052
   337   1      25.701396123308374      22.139300819929662      52.052685792535542
   338   1      26.915440381116966      24.781491703542219    0.096845390223322336
   339   1      27.373633203608399      23.057043992095082      2.8314731867416252
   340   1      25.571992211223556      25.750194477478203      2.5579728089603258
   341   1      25.429959198820068      27.603504834349973      51.961051967402462
   342   1      27.068891286807538      30.370277364992742      52.018562348576189
   343   1      26.883201351499412      28.801000484204298      2.5867639595684699
   344   1      25.391089636727067      31.595878309792891      2.9768345073629674
   345   1      25.609401438845286      33.236915869692474    0.092056612761630269
   346   1      27.487492338450874      35.962302044861261     0.68234303294963161
   347   1      27.263169377937636      34.059176821570915      2.8366542830968973
   348   1      25.641611507536773      36.839503075544947      3.0846694788457993
   349   1      25.884539962294951      38.860167527605455     0.42850867824176725
   350   1       27.16710967675407      41.867617911683311      52.018411620446621
   351   1      27.162215972599004      39.978267256124418      3.0944617111653434
   352   1       25.37940041130101      42.357856200670732      2.5019525167635495
   353   1      25.477456128043219      44.449541920158893      51.635678251625841
   354   1      27.016842520087298      47.262241414919778      51.948228547962387
   355   1      26.999695574031065      45.455396103472047      2.0962063605443277
   356   1       25.68173745373316       48.02687583383112      2.2806794975185478
   357   1      25.517190946536125      49.785373290925385      51.922918848125043
   358   1      27.182074900471743      52.893101151794546      51.791209437804518
   359   1      27.004642494124415      50.776439715801509      2.8138292568405197