dump/Mg_700_0/steps_51 (written by ASE) 

4000 	 atoms 
1  atom types
0.0      32.100000000000001  xlo xhi
0.0      55.598830921999998  ylo yhi
0.0      52.130399999999995  zlo zhi


Atoms 

     1   1     0.12077294342091457    0.063587973387804683      51.971414893471973
     2   1      1.6281195774818145      2.6039272461698011      51.942006332338906
     3   1      1.5228083501617684      0.6244445853232985      2.6421175325552002
     4   1   0.0085159518688105017      3.4618847348535127       2.421978485445873
     5   1    0.053891067631540342      5.5318328669926693      52.060296495266705
     6   1      1.9412464372916609      8.4738872532002905      51.825791309469423
     7   1      1.7496407328826324      6.1776476115086174      2.5034181988132271
     8   1    0.046760249663032688       9.094184765279131      2.1028921537138969
     9   1      31.862176809572166      10.870798072531375      51.916745282066508
    10   1      1.2781145925202522      13.944602944901813     0.10817617992227764
    11   1      1.5396730668463998      11.967522320500315      2.6519968392705531
    12   1    0.060632801275688701      14.885846812281676      2.5615945519017562
    13   1       32.02415226619123      16.696238275962436      52.004639550444509
    14   1      1.7167342741425957      19.532102012228808    0.012753925892013716
    15   1      1.6214924915924607      17.798729095531975      2.7272344132527433
    16   1    0.085391091040197958      20.659971085378338      2.5251415705776044
    17   1      31.994906670118677      22.326044160240382      52.084516881310677
    18   1      1.8444199252980229      25.020241572983899      51.767667488991343
    19   1      1.7949194106309307      23.478989343918933      2.4151063023637938
    20   1     0.16143481393728687      25.933696853407071      2.6960856738206198
    21   1    0.027050347496895343      27.512815359512654      52.036667036522182
    22   1      1.7944656705725772      30.147177059893977      51.961013713158145
    23   1      1.7531548630241223      28.512194414297387      2.5556944786285576
    24   1    0.086288664725795758      31.286635885558955      2.5235354113514501
    25   1     0.36253204962662339      32.951801006968488     0.06721294216453591
    26   1      1.7334914773022712       36.10813526505698      52.057238333823875
    27   1      1.9583160160972208      34.103814667844063      2.4402473481272877
    28   1     0.51446397631341667      36.573811930610781      2.8426041460295215
    29   1    0.051523783326538272      38.818414088272185    0.043374483101283549
    30   1      1.5713022861774277      41.502128597271422      51.987084027865549
    31   1      1.7567468235184738      39.665139962051967      2.6635368073837404
    32   1     0.17966511928489387      42.648943768799448      2.3844958150577176
    33   1      32.013311557723071      44.745802299046829     0.12998848884743355
    34   1      1.6309742894426285      47.266342666552475       52.12979033058869
    35   1      1.4856983955796772      45.228852898619465      2.7933328827964341
    36   1     0.17959761741748564       47.87204606236395      2.1682782216879875
    37   1      31.992414812094633        50.1143410030841      51.873146469086912
    38   1      1.3054852889253028      52.904930296678444      51.822400895380767
    39   1      1.3148228779447826      50.603186950614635      2.3556037763787465
    40   1    0.034197093794288078      53.435141015447527      2.5598864780213111
    41   1      3.3858525636216741     0.13738347523532768     0.29439517094840073
    42   1      4.8080835788566274       2.784533386973945      51.955008945428396
    43   1      4.9966109504758363     0.78209170822295937      2.7099682432603416
    44   1      3.0580178818818493      3.5037606705035862      2.4397852640752902
    45   1      3.5702616287120312      5.5582054258458458      51.701729137789201
    46   1      4.8715053331978826       8.715877876931188    0.079866355592065952
    47   1      4.6003109936975983      6.4386721206267667       2.257338826273859
    48   1      2.9783191511698184      9.1412520124336094      2.6998911193263337
    49   1      2.8068972506120109      11.306339274638313      52.073588262643682
    50   1      4.5447833109370883      14.027837208430713     0.19118313252839253
    51   1      4.5741761714608726      11.947615944016311      2.5435832825262978
    52   1      2.9986594517594196      14.682241447883198      2.5366624670247586
    53   1      3.2432743033627616      17.146675914226346     0.12583318138294614
    54   1       5.084790599528807      19.600774171657854      52.025711399332742
    55   1      4.7640685656344122      17.487012400795312      2.5218586141771344
    56   1      3.3193242535611622      20.223899934826711      2.5821518314717138
    57   1      3.1570026307397092      22.411564890954466      51.877491016916451
    58   1      4.7663485518252466      25.101977831391618      51.866067017927904
    59   1      5.1300835827922429      23.145184110383141      2.3094790265300902
    60   1      3.4021392570990949      26.047461391849563      2.2859649905987602
    61   1      3.3183899066891027      27.747191539136292      51.824411888907584
    62   1      5.1579925735750392      30.590837256812858      52.022639310623852
    63   1      4.8541718217688361      28.725527385726725       2.217398136851692
    64   1      3.0327917572462075      31.446688179946779      2.1406920656361317
    65   1      3.3642115041222644      33.135903220457273       51.85416450568195
    66   1      4.7906368063554936      35.861484165954643    0.035750828099953037
    67   1      4.8613896793426736      34.113760452038456      2.6848130315008629
    68   1      3.3223143444243064      37.137141647729784      2.5319593514094803
    69   1      3.5952762899111161      38.657629953239109     0.15142963649166188
    70   1      5.0373909189569233      41.773665026898506     0.22695092072732456
    71   1      5.1748304375506962      39.713156286440388      2.7105826907166097
    72   1      3.2117913407412022      42.526083886829298      2.5065219055436314
    73   1      3.0551505645784958      44.153284067160527     0.24196761210195519
    74   1      4.5339497352518094       47.10056755488953      52.017228519994163
    75   1      4.7988991692858285      45.387393283047444      2.7491224447657725
    76   1      3.3078596465533838      48.144503232148182      2.6825729279112882
    77   1      3.5073282222788977      49.974716766135984      51.787161126916743
    78   1      4.6321376595221695      53.071449501825484      51.810437921954254
    79   1      4.9082438516453246      50.780788074728854      2.2706189850488623
    80   1      3.2273148887584338      53.294264386264736      2.2986502365174486
    81   1      6.3722548933513865     0.10852854305496716      52.114599941858863
    82   1      7.8303016490567323      3.0299546674930022      52.002744561133362
    83   1      7.9660967152595186      1.1375703199573683      2.3674537463480694
    84   1      5.8333766149905495      3.6886305311891978      2.3854279214365164
    85   1      6.4987888556066498      5.6852758344071574      52.003308743420163
    86   1       7.895709421835603      8.2595573172571086      51.954742301287858
    87   1      8.2833819406827143      6.5753790810372745      2.8978358298171396
    88   1       6.330191539164562      9.1165260409794389       2.600693405950846
    89   1      6.2047187585722048      11.666482189274847      52.084390501512679
    90   1      8.2152434164786694      13.761045607929063      51.831959350341847
    91   1      7.8376717314318327      12.045978994498773      2.3585731077089411
    92   1       6.752737220364498       14.38339094072982      2.5229141616196249
    93   1      6.2663994887083456      16.738985125877115     0.04424334296485314
    94   1       8.057028133424657      19.596089975873792     0.10968853428302411
    95   1      8.1876266202019874      17.944159447616741      2.4818960104712851
    96   1      6.6982325998471515      20.484428745503212      2.7131993405009127
    97   1      6.4222753690451553      22.421905748678228    0.032029278865023027
    98   1       7.851573437608609      24.970249087352848     0.27890892566293607
    99   1      8.1441430247789004      23.407209402317445      3.0580202932681089
   100   1      6.4159322896026936      26.105872749828883      2.4033273788116367
   101   1       6.472491292597998      27.691246483715908      51.820967496615644
   102   1      8.3363555648512069      30.618041899658863      51.943797860879918
   103   1      7.9319142169648362      28.924675140524066      2.8421507914395368
   104   1      6.4749392110604935      31.625000292444902      2.2199749338170869
   105   1      6.6593352502866852      33.289431399024544      51.960700895774572
   106   1      7.9395913115836132      36.236541812166564      51.781661738832597
   107   1      7.9509579786259525       34.44323446000783      2.3644074948777067
   108   1      6.2941244198515669      37.002099055644521      2.1963480708350009
   109   1      6.5610839855618792      39.215917979698702      52.004784254625122
   110   1      8.3621785115157596      41.908574072269701      51.844253816596165
   111   1       8.267424814565933       39.81518072673525      2.2848654265279178
   112   1      6.6636369851618413      42.596419593681425      2.4395354792054986
   113   1      6.2518789743189771      44.398666320772321    0.085238199123409797
   114   1      7.7138498564920894       47.47261319554304     0.28590522455717948
   115   1      7.8728669520471781      45.382087967371142      2.6784528377451546
   116   1      6.1962538554621061      47.854102957963178      3.1290953934073187
   117   1      6.4360562912498924      50.496887505240252      51.747395864880971
   118   1       8.005417045783723      53.231021319054769      51.567495577940463
   119   1      8.1954676692196973      50.511022672891386      2.8152452948695661
   120   1      6.5115785480527526      53.761261745179986      2.0645018789418632
   121   1      9.4416270845230112      55.538091795776147      51.929139124371176
   122   1      10.977759058224686      2.8969018331134362      52.014361379800242
   123   1      10.755151839390416      1.0275005581733347       2.364134641293433
   124   1      9.2215299705396223      3.9138794792719316      2.9724390269229248
   125   1      9.5506371958760052      5.9675907440929734     0.10517436513566067
   126   1      11.343887656670267      8.3406735080117134     0.15474838847858383
   127   1      11.312966064589952      6.3632142262206797      2.7233587020685714
   128   1       9.473046071838688       8.914501972016561      2.2315650187347287
   129   1      9.3094851800580276      10.936260388322065      51.905652766168437
   130   1      11.271342966567744      13.824418521877263     0.08085855537106526
   131   1      11.187190519714839      12.192373392614051      2.5802221037859421
   132   1      9.8655999839313733      14.807992719934996      2.5335385510585362
   133   1      9.5830059007249044      16.901660972675721     0.13187113315729562
   134   1      11.251974155062294       19.61158403035094    0.062986105785449067
   135   1      10.968148491517047        17.9432956777074       2.622258625313775
   136   1      9.8277122528594507      20.854281109603608      2.5876332763268115
   137   1       9.437985318828904       22.45391999822197    0.047998702638214943
   138   1      11.291856750006229      24.801842932509452    0.035575432358311787
   139   1      11.447567530205935      23.336566551518025      2.5353103707415281
   140   1      9.9707245240049769      26.060963564611381      2.9000790780586416
   141   1      9.5964311674785865      27.736331403924179    0.074857222948567601
   142   1        11.4081463553612      30.588419547181413     0.23472036477432981
   143   1      11.411332753530285      28.950389464984148      2.6773290012913464
   144   1       9.323884073742013      31.538466642050878      2.7008763877675102
   145   1      9.6292002506743373      33.563634444922961      52.107537146888816
   146   1      11.313727528135246      36.107316555248019      51.957276764990539
   147   1      11.320269363460763       34.28654542168097      2.4542742142505651
   148   1      9.5137173222619804      36.655428617133964      2.2911997688451087
   149   1      9.8675033546620892      38.553787658640651      51.914191604694949
   150   1       11.49396143207429      41.451602110667793      51.997640003862458
   151   1      11.169820918388597      39.788937356966926      2.3727954859348626
   152   1      9.7115711535148463      42.658446220094824       2.164722469901879
   153   1      9.6002372419634252       45.04416417191473      51.924502532926496
   154   1      11.351412255903268      47.624913746917017      51.887612359639022
   155   1      11.233737787630306       45.48057073623032       2.222696011636244
   156   1      9.6688388604048381       47.98293335516167      2.3082173806371094
   157   1      9.3354277254558902      50.123145333904262      52.074760273836901
   158   1      11.178222257977914      52.959799670592652       51.80399625000954
   159   1       11.06731930921022      51.001713127768546      2.4753712381071886
   160   1      9.4912415215093731      53.771670777290979      2.4927215507010962
   161   1      12.681314578416204      55.396700733512709      51.982727188246159
   162   1      13.763654207619121      2.7576131705295288     0.15255075416879962
   163   1      14.581081571187832       1.070881292264797      2.5737836444528086
   164   1      12.498450115810698      3.5455746824159333       2.471511854476423
   165   1      12.810971408280691      5.5428772360342071      51.823937053625528
   166   1      14.369015846304862      8.6893008319185867     0.10871737694621696
   167   1      14.322834247365309      6.7867595589712204      2.3406965586464867
   168   1      12.456084581919141      9.5949622994156183      2.6109892374884458
   169   1      12.911332254696136      11.003034162217945      51.923746379114462
   170   1      14.386877926929019       14.06832240558013    0.083300309305554016
   171   1      14.105409502348913       12.06642190367277      2.2356343620459063
   172   1      12.819621431767988      15.206093877527962      2.5216272142532894
   173   1      12.597339842765162      16.845544835810937     0.30451999177969541
   174   1      14.558108541212295      19.399422365208643      51.955339207201163
   175   1      14.578217070093247      17.509887934215048      2.4505348495390886
   176   1      12.988577000000353      20.584231525482334        2.35421036166096
   177   1      13.088874662328593      22.426398013329134    0.079437406394389953
   178   1      14.591810027352951      25.296213246548398    0.077099174433415241
   179   1      14.277780159727273      23.617055742055921      2.7869066568796783
   180   1      12.930859404480982      26.190846471774918      2.8884324424132526
   181   1      12.899642687304317       27.82560869021729    0.077363250201029285
   182   1      14.370783714664887      30.589776454321878      51.981013091210954
   183   1      14.611081187377533      28.912688866788539      2.7876939609817666
   184   1      12.949958200466316       31.50325486646485      2.5761908986507391
   185   1      12.628336437085418      33.301084878118431      51.876072480415061
   186   1      14.510357417445066      36.113719995619434      52.080562164884242
   187   1      14.481631386375668      34.622612355830888      2.7997251229499183
   188   1      12.554496252205714      37.218277007236559      2.5650309034993883
   189   1       13.03541266740706      38.979629032839064      52.116155291118346
   190   1      14.731784569188225      42.058310766496263      51.958675605118174
   191   1      14.804932400110113      40.001798258480939      2.6223817580314317
   192   1      12.840743357361678      42.256977236892354      2.6781122674637179
   193   1      12.711270300115645       43.98510962657199      0.3162898167411991
   194   1       14.46501030536999      47.151754633217649    0.040585973633767834
   195   1      14.537522634942018      45.250947861259533      2.6657237406552703
   196   1      13.080684480210882      48.149056787174473      2.5728793592159809
   197   1      12.772383083564426      50.268132492054008     0.20273039923525527
   198   1      14.550128222627983      52.840759216895577    0.046476950011306764
   199   1      14.513287654181275      50.955252316470521      2.5588312619613207
   200   1       12.86774118462095      53.641230680496832      2.4306512519395214
   201   1      15.954446710023902     0.43666072088718644      51.936605164555679
   202   1      17.443328093862519      3.0854394378977124     0.24927249326220688
   203   1      17.724800333474143      1.2161524639758114      2.4866871527707266
   204   1      15.535847636604258      4.0793846947130392      2.5961303849775752
   205   1      15.790763996502593      5.5789812963804701      52.114506950725222
   206   1      17.467046930135243       7.996642257786311    0.089532782425019719
   207   1      17.859770994237067      6.1200710019142823      2.8448406735150322
   208   1      15.915908476211143      9.5544087538278397      2.7643754047941664
   209   1      15.890161575288221      11.053438372224052     0.04878748433348435
   210   1      17.693075894675019      14.041629163779445     0.15489808539012398
   211   1       17.44946215566474      11.835309945992684      2.7858479984005893
   212   1      16.061194413311959      14.769992131527468      2.6767006646322407
   213   1       15.92710179617859      16.868638156492288      52.096032610010226
   214   1       17.59375050468309      19.592642495762746      51.974620836789313
   215   1      17.745979987708996      17.576876745010406      2.4389573606768984
   216   1      15.923167828066596      20.080143357827161      2.5842266362360169
   217   1      16.188785572482093      22.216502603937894    0.058228339497176436
   218   1      17.821559864103143      24.865065540122178     0.13991582358181379
   219   1      17.520981729295475      23.049306810208051      2.8494154971518739
   220   1        16.3103297970579      25.815477577680223      2.6525036545435037
   221   1      16.650651683884515      27.805080692477148     0.13940196340074987
   222   1      17.569364747663894      30.493473548174858       51.98217377975184
   223   1      17.903499063397117      28.713025457850915      2.7841530099418863
   224   1       16.28271655582591       31.53177296638022      2.4123032741051977
   225   1      15.672407089669385      33.359156002315082      51.914224652574312
   226   1      17.421943849875809      35.985009072578812      51.986989629883837
   227   1      17.508146801596105      34.477841376278761      2.7876896529321882
   228   1      16.133129181928641      37.195915188092869      2.2643990291914964
   229   1      16.228742970174377      39.006806121547292     0.40104228366621525
   230   1       17.90665838349177       41.44025171141363       51.98899491746208
   231   1      17.906779384767869      39.909874276281521      2.5778684819569229
   232   1      16.488651656263546      42.660049019522511      2.3677905027052324
   233   1      16.072802470363509      44.594061607618244      51.849382879272696
   234   1      17.662912644707102      47.245808779222664     0.14037874472799822
   235   1      17.588139248325763      45.301631838893535      2.5669723334175765
   236   1      16.142485353856181      47.893881687290609      2.5731899341211579
   237   1      15.781184765048534      49.603354593817031     0.06193707338873617
   238   1      17.405547937858131      52.549230464332879    0.011045760659874301
   239   1      17.840150639482285      50.539199482531039      2.3892054632079973
   240   1      16.204561017297411      53.691558737009295      2.4504108636011304
   241   1      19.036936883124831      55.291431903137891     0.21851923671981746
   242   1      20.694227322940026       2.676845343865137      0.1145720607909707
   243   1      20.939050684811143      0.3363673994183729      2.8373478846908493
   244   1      19.693405741846547      3.3548113706411682      2.9126684596095269
   245   1      19.668040266975524      5.3990498963520093     0.23185436867828732
   246   1      20.767794059650384      8.5582885297901434      0.2348812263277425
   247   1      20.788039482416483      6.4968230570429988      2.7103077909350231
   248   1      19.011023564664946      9.2132742504256804      2.6416868910220757
   249   1      18.980745997065856      11.144587424463582      52.129196095171494
   250   1      20.944596931517122      13.778887200576232      0.3698797138403061
   251   1      20.962964231019349       11.87754507886987      2.8050328103665532
   252   1      19.645095273316425       14.94090817047473      2.3760549064494598
   253   1      19.269631021520006      16.753397881573598       52.04086416992866
   254   1      20.735560280703019      19.391999249256482     0.32479745177507546
   255   1      21.029593234675044      17.824541227130329      2.5181921083314687
   256   1      19.190613478444902      20.305769111826159      2.7567536581447456
   257   1      19.306080243667328      22.086891924430944      51.940932032333102
   258   1      20.691594522869853      24.915939988765395     0.19796251850583452
   259   1      20.560753722126943      22.970977417179945      2.2677490833805249
   260   1       19.35987377724306      25.906541783796357      2.7335661475662354
   261   1      19.614378975016471      27.448623791284255    0.074172006632793025
   262   1      20.738711005690227      30.450640007275062    0.065657057228790824
   263   1      20.951141682645751      28.839212944450495      2.5206024191544234
   264   1      19.401091759547167      31.159179382078893      2.7056858599316409
   265   1      19.289902200063295      33.268808145022099    0.077603291311065956
   266   1      20.842567532919801      35.872859672265392    0.031608994215963596
   267   1      20.892115404873703      34.260622113772897      2.5695862192590493
   268   1      19.220680018262915       36.88236457381516       2.369270861974262
   269   1      19.453182128204791      38.826640752975202    0.054385594723196796
   270   1      20.995502605254831      41.587670850080521      51.945991448568698
   271   1      20.914781014780051       39.61670620743979      2.8437113973387746
   272   1      19.546910178257452      42.700836157423936      2.4938496233096163
   273   1      18.981086824385986      44.235538057803453      52.093055900481055
   274   1      20.731789169747955      46.894357258144261       52.00122710837443
   275   1      21.148893803365301      45.085691933125524      2.4895792094469682
   276   1      19.325111572870075      47.674540126784194      2.3432314266962533
   277   1      19.212658055438034      49.955210286948322      52.068116116625177
   278   1      20.685800318617446      52.699047976471292      52.091083262157149
   279   1      20.898374257317673      50.573939120600244      2.2589768708914697
   280   1      19.231782609882821      53.323612430923724      2.6450699717519792
   281   1       22.15244329204965      55.226894996672719     0.11623809476947378
   282   1      23.811157682254088      2.7366619871235072    0.097983528971686704
   283   1      23.985225270224273     0.67649805152626297      2.5943886111649679
   284   1      22.735631510379733      3.8527532760043193      2.4991668065728976
   285   1      22.547240098686409      5.8932246746763566     0.11692718831090047
   286   1      24.009188157252762      8.5051796014983108     0.21416968306170125
   287   1      24.056635092371362      6.7781754810455803      2.5897696918989941
   288   1      22.577170361001357      9.5803282955491156       2.690028664580228
   289   1      22.182675908975259      11.157245189612755    0.098450705599033447
   290   1      23.774602731324396      13.752100591418653     0.15872645538203103
   291   1      24.533181096999257       12.00738176805341      2.7168827216545481
   292   1      22.628463127015987      14.604576865061471      2.7281505343062094
   293   1      22.458255080522164       16.56497721023516        0.32159523509297
   294   1      24.078161690137826      19.130649772377808    0.047922257605077255
   295   1      23.819594796728957      17.470369617361364      2.6120278961400958
   296   1      22.765583839955902      20.403858067585134      2.5860761463671813
   297   1      22.288340441438837      22.334262744918295     0.14480029556259127
   298   1      23.663894203033216      24.917865540158779    0.030047677570451289
   299   1       24.11891914930855      22.994802591141958      2.4724478680039761
   300   1      22.461012288939358      25.888532870961402      2.8177596932239264
   301   1      22.623661495292335      27.563314364775849     0.10029616569255885
   302   1      23.998358394256119      30.579731285657655    0.013427332207159439
   303   1       23.91451161330405      28.940355738427016      2.6595481124036766
   304   1      22.342365994451878      31.237582600711729      2.8737169616841265
   305   1      22.362930499328154      33.193420480121901       52.05206833098903
   306   1      23.803822316055985      35.872662994631355      52.020116613776594
   307   1       24.00735104605301      33.930422764527201      2.4778784617384941
   308   1      22.533012606617476      36.600804157044848      2.7223445060536862
   309   1      22.423838078339944      38.934274075934304     0.34018089575433025
   310   1      24.059569973639409      41.852184714501789    0.060925143048731541
   311   1      24.060657808683988       39.98007549073742      3.1215152112505571
   312   1      22.822705116111138      42.656761541723917      2.8928995808657256
   313   1      22.209908285976081      44.391897703594147      51.883638492314645
   314   1      24.052034614341832      47.223375905113706    0.083355963839655198
   315   1      24.083106446795838      45.446247276122357      2.7781422527023212
   316   1      22.512234250719064      47.906606630805591      2.4234239870390133
   317   1      22.072450623271813      49.495187762943715      51.935843653877207
   318   1      23.696480864511418      52.571846007594139     0.05002587503339901
   319   1      24.009642318496915      50.774061623615864      2.6941305043921417
   320   1      22.337443177101687      53.416615983958977       2.635223370459757
   321   1      25.239675318536989       55.30987944157296     0.29486813641883453
   322   1      26.846295718818023      2.4699446355785928     0.14172341045127729
   323   1      27.600804846240056     0.36003894109308354       2.283613014730002
   324   1      25.619934149641921      3.3783366448173715      2.7616473404314585
   325   1      25.672318370397683      5.2728182756952613      0.2346990506180433
   326   1      27.014556943825973      8.4160144757922026     0.29466922067445106
   327   1      27.160608676006607      6.6014850155771772      2.6227546250595606
   328   1      25.502952477175189      9.5085427667476594      2.5265104885573164
   329   1      25.676180287559124       11.36970584860434      51.969586820481702
   330   1      27.332294177312601       13.78458884254372      52.042613708329924
   331   1      27.395003769256817      11.889448523372131      2.6626286598146587
   332   1      26.051132641153387      14.864877584230783      2.6257482853830352
   333   1      25.506427864683232      16.320377031343007     0.25413074845696548
   334   1      27.627227575736743      19.468752643213694      51.930329782718296
   335   1      27.059710306141753      17.921406757560334      2.3991535902549348
   336   1      26.039246394291528       20.75322454088532      2.7827260641272176
   337   1      25.746279503875108      22.415574597159917     0.10435916064190381
   338   1      27.225253605407321      25.129633535039602     0.13561955022055236
   339   1      27.561751744889794      23.510569014309866      2.7633396632864211
   340   1      25.798631234679942      25.956261468797948      2.8414714380723121
   341   1      25.738088654937702      27.928002765291659    0.021301053974173728
   342   1      27.139758586085218      30.555436180972713      51.664719413841368
   343   1      27.304154591133575      28.544257387471347      2.5817145530253636
   344   1      25.518349408121598      31.197367445492478      2.8454338686703129
   345   1      25.597529997670847      33.296608912797851    0.015448818318036614
   346   1      26.979144936543868      36.128639322639962      0.0574293092016658
   347   1      27.378909278744505      34.243178508613617      2.6108158189828954
   348   1      25.595013227436365      36.979062454007568      2.6582829232337368
   349   1      25.500811435419632      39.184027851904922      52.114945786257429
   350   1      27.265422550233943      41.601183652352873      52.033330394348752
   351   1      27.235520901697249      40.084101141659957      2.5585636160991525
   352   1       25.47989093841446      42.716799256004037      2.6185744360289553
   353   1      25.695805311110217      44.393050639914485      52.126988028829125
   354   1      27.190992370440696       47.03971755210042     0.11730458767259846
   355   1      27.286082687834085      45.527438809392223      2.6329525964135678
   356   1      25.907204754911671      48.191191701317436      2.7740305013917861
   357   1      25.676225256406369       49.98673513774979   0.0026959290964565286
   358   1      26.909328718925689      52.889891026777065    0.058189604441547291
   359   1      27.069252537222855      50.629198916671754      2.4472014586893831