dump/Mg_700_0/steps_1 (written by ASE) 

4000 	 atoms 
1  atom types
0.0      32.100000000000001  xlo xhi
0.0      55.598830921999998  ylo yhi
0.0      52.130399999999995  zlo zhi


Atoms 

     1   1      32.050072659943993      55.255295397967956    0.077281907486820178
     2   1      1.7805840909559423      2.5102623427873083      52.091805123341494
     3   1      1.6096692380663977      1.0306341573419493      2.6804610916753751
     4   1      32.030250915256396      3.6922510363760166      2.3977723431274431
     5   1     0.15334601919585478      5.3554284217611494      52.056234543705528
     6   1      1.6506993865100437      8.3192275582184259      52.008821277353057
     7   1      1.6763551748529295      6.5094310452736339       2.820366490644624
     8   1     0.31459457010146319      9.5527262233909962      2.3837131800204108
     9   1    0.076823029748087981       11.24658150189177      51.885359646582238
    10   1      1.7832513754731774      13.937955663082553      52.013673757682469
    11   1      1.7579534586366452      12.345405470543703      2.6961673493337743
    12   1      31.925952098476813      14.794970180946265      2.8549284968100825
    13   1       31.82517092872585      16.678926870928553      52.102591624232311
    14   1      1.4486447002070459      19.208687178047747    0.061854265971571711
    15   1      1.5889333761226472      17.322117831431232      2.5001583377907397
    16   1      32.048183930373497      20.210597908002761      2.5573146602802606
    17   1    0.085253237705093438      21.824186477959046     0.34351783530970481
    18   1       2.152854836723602       24.81504606252393    0.042195644738070401
    19   1      1.7353666742857641      23.297266196166625       2.364269022341638
    20   1     0.08353246919594029      25.644921097108444      2.4355458013442748
    21   1     0.32538304798981083      27.544508347421978       52.04107502660576
    22   1      1.6441203994804434      30.572246486836622      51.990933147048501
    23   1      1.7835017699115536      28.751887049358789      2.5160491976563146
    24   1    0.041447059312670093      31.439841937191986       2.571637975939165
    25   1      32.076397643018396      33.371944737772431     0.10528040924323462
    26   1      1.8770400142299364      36.214435311873387      52.113788725366696
    27   1      1.7058953100789633      34.290659596207426      2.5257655067153313
    28   1     0.17944831889294866       37.43735051618058      2.7096032199787015
    29   1      32.091342802017799      38.988579285350013      51.854219951951471
    30   1      1.4541039253354653      41.856005386061845      52.040275702845761
    31   1      1.8076321033156573      40.085777425574811      2.4792040121764023
    32   1    0.054405901306759465      42.673927993251354      2.7228507815254881
    33   1      31.968071651118763      44.894919855152558      51.963033477226787
    34   1      1.8586652641176817      47.683246486553664      0.4039400005855418
    35   1       1.760196152897247      45.600373481223379      2.5845314833711033
    36   1      32.073125212545996      47.922225061459862      2.9598355043979065
    37   1      31.698271760731899      50.030460038428529      52.114033842191063
    38   1      1.8615402599802473      52.801300363329823    0.060375193751525759
    39   1      1.1868872104635262      51.020877756753826      2.4942979087637207
    40   1       32.08123737505386      53.836906729557214      2.7305394023313938
    41   1      3.2007443688337114      55.454209903146271      52.047521801292788
    42   1      5.0009172035643497      2.5634500607360109    0.072342567038617522
    43   1      4.5685186772103021     0.84470489055604869      2.5941728543028262
    44   1      3.1393746187015941      3.6615616871779784      2.8061042479422889
    45   1      3.1154863957827517      5.4700138328196024     0.19641721592344921
    46   1      4.7180681513127993      8.2707174533064585    0.045266892542006623
    47   1      4.8553856731797111      6.6512707152182307      2.6401131733042926
    48   1      3.3952709474538842      9.3692805043345846      2.6291165764137725
    49   1      3.5429130682233798      11.340500239001827     0.21660053760255529
    50   1      4.8546978982297286      14.145766578674264      52.092573566569783
    51   1      4.9819976517914615      12.302083020584613      2.5362995587771957
    52   1      3.2377882144568759      15.084677645956925      2.5653456812758275
    53   1      3.3772827735314883      16.834873736382107      52.062367417352938
    54   1      4.6600755705152928      19.467484585497711      51.949037660233465
    55   1      4.9462679530852585      17.871575950532602      2.3240097079827198
    56   1      2.9650183670127843      20.598716169618367      2.5605545792946374
    57   1       3.142443516826031      22.203404625800633     0.07336174392542065
    58   1      5.0643274259091209      24.953203893406229      51.686847429403699
    59   1      4.7104757766317675      23.254177555276005      2.6199502939636856
    60   1      3.1405708959899163      25.928751219628449      2.4787241357080312
    61   1      3.4304846722133897      27.795809740078724      52.076154697785249
    62   1      4.8913577271949453        30.3102865987576      51.945503803564606
    63   1      4.8933711966958384      28.921659759432973       2.571445270728991
    64   1      3.0635315880788099      31.291449427260893      2.4288188806814244
    65   1      3.4106758882399797      32.970467971113045       51.96177134922754
    66   1      4.6496920871648317       36.41683610108602    0.051330479975463826
    67   1      4.5998297595756732       34.17530675277272      2.4536458614120016
    68   1       3.383578933948248      37.364006258326064      2.5665100845603441
    69   1      3.1897398845529032       39.21711706833797      51.960381044959625
    70   1      4.7683039841545876      41.960879588859463      52.085204849357638
    71   1      4.9510865000600477      39.856324478852613      2.6274760949865068
    72   1      3.2486132398560277      42.675286611308302       2.517088095781677
    73   1      3.1691005019779865      44.586983906514767    0.038498340286205419
    74   1      4.8130932857984225      47.364500873627009      52.125206940677138
    75   1      4.8165861831238432      45.616703977815668      2.6012100633522657
    76   1      2.9999687778883799      48.270308460404863      3.1922056886125647
    77   1      3.1885186301705764      50.163372403139348     0.24023755358978821
    78   1      5.1524280736357824      52.896779284446396     0.14892369551184734
    79   1      4.8177432242883969      51.081477184045603      2.9739015836056342
    80   1      3.2781452088021688      53.699580966663312      2.5039116490384079
    81   1      7.1491214039587696      55.469756567704181    0.016988149768807463
    82   1      7.8591895099589193      2.9568081601617853    0.037514140335059822
    83   1      7.6026158705123983     0.82325470953796676      2.7670063524577566
    84   1      6.3603104822148495      3.7376035857302141       2.727274435250679
    85   1      6.2905887470790249      5.7573525408083395      51.981557194524314
    86   1      7.8860702323139149      8.6217443910072689     0.39026356744912261
    87   1      8.0157115484409065      6.7123556353809075      2.7101055197494541
    88   1      6.3688387398147661      9.6193046021480715      2.6571369272619338
    89   1      6.4727723571854749       11.48473085967958       51.83054402660018
    90   1      8.2723386048098835      14.027430424954455      52.078364012016984
    91   1      8.3554559683777665      11.974761825341046      2.6341939425724612
    92   1      6.1939892709482161      15.166243497298648      2.4930264974731826
    93   1      6.5648972906995988      16.699679158541741      52.054676786634957
    94   1      8.1656221803419342      19.546145428165357      51.925890079755952
    95   1      8.0211387899215438      17.681887747733569      2.5953303504298058
    96   1      6.5810279618610981      20.567809011396047      2.5192324483307509
    97   1      6.2465706210108314        22.1283685888591     0.18255798909919063
    98   1      8.2790824514116608      25.219414070952485      52.041060682902469
    99   1      8.2081817959775485      23.335170662196656      2.6468250332947063
   100   1      6.4683908712948908      25.794190775411174      2.4441104919878747
   101   1      6.4877155092992025      27.630781596738746      51.975560878630766
   102   1      8.1300978522311986      30.695696408857668      51.997188368443304
   103   1      8.1350205548130603      28.883381960714438      2.4141809651371151
   104   1      6.2889627214587449      31.491157817616923      2.1552178394688788
   105   1      6.2850736358577413      33.112178307920544    0.016093306891601721
   106   1      7.6321075285362436      36.125247674441212      52.046345863099866
   107   1      7.8537527600814938      34.533507751846201      2.7034642022721149
   108   1      6.6955975385610111      37.021744446346894      2.8884346200967896
   109   1      6.4564664469558091      39.002325426785816    0.062456953239779969
   110   1      8.0585816261505911      41.840287501958336    0.060872439238307346
   111   1      8.1252525035689604      40.091142522642365       2.985476054554959
   112   1      6.3433118088771092      42.960635195537918      2.5330204275317945
   113   1      6.4765120695196314      44.579133416047036      51.990665473189367
   114   1      7.9174525801953921      47.407003301599197    0.030930832118901228
   115   1      8.1072680311505305      45.494077949134699       2.500530512776757
   116   1      6.4131985325457297       48.33466669772875      2.5708636993565142
   117   1      6.2716391177855453      50.139861721226367    0.057285251689572332
   118   1      8.1578358799848303      52.948270356976437     0.43605822963787916
   119   1       8.002792256899852      50.961946730859559       2.756756665834327
   120   1      6.5133437107682921      53.580394750908653       2.581359687336009
   121   1      9.8137162075101489    0.077291681879234325     0.24433268145254608
   122   1      11.132847892188945      2.6162844178762223     0.10742363695866057
   123   1      11.162553340593728      1.1219238597738426       2.713733948373616
   124   1      9.3787277906867104      3.1968806678794048      2.7704096250764882
   125   1      9.3741670555074563      5.8525858756366445      52.059614375227476
   126   1      11.322013385152321       8.295009660580881      52.041644457750785
   127   1      11.179620008905978      6.2619470498474197      2.8164874318837856
   128   1       9.811317417308052      9.0827724831389034      2.7083009753998475
   129   1      10.156507891400175      11.180909646980354     0.07500242850264062
   130   1      11.159761050334915      13.673493522144044     0.16116048031377908
   131   1      11.426295302075525      12.035906617498163       2.810355921266571
   132   1       9.928086580453515      14.728246167471475      2.6872660226832732
   133   1        9.78778462012842      16.727701710559309   0.0038244930448022374
   134   1      11.461098099231787      19.589893906860429     0.24337306226003658
   135   1      11.354324159339484      17.667641551396223      2.6457748197562871
   136   1      9.8650226601909239      20.583132800565028      2.8588687165721698
   137   1      9.6490331527547024      22.557492898929674      52.069630057206666
   138   1      11.830360042355206      25.426661595383408      52.071331045917049
   139   1      11.349854678532035      23.266808972072717      2.6618260242150198
   140   1      9.8120043516746644       26.17516959789868      2.4090643735075106
   141   1      9.6299899219933742      28.026915626697452      51.963009587416835
   142   1      11.388810428837592      30.596582373660809      52.073410337487232
   143   1      11.268972338175866      28.729562262007697      2.5282225501993141
   144   1      9.5204902309315038      31.675383909129806      2.6794636536644436
   145   1      9.3320560014330969      33.493901816276392      52.103041787990755
   146   1      11.305292434676312      36.100155645596708      51.861760347414709
   147   1      11.517656963062905      34.568460251018472      2.3236835409840904
   148   1      9.7648612580568788      37.230135448254288      2.2171414153990883
   149   1      9.5030346934166197      39.320870390615568     0.28101779242952607
   150   1      11.473505029227695      42.075752192009723     0.26538188467757351
   151   1      11.288717375055366      39.908847184782651      2.6936859028162408
   152   1      9.5420827691774708      42.736373938433701      2.7607769622238161
   153   1      9.9774691695510729      44.667453124617701      52.045174992199691
   154   1      11.567227603095057      47.277971650840449    0.030609947516779739
   155   1      11.273444930902388      45.578798166865603       2.873258178051318
   156   1      10.141462958196682       48.20894108163656      2.2359083213625794
   157   1      9.7479580270967343      50.412907321677011      52.124706102287497
   158   1      11.342812232326638      52.920394188040561    0.039784381087445746
   159   1      11.270279852776026      51.198148727749654        2.81797112227741
   160   1      9.6057941030118812      53.900178510029647      3.0549694735197068
   161   1      12.957812398761844     0.29903547138922731      52.102879746898758
   162   1      14.285680301592523      3.2681111359838466      52.063983115111647
   163   1      14.569203280264791     0.93150790094841407      2.6662006630277646
   164   1      13.121857373148007      3.5565746956394095      2.7009015481714203
   165   1       12.70870880486869      5.7232297905343215      0.1769934883626503
   166   1      14.560500144820034      8.2950340311250859      0.3550500494338571
   167   1      14.190472060184216      6.4825333859326646      3.0000693578062028
   168   1      12.863220684329812      9.4781568481461775      3.1892799199732891
   169   1      13.341988093706052      11.094282897606655    0.084348193162457702
   170   1      14.551580810103896      13.972337953312071      52.120180627547356
   171   1      14.489052090265746      12.160153440980583      2.5974561482197669
   172   1      12.706872348485954      14.714183058663867      2.5295036129556006
   173   1      12.890386276293622      16.606629299483334    0.086809806263876896
   174   1      14.520703804229452      19.593818464356801       51.95379578736803
   175   1      14.449310852264071      17.290870365845119      2.5461782956260683
   176   1      12.765541555367408      20.305997047271504      2.8286374818688103
   177   1      13.144066627384587       22.17005154087148    0.026116000406558017
   178   1      14.674020789118147      25.004226944667831     0.22038975540521921
   179   1      14.548837622563676      23.005293293854503      2.3960435024185616
   180   1      13.155835946809958      26.280340918401901      2.6035908434160162
   181   1      13.061081182615776      28.091162681333874      52.042671001294622
   182   1      14.575954165530934      30.950527536274116      0.1781848317200232
   183   1      14.949234877402096      29.167288205572572      2.5941446784277882
   184   1      12.661911933251833      31.618628260523366      2.5913158589561802
   185   1      12.974687957490003      33.488939994970764       52.03955631631203
   186   1      14.403495027262977      36.259095331163223      52.123568066397226
   187   1      14.472750363261218      34.560581077520794      2.5835664352720804
   188   1      13.145543480948485      37.459508774670716      2.6251256020566669
   189   1      12.554172844538574      38.791957259637492      51.957498872036922
   190   1      14.338095840008368      41.546314188119979      51.966271967681237
   191   1      14.325141976392088      39.798822319881886       2.676645968970877
   192   1      12.815227954661692      42.472041999661435      2.7675941991593089
   193   1      13.088421608672348      44.554098486692837      51.999688828217849
   194   1      14.417957959229605      47.681440472804773     0.09264147795705488
   195   1       14.31062261056184      45.394171491933882      2.7862896590671653
   196   1      12.879016923444663      48.424703032086981      2.8268489663690515
   197   1      13.024453965493343      50.390831625142816     0.34853876182771537
   198   1      14.465776075254761      53.074071177043386     0.49395977592631946
   199   1      14.645985308236277       51.00036723978139      2.9565693895122753
   200   1      12.740561998873092      54.052185841276476      2.6693902871214448
   201   1       15.90174618659956      55.531230537602156      52.032065240136504
   202   1      17.013382993252314      2.7974801317275375      52.110029529962347
   203   1      17.627539536816183     0.97250521226839803      2.5228648209252609
   204   1      16.057686100536898      3.6944630222055839      2.7363039693138118
   205   1      15.666477494833087      5.6170229682929635     0.12507643277444447
   206   1      17.650794859264206      8.0102655015373259      52.070180088494588
   207   1      17.470261897903605       6.454797958411751      2.3818209724435788
   208   1       16.17437393943689      9.2705152069295558      2.8127840587494517
   209   1      16.413968709718795      10.636091865732427     0.25330343405593314
   210   1      17.630329844997586      13.892185447951606      52.014906314622046
   211   1      17.498752374303301      12.303588969250981      2.2199853816972484
   212   1      16.123260899717156      14.875765046788306      2.5643786484377147
   213   1      16.260088900618751       16.66293647078572     0.13816413121799534
   214   1      17.620401233156482      19.592067002528136    0.033727199206935531
   215   1      17.627963432813647      17.622772498407603      2.7129622144782668
   216   1      16.078755051447022      20.063963439942242      2.6241720103690236
   217   1      16.320542619220348      22.307017272058907    0.090729556401676195
   218   1       17.59997404407374      25.011536847117561    0.087266782171501675
   219   1      17.815730552912569      23.320509024802423      2.5566816144751785
   220   1      16.381108991306881      26.219802633299391      2.5955070840642183
   221   1      16.315279490940021       27.75848854940023    0.070271749703985795
   222   1      18.103407685661438      30.574787394279678    0.040878433025369039
   223   1      17.931438805424808      28.920039692869846      2.9717907702135333
   224   1      16.357445626024674      32.056924645347685      2.6183399677870227
   225   1       16.13560770493223      33.652171153751951    0.031540035019616802
   226   1      17.860746946173943       36.38332672742898      51.697576989123313
   227   1      17.663363290129706      34.518533532337877       2.290544887407461
   228   1      16.270172999945665      37.290831686163564       2.552892477469038
   229   1      15.635872075694339      39.002578710744402    0.078473836907912251
   230   1      17.549510463224514       41.69508365907479      51.823583645305035
   231   1         17.601896636206      40.082181560074169      2.5777651738722467
   232   1      15.849296995255052      42.337222942726477       2.366423883405306
   233   1      16.076553359269596      44.249961355156884     0.18890740778230064
   234   1      17.850875887838136      47.505879594309953      52.027962230387004
   235   1       17.69322826480423      45.211431563957049      2.5718454675474143
   236   1      16.103700561729791      48.169204635392347      3.1074399947400244
   237   1      16.063124016829715      50.392945704925388    0.055563221725273212
   238   1       17.80947776839924      52.861737916495258      51.901024703356036
   239   1      17.829987294578267      51.186940506008746      2.5965935875810868
   240   1      16.378063181764681      53.585583011822898      2.7947157486398893
   241   1       19.12761528923669      55.572338824630016    0.051034519130499674
   242   1       20.63071566893413      2.9164291917484411     0.14817671633094859
   243   1      21.085276582549668      1.1257323828965435      2.7662796018450471
   244   1      19.330228923249933      3.8902009093940007      2.6295374810737768
   245   1      19.692806934558003      5.7809588244498933     0.28587738667865842
   246   1      20.808896331695813      8.4873544911639307      52.005722694617553
   247   1      20.615896870215554       6.359586311297476      2.7835395776427085
   248   1      19.169630066072259      9.3555128222141466      2.6633318957051708
   249   1      19.331223523118972      11.332534945418722       52.08067944590784
   250   1      20.844405085876748      14.156293214741051      51.913206124717753
   251   1       20.83504920350304      12.255122171647326      2.5210833426172652
   252   1      19.390996159991364      14.957965244835421      2.2219687488400659
   253   1      19.195580984792134      16.785936307306475      52.078495809096573
   254   1      20.912393676701136      19.436663899413503      51.838771594958324
   255   1      20.920133784084843      17.629693325225528      2.6359725895647164
   256   1      19.367310635272691       20.41562404000841      2.7063921244561304
   257   1      19.328349603394219      22.374449142780819     0.17918485699176595
   258   1      21.145618205527523       25.14971082741215     0.23882833686048888
   259   1      21.120441658740937      23.090365366247863      2.6373416426339893
   260   1      19.584148177378161      26.068348125236316      2.3938568890913103
   261   1      19.324792529749541      27.878176100434153      52.061525810928053
   262   1      20.914478918112561      30.398715591458419    0.030306373035109097
   263   1      20.894448073679907       28.82417015363049      2.6996685765518169
   264   1      19.230775401430652      31.857755702626331      2.8237344557689865
   265   1      19.347271616265175      33.587532514413851   0.0037785498226494386
   266   1       20.89692397556156       35.99999701511269      51.763779097280754
   267   1      20.764719860516603      34.707397535949561      2.7867994476498339
   268   1      19.439404512005986      37.278709818553239      2.4654509302938741
   269   1      19.171425745124203      39.250961580523558        51.8960649566027
   270   1      20.938652374950944       41.52824331075243      51.973346328036911
   271   1      20.683774382963769      39.878043804188835      2.7251877890454503
   272   1      19.141673820279298      42.451391546001076      2.3497134225250034
   273   1      19.696705308595011      44.274521260468184      52.093094775471201
   274   1      21.090193680846824      47.062350338673859      52.110680352478461
   275   1         20.967852754433      45.186008968799889      2.7741562236519686
   276   1      19.106133529356981       48.22314206843582      2.3131689557403359
   277   1      19.329802677853671      50.288214748061449      52.076608845248529
   278   1      21.061402028623153      52.943640289640548      52.011134640691466
   279   1       20.89255854029317       50.93483998057814      2.4943011707789289
   280   1       19.36641013690879      53.882257396933646      2.6284067483376314
   281   1      22.244934645535302     0.24656734209389672      52.020848177350487
   282   1      23.848530603845973      2.6864314268643472      51.827988353472087
   283   1      23.967221056397868     0.85724271320992551      2.2266241896877577
   284   1      22.564081548459786      3.6893473412388391      2.3577230962052886
   285   1      22.492463827584348      5.6741083878715184      51.915514456977569
   286   1      23.807852556199151      8.4820592444710439     0.10720390128404134
   287   1      23.739105723615754      6.5867389609738378      2.7655656106232396
   288   1      22.334036486709945       9.516955855507053       2.763056556342899
   289   1      22.611673657197997      11.089596637469194      51.830341935027306
   290   1      23.961925562616607       13.76895708760877      51.751152377482747
   291   1      24.172048201087964      12.299985855505556      2.3535642429569217
   292   1      22.515179387784855      15.066936068032016      2.5438921486498804
   293   1      22.563328767117291      16.762299105757567    0.053245389236131042
   294   1      24.068861312332331      19.611204689657946      52.051389313944085
   295   1      23.887376261092612      17.571899538603947      2.5001402867105096
   296   1       22.51062252722733      20.456850870811653      2.5256522724638417
   297   1      22.497230689536718      22.184052323334477      52.103217048628018
   298   1      24.017519984775401      25.237844192485788     0.31267015189371922
   299   1      24.294087330734069      23.244557386438981      2.7538002639630355
   300   1      22.687433542602029      25.614238993418319      2.9896936839528938
   301   1       22.25865005354812      28.009089304079875      52.094931684100438
   302   1      24.598952099530131      30.299621218704051   0.0033655281783911951
   303   1      24.013698639665339      28.535052372692824       2.721423211954308
   304   1      22.106953280639271      31.501762181822489      2.6581660166015362
   305   1      22.915120667784787      33.134682911998986      0.2297657197409953
   306   1      24.362868308900723      36.184391244460315      52.098665325765253
   307   1      24.102461439171169      34.530203740529636      2.7226078576395607
   308   1      22.481880595939973      37.368592517634461      3.0429708144470231
   309   1      22.159957824378793      38.886994569365307    0.099147235063928613
   310   1      24.080890747652731      42.110954857410277     0.28963417516977419
   311   1      23.882520868823928      39.772541860087031      2.7056889176471497
   312   1      22.254885589518235      42.604902975357554      2.7151285607859346
   313   1      22.594678539718785       44.54188541024714    0.054663479560903651
   314   1      24.182765394903281      47.277551294869745      0.3555988826627684
   315   1      24.435746391533296      45.361773002952091      2.8868724993027239
   316   1      22.471633529610767      48.215599136310651      2.5254571663173606
   317   1       22.52373869021601      50.135498172525345     0.18740575146690766
   318   1      24.220747984668805      52.980164179341763    0.043224824943390659
   319   1      23.906868985630116      50.975027655961348      2.7049017620819411
   320   1      22.751274895465485      53.661011725318012      2.4976696662160389
   321   1      25.629950515532091     0.20540096339422123      51.841849315077667
   322   1      27.079477616572795      3.0305997804858706    0.038297415243149113
   323   1      27.481229490456748       1.230019979871376      2.5679352794142334
   324   1      25.741355590939719      4.0242225951648329      2.8327018516391975
   325   1      25.707756813337671      5.5235371105882525      52.109280060701082
   326   1      27.512094939497263      8.2856235209045135     0.15072658161546804
   327   1      27.348421539435545      6.7426993038434828      2.5967761301910421
   328   1      25.664698020804096      9.2477061952841719      2.8837421437770687
   329   1      25.701484118915008      10.771962758102351     0.14644415109965286
   330   1      27.346202074534407      13.746932588782336     0.02979977901176591
   331   1      27.296445994051751      12.002379883011656      2.7530650119475117
   332   1      25.694399231867575      14.976742915100221      2.5557026765510211
   333   1      25.856471502194101       16.74085407221644      52.053698715796259
   334   1      27.265415734336681      19.169607248971989    0.083644798742915916
   335   1      27.034610958203043       17.60459066587817      3.0263637259839906
   336   1      25.581512954019718      20.282092955427785      2.6525952098008814
   337   1      25.712540304538127      22.807788244604016    0.016390038447575878
   338   1      27.634159810410758      25.264853723171349    0.092518507193969174
   339   1      27.238146441448965      23.029951244094679      2.7226330635296687
   340   1      26.097237984875083      25.940191054705462      2.5815457322705355
   341   1      25.954551375883273      27.832769544030139     0.26634769721732715
   342   1      27.671722867751054       30.42140077036856      52.128124819265857
   343   1       27.72758694217023      28.456440202140413       2.546726333199159
   344   1       25.62245855907376      31.326103006297746      2.7694426771656993
   345   1      26.112631944022812      33.371282694071638     0.14020520384531543
   346   1      27.674573036179336      36.041736532913959     0.32850586459038655
   347   1       27.27670470631114      34.214619210229522      2.7515090271732716
   348   1      25.688597447909483      37.087396142040816       2.395061375737165
   349   1      25.553217956031432      39.085360045393145    0.041793030169741612
   350   1       27.46834898449104      41.534536044510602    0.021538570656579107
   351   1      27.186432984541991      39.827970168965322      2.4859011652554988
   352   1      25.680870291111201      42.674500661082647      2.6603801230841619
   353   1      25.703482681732812      44.437070755487468     0.23420896092494853
   354   1      27.341057569618975      47.094047518422677      0.1861165833785012
   355   1      27.643840175636953      45.465003863736918      2.5273422292661065
   356   1      25.854580067752796      48.250429604412652      2.8035656797104074
   357   1      25.614425956506931      50.210821150032942    0.062318643594674046
   358   1      27.273745872696782      52.878221157515881     0.13726864012544146
   359   1      27.139651459839968       51.32853364472885      2.8515030420932321