dump/Mg_1000_5/steps_51 (written by ASE) 

3995 	 atoms 
1  atom types
0.0      32.100000000000001  xlo xhi
0.0      55.598830921999998  ylo yhi
0.0      52.130399999999995  zlo zhi


Atoms 

     1   1      31.885241937334797      55.536600743270256      51.809025052831487
     2   1      1.5261092783285126      2.7992103717144854      51.990031134533204
     3   1      1.5662144237952578      1.0413537477303398      2.4923702799266478
     4   1      31.868838729654755      3.8238716149939438      2.7673620920925308
     5   1      32.084132729330562      5.2360572037632744      52.116952729998502
     6   1      1.9864678425709177      8.3664288550816472      51.942425903705129
     7   1       1.333801481061154      6.4917278629163127      2.1161971395960393
     8   1   0.0024540766925845846      9.4174669224389387      2.7138036061431214
     9   1     0.75419921765848164      10.927523318392828     0.37313639832015194
    10   1      1.7429215515490923      14.075349643983877      0.2200160858405566
    11   1      1.6547462492303002       12.13853914776036       2.777474137732765
    12   1      31.600423185653597      15.022008419754286      2.6626420712672325
    13   1      31.938703214977064      16.429407639242928      52.060406477029908
    14   1      1.2418472245512868      19.472369207429409      51.751160295936231
    15   1     0.76687299911719986      17.667025092009663      2.5713692134397506
    16   1       31.81862797653028      20.476641962562756      2.5135772682794921
    17   1    0.027631769461872874      22.069859071505459      52.057165081403184
    18   1       1.371060221237395      25.099476544586405    0.035148594757320996
    19   1       1.470309969959456      23.033817811277331       2.497504023811449
    20   1      31.652630325263694      26.449507311710796      2.5988716883127552
    21   1      31.846659151505087      28.017186422386466      51.960232492587458
    22   1      1.0059319315540787      30.776577942676926      52.036138098164649
    23   1      1.6220587732503999      28.908019375766322      2.4889640144880256
    24   1      31.910926097810737      31.504350067701282      2.5249718614106698
    25   1      1.7832013346204607      33.803210020880002      2.4841133608220471
    26   1      5.2370872687863814      36.678212967962487      52.015385569316344
    27   1      31.877810768342279      33.571572623535019      5.3552213800986408
    28   1      1.7927631424145172      36.086966976915278     0.18013080992602495
    29   1      30.656251429065332      41.968844250432873      4.9929706620089123
    30   1      0.3710666821986966      42.539950479981172      2.3917281797224739
    31   1      1.6740251232638603      41.600872967917503      5.1843454477510136
    32   1      2.2119934708397579      42.238211667310836      51.395296381880861
    33   1      2.1417638811175119      47.749485523520846      52.021045904284229
    34   1       3.334596664632822      48.098884111057608      2.2686682886233562
    35   1      30.518746223430153      45.458206915530994      2.5717351381303986
    36   1     0.32275709359923394      49.735644519523724      52.081028657156196
    37   1      1.6660621975208016      52.334913029593949      51.831962421332811
    38   1       1.883152285530153      50.754077421032505      2.3343424481051205
    39   1     0.93009782146563325      53.928376446856255      2.1350252809566412
    40   1      2.6249304613229296      55.283190289646889      51.974734265810632
    41   1      4.5309726161548909      2.8949997832225058    0.010769036215056817
    42   1      4.9453873642329071      1.0500321947103892      2.3074588289142723
    43   1      2.8650178593582165      3.4573458001677282      2.7239072017577182
    44   1      3.0807122918364498      5.4693177087548817      0.2183166419273635
    45   1      4.8951655702228924      7.8128955487925147      51.862215700434085
    46   1        4.18422811329149      6.3800611980133111      2.5748729042969019
    47   1      3.2870770244436667      9.2941292259389936      2.5219507362014171
    48   1      3.5586045818417458      10.874498917628026      51.823850335962995
    49   1      4.9692819524020262      13.977528001890629     0.43843676980127333
    50   1      4.5211079582672919      12.069158720867071      2.5131359185784881
    51   1      2.7743448873619854      14.957887491514381      2.6904642358332969
    52   1      3.1279744445220219      16.695692851864372      0.2385361991081574
    53   1      4.4142764261355296      19.418509233654497    0.069266865984868545
    54   1      4.6575654062128677      17.506930641796458      2.7129394905402746
    55   1      2.6866295151685575      20.365783234854071      2.7234014147513714
    56   1      3.2056650831415618      22.465845559510559     0.15013772587301344
    57   1      4.6136675542444587      25.425578939894358      52.074728110624058
    58   1      4.6377512878349423      23.202435401845623      2.8278584868651557
    59   1      2.9766718756180608       25.85923030666379      2.6602647378422764
    60   1      2.9331190361509845      27.802309235232467    0.016408314202948159
    61   1      7.8631976297610633      34.576831811114019      49.567873870254239
    62   1      4.6648233240754484      28.634659093539923      2.4973112922518754
    63   1      4.5197148502872722      30.710905700474122      51.805837596043972
    64   1      3.3578251800799173      33.578969568984633      51.989488500720334
    65   1      4.7858634178407531      34.232835842663867      2.1597682951987816
    66   1      2.9672091268691387      32.679171286273771      4.9302177271397918
    67   1      3.1608628634973504      37.734397527807495      2.2996789372004636
    68   1      1.7876988408364978      39.830660262302651      49.391727896277104
    69   1      3.5064794340595382      44.819685455190431      0.3471354791121089
    70   1       5.117235295977614      40.024397332412477      2.6447010794292352
    71   1      5.2357169992294512       41.81509031173627       51.89839669090933
    72   1      2.1749870999681846      45.496807474849511      49.955917732640337
    73   1      5.3210711172449434      47.480863112763721     0.25080875593854451
    74   1      4.9638972026061472      45.554824510988311       2.620694982981238
    75   1     0.31054482094440922      44.827527844376036      52.076194727715858
    76   1       3.813845111230393      50.079085531874405      51.566189444653297
    77   1      5.2157367769686704      52.543259769105489      51.733638833451231
    78   1      5.0019823538415773      50.560142483438248       2.262014161468421
    79   1      4.0022394957442273      53.758359160914168      2.2284170076483614
    80   1      6.4853925371012133      55.492337478569631      52.084779125258741
    81   1      7.9600640738637924      2.5872181294493761     0.36203819868323395
    82   1      8.6201608585051162     0.55665572780898909      2.8287196354285609
    83   1      6.2276739164559567      4.0825782400765922      2.4242190894606592
    84   1      6.3683360751186724      5.3693785844638162      51.776781382579216
    85   1      8.3538694683840085      8.5553373833730166     0.11469036274411909
    86   1      6.1606480132741659      6.0173359075961583      4.6238223400921044
    87   1      6.2314465310224945      8.9078950000359143      3.0218500923528824
    88   1      6.6547963931244531      10.637553300666852     0.38762294124142338
    89   1      7.7252884198840714      13.645380341008387     0.34317078873613494
    90   1      7.7281316319115634      11.827948147317461       2.964942478823096
    91   1      6.1397027263974957      14.732171056142732       2.803338787904285
    92   1      6.1333463096081271      16.687185444137004     0.42784581045914177
    93   1      7.3430919766186333       19.59542654832287     0.32716879796601039
    94   1      7.5707567195795793      17.634248399602125      2.9342309489709231
    95   1      5.9234103134560492      20.757849169523436      2.5593830189955633
    96   1      6.3140426533543295      22.369191567930216      52.075342071967704
    97   1      7.6742878926785831      25.138851142403016      51.837474742831823
    98   1      7.7884055909800232      22.867117640043951      2.6267023867294412
    99   1      5.9170359319836692      25.989803785153441      2.8579507847709857
   100   1      6.1153701786200365      27.932873293821032      52.070769027659033
   101   1      7.9933120345824653      30.760593732604573     0.67719679270563959
   102   1      7.5376720050893526      28.566609707494617      2.7810821022383903
   103   1      5.9862083909135793      31.465497621333185      2.3667410168748453
   104   1      9.8905360991624622      33.306310135023864     0.36211375414859537
   105   1      8.3409782157248689      36.207775098443911    0.054638541017028301
   106   1      7.6579078719562581      34.011645399205122      2.5038779959259134
   107   1       6.157405998122397      37.085031022095841      2.4863176724640659
   108   1      6.5476334521712927       39.19627137293331      52.030275210230876
   109   1      8.2615291914725795      41.741579662650992    0.022134520698938023
   110   1      8.0523996037769532      39.915343315111222      2.5285396723195341
   111   1      6.4437854831250601      42.761879213968051      2.6306354454291467
   112   1      6.7755049785908135      44.528833053767727       51.88453568595704
   113   1      8.2344432647681831      47.296213300183247      52.122252912806026
   114   1       8.105855041025416      45.574451092449834      2.6091255833546909
   115   1      6.9122561669754097      48.121291913355122      2.6520142989650286
   116   1      7.2663860646533776      49.919312268804376     0.12759145348665782
   117   1      8.1404566165074801      52.767611717398665     0.12608222938227462
   118   1      8.5288901959498631      50.985936893669354      2.6847292352997134
   119   1      6.9225288056327434      53.430335217457042      2.4149545299067139
   120   1      11.374196057690254     0.86789528841799979      49.349425911430394
   121   1      12.875548120417793      5.4425491155834207     0.05398517727745647
   122   1      9.5977864257037311      55.434566328823834      51.949862068928809
   123   1      11.260362293837757      2.4567399566321884      52.041575756160391
   124   1      14.338944604674852      6.6031835173299065      2.4461006286265539
   125   1       11.54152245699891       7.999720862764514     0.86004962961588727
   126   1      11.697646990768941     0.94376800618174916      2.9119387214159849
   127   1       9.601507113456611      9.3602552224119027      2.5446822945754679
   128   1      9.3636737987808818      11.081312431384834    0.046789295553376652
   129   1      11.023315001108006      13.867499832503595    0.032563548705642077
   130   1       12.63292951658836       11.91547987858953      5.1644350612231484
   131   1      9.3111511848712709      14.816488790784966      2.4544126144057947
   132   1      9.2412471722985003      16.963944471580518    0.035923359923953672
   133   1      10.737790217395277      19.628635366278953     0.25159167463785403
   134   1      10.748367018633958      17.266134407951665      2.5611145398400668
   135   1      9.2382804038969528       20.07333007269445      2.7806095372005806
   136   1      9.5548965783254882      22.039450486102098      51.730362093819679
   137   1      11.046187945892999      25.144705734947181      51.915032098094819
   138   1      10.882998819892499       22.59756852157232      2.7796510974251527
   139   1      8.5235370211733752      25.917537596350126      2.3429044455687777
   140   1      9.3120192876928574      27.710535629239182     0.32519267127157864
   141   1      12.193698814205526      31.443097277853514      49.621792237989311
   142   1      11.238165252412601       28.05309655029038      2.3268879010765513
   143   1      9.5598746023914369      31.281387980984885      2.8081611784446876
   144   1      11.201564539709107       30.18900228885299     0.27098915249662825
   145   1      11.604139943496063      36.014208603705534     0.32008825239428396
   146   1      11.040056726264611      34.365202564733025      2.7794818722135766
   147   1      9.6648809522266106      37.098649654985209      2.6033846199392325
   148   1      9.7490837451563355      38.966323536984326   0.0038186393238780528
   149   1      11.505979266761257      41.711129399019718    0.071823420490260942
   150   1      11.237181321542375      39.906361088484367      2.4846474741012532
   151   1      9.7558067296938749      42.729268878184527      2.7698906288311247
   152   1      9.8125878225329544      44.414675093486011     0.20088075837053507
   153   1      11.326269871778885      47.072443207931457     0.14257062730076428
   154   1       11.30030039564533      45.631147081050713      2.8104098402844544
   155   1      9.7792240099024994      48.093923086413604      2.7476562844087318
   156   1      10.243367371941243      50.190625913282283      52.119731551223119
   157   1      11.576493848874611      52.992783642257059      52.096496854552861
   158   1      11.486330761724551      51.155640232173596      2.6319807817345398
   159   1      10.105787658558199      53.847948471607047      2.3678014263265639
   160   1      12.784774549172997      55.151894841295501      51.799837799481431
   161   1      14.801754995980511      2.3565257146251324   0.0033639765745748225
   162   1      15.039729695895543     0.85890426699101219      2.6427282114370727
   163   1      10.890538840793543      6.0358256844765537      2.8026691193040314
   164   1      9.5259059323250739      5.6992784771295266      52.010911270571931
   165   1      14.343889023337569      8.6639531878956078     0.22974666708730498
   166   1      12.782039360352881      5.3569282277761463      5.2694007171369419
   167   1      9.6231885136278397      3.3779277971141255      2.5372476555070294
   168   1      12.416554756755797      11.114421706407313      51.946302747261498
   169   1       14.50658773165142      14.094915249905517      51.958947819480613
   170   1       10.86013949664005      11.971130149003306      2.9867754203405497
   171   1      12.425255809266126      14.605555479835408      2.6171743936848331
   172   1      12.708313627955075      16.562517953192216      52.103397166989609
   173   1      13.685287012030649      19.480847671549686      51.794627481812377
   174   1      14.400438188724813      17.341792194292029      2.5571619326486004
   175   1      12.616674134074524      19.669189756623751      2.8870746665249287
   176   1      12.553574613591463      22.475799319594046    0.033606824416675493
   177   1      14.333325557033618      24.911914376254096       51.63820736702592
   178   1      14.460840788956396        22.9912412663721      2.4249690554163772
   179   1      12.538244882915787      25.659740852606109      2.7991629799382318
   180   1      12.980967872920324      27.572834458229341       51.88300313247116
   181   1      14.230459493061018       30.85952221809633      52.010456741875046
   182   1      13.832622985853257      28.972095321532219      2.4655190414734189
   183   1      12.471618437883301      31.528488482303011      2.5864453440549151
   184   1       12.79492375351966      33.139147229171627      52.086441137166965
   185   1      14.761685371401066      35.989459439737622      51.940860178489999
   186   1      13.902158442097328      34.360205610957074      2.2964710170826432
   187   1       13.09662613416355      36.966807083316063      2.5460486793325607
   188   1      13.147786495709378      39.012634768175282     0.33409519141469923
   189   1      16.360079607764519      44.592856141236069      51.970030318218711
   190   1      14.813925176032278      40.006442457782796      2.3803194510103123
   191   1       16.32056755770062      42.816069978117369      2.2859657082731601
   192   1      12.843652563481257      44.463454231898837      52.123221574698952
   193   1      16.296434185233043      48.303382037164631      2.3911183391260167
   194   1      13.010647088490616      42.846224217051692      2.4869888626916943
   195   1       13.11268307613077      48.471765066748141      2.4927445000728334
   196   1      14.453489882198134       47.07157861684189      51.865585911462382
   197   1      13.353835625895753      49.922265761048926     0.16069215454804309
   198   1      14.586535465323895      51.275843698854217      2.5197379695791753
   199   1      13.195111341283617      53.930966614867167      2.4304628716814154
   200   1      16.211772709466526      55.530975858302156      52.004596253067007
   201   1      17.750836917659417      2.8630910718677245    0.017921130359716587
   202   1      17.969798124115982       1.148814564713885      2.5716108015249755
   203   1      16.191835485175442      3.7424323980685719      2.3425498697228044
   204   1      15.817728671436067      5.2333117323510265   0.0072979166930665874
   205   1      17.362543154620091      8.6844347026223012     0.17443343184680019
   206   1      17.652542052337246      6.7012850894717344      2.5604077243843921
   207   1      16.296022468020485      9.4749994861519813       2.593354330620528
   208   1      15.708445694502851      11.327962367348672      52.003145500526543
   209   1      17.306376370395597      14.005424674031229      51.717021680664821
   210   1      21.278183474827451       11.42464419767593      1.9323523130796918
   211   1      13.898584658134272      11.158139682683872      2.6264681286307763
   212   1      15.968082857249138      16.858899792155867      52.037495240277636
   213   1      17.597233618925376      19.403524435107624      52.022860914539564
   214   1      17.553531847412174      17.785848457582297      2.9394854578138392
   215   1      16.037633632260629      20.095534145350392      2.5799750562132555
   216   1      16.079068691117381      22.027556237325499    0.051241059754236803
   217   1      17.752130508126779      24.390103252937656    0.058260492649724924
   218   1      17.495199787414588      22.889326360930397      2.6373109166575448
   219   1      15.695750526276726      25.732624793897589      2.5445288994434998
   220   1      15.600514611454029      27.839356187786255    0.032868870811450339
   221   1      17.617362593177095      30.426574677714029     0.12150731875567319
   222   1      17.452085107835678      28.646157411508547      2.5669550788169544
   223   1      15.855786717664866      31.487407516498887      2.3848215208411303
   224   1      16.490665492560364      33.214772206417408      51.798070155576525
   225   1      17.897278063594701      35.941857376226622      52.055918146362679
   226   1      17.389135422531922      33.869811319753559      2.3401541201842155
   227   1      16.233357248412133      36.673378197649143      2.5367542793754585
   228   1      16.012790728119413      38.790073642561467    0.020799084685087493
   229   1      17.672347220318205      42.053034234307198      51.653434802947494
   230   1      17.791227875124239       40.04297616577589      2.3651728716399396
   231   1      14.652981211809619      42.067931776632783      52.047469487380575
   232   1      17.978018935378707      47.143476127836841      52.064069540803175
   233   1      16.291751413001688      48.498241690929952      49.627686100734209
   234   1      17.722542947082886      45.478290620114102      2.5888281464083143
   235   1      14.814697083743631      45.329342606286616      2.3625465511108517
   236   1      16.352622657631866       50.28753294754781     0.18562683644686617
   237   1      17.698699149922675      52.692197531599284      52.008583822780786
   238   1      18.029865876041729      51.028794618723957      2.5396939832253094
   239   1      16.507779326258458      53.863719603884796      2.4609832514950147
   240   1      18.865371594470947      55.457468327753055     0.07009371554363697
   241   1      21.046427454123982      2.2002185986055713     0.16762099499411359
   242   1      20.795864434016426     0.76051584219992763       2.663724731553081
   243   1      19.458039516151999      3.5630992436357278      2.7220640155888209
   244   1      19.480824086177726      5.5884361722479969     0.52551919865065988
   245   1      17.672332463397009      12.374623223969254      2.5660526503652132
   246   1      19.288483548055858      9.1255730782303814      2.7812940251208431
   247   1      19.158667533558901      11.250215802332532      5.0099420936712349
   248   1      22.839271337103686      10.678562712233939      51.873587175767177
   249   1      20.574113677574207      14.289708974710555    0.017602167195307342
   250   1      22.742926845691862      9.0722816644766073      3.0300145968932424
   251   1      15.891975818840915      15.109820147342734      2.4173369519540198
   252   1      19.139169191478636      15.070148349535716       2.215227290071542
   253   1      20.761767830661789      19.471011206724107      51.727281273444106
   254   1      20.756990323354806      17.623874067153515      2.2689029594225816
   255   1      19.393378235838892      20.012611313325024      2.2793473367835024
   256   1      18.965784894972295      21.831732192335053      51.853400505234241
   257   1      20.590027866037719      24.377566800638871      51.544957501494146
   258   1       20.53594168672867      22.959311944345391      2.0321587517419402
   259   1      19.503811103489127      25.678347518825415      2.2895449476675496
   260   1      18.997683766151329      27.682837149689906       51.95159433547434
   261   1      20.491489201498357      30.312676107792157    0.097812215816246634
   262   1      20.336611910172468      28.646204315364514      2.5716995926913633
   263   1      18.814707714714253      31.422063338308579      2.8495361315897885
   264   1      19.444180856364458      33.094073301082354     0.22813947289755981
   265   1      21.248424830391563      35.551450845874591       51.99840412163789
   266   1      20.283806529835019      34.230284356618448      2.6094815778840319
   267   1      19.025882346977582      36.961489467312305      2.4845403126926624
   268   1       19.06621795381098      38.481871231493976      51.665822611880053
   269   1      20.786102788490251      41.657149955062771      52.008334868219293
   270   1      20.879844415046161      40.142303644119131      2.5618956754152622
   271   1      18.939332681141856      42.732778546643232      2.5982289599038855
   272   1      19.446896994576136      44.518920936768268    0.070995314315294586
   273   1      22.609167100209895      44.266152585375309      52.058425423157999
   274   1      20.984292123008295      45.073166583092977      2.8274578253348537
   275   1      19.181041086006761      48.033827956360184      2.6890272118064238
   276   1      19.252942879761818      49.606322070049977     0.01378695262943393
   277   1      20.726788105585044      53.126510139320921      52.084301363806667
   278   1      21.140864676823856       50.57473076228834      2.5595466109416609
   279   1      19.395479456013195      53.301110383846122      2.6339711902828897
   280   1      22.793394763276051      55.512044250996368     0.26407199228365968
   281   1      24.118973274956204      2.5055126533918695     0.36971258060856549
   282   1      24.069844425150229     0.53995142926794903      2.7831027245382347
   283   1      22.420031783646191      3.4220724466706205      2.6204920344217375
   284   1      22.419285303237853      4.9347861353499143      0.2395127221271463
   285   1      24.227006428188808      8.4060907000130651      0.4054019072749413
   286   1      24.257854249756953      6.5255247533801377      2.9029093942424478
   287   1      22.505886604052513      5.2357101760851465      5.0825660897668357
   288   1      22.374916338032563      8.4811132182317479      49.654302271096661
   289   1      24.475192517422983      13.738730214803686      51.947571304457654
   290   1       24.04447397536828      12.307384569233401      2.4255325381047292
   291   1      22.599299554958552      14.506074779358908      2.3383061727157939
   292   1      18.989171706683855      16.835976422699439      51.619135544732011
   293   1      24.717394157799944      18.841868152594667       51.80339875777176
   294   1      24.259740832303184      17.430017442111691       2.913176643071719
   295   1      22.629939825989883      20.069690615567197       2.179241326330096
   296   1      22.394414655122105      21.705788125101851      51.847235917712425
   297   1      23.708352479449537      24.993780242749878      51.559384901555255
   298   1      23.432005771613255      22.902743068466393       2.451134463670932
   299   1      22.724075048171613      25.963397327123655      1.9870620330431876
   300   1      22.271863618555582      27.812314080228028       51.60006303090271
   301   1      24.016015926723668      30.691985861994031      51.882369586955015
   302   1      23.507287241421452      29.107213839282185      2.1926034093077407
   303   1      21.726823317190583      31.720562517263488      2.5244919539998323
   304   1      26.119491781218798       33.76470784444745     0.28287349631686864
   305   1      22.550943618536582      37.434348891116201      49.282665109596621
   306   1      23.510239460213946      34.077445791262029      1.7795481161270732
   307   1      22.609821576969694      36.895133645540525        2.69220112113319
   308   1      22.202118385993863      38.639922017503828     0.14574376067745881
   309   1       23.77968184217718      41.449656392320236      51.930591777147164
   310   1      24.145720898426291      39.837215722707136      2.2960956506072483
   311   1        22.5723245584369       42.50018385535072      2.4835802617457645
   312   1      24.270819005763151      45.032530110911758      2.4932059081317872
   313   1      24.085839878783538       47.03441097617204     0.14030545290471405
   314   1      25.951728627414898      44.520543366686461    0.094306593167717764
   315   1      22.513420107773669      47.730279967168343       2.705098123197045
   316   1      22.581994915502793       49.94638421763235    0.043428496807503748
   317   1      24.197195528184213       52.89715930427738      51.696200745975297
   318   1       27.77496155499465      50.587947086045276      2.5038314155888242
   319   1      22.580692356880732      53.363007408486077      2.4703348714225837
   320   1      25.768922730906414     0.14021718658355051      52.110138856300551
   321   1      27.293452345687882       2.875986538050864     0.41066039574819868
   322   1      27.046228386742413     0.87998256244251527      2.4996199832422135
   323   1      25.563658856879638      3.5618793140178888      3.0742243754659082
   324   1      25.542091166584562      5.5278254341144129     0.23216565719225757
   325   1      27.602432644030916      8.2803448160668793    0.048446675194692486
   326   1      27.281048242739331      6.4209766511097941      2.5654333916249774
   327   1      25.948506676985044      9.0214109739737633      3.0684068397922726
   328   1      26.370977167602245      10.789905822321456     0.26499914923083673
   329   1      27.979957120998197       13.58430154681008      52.088877551984979
   330   1      27.885333127912453      12.213852548944713      2.7074454272570345
   331   1      25.715676748526523      14.688601070518352      2.4180923128334681
   332   1      25.592873211581683      16.437952247712953     0.14249425261566029
   333   1      27.398374841221475        19.3055019841389     0.18612940770058006
   334   1      27.108243999210927        17.8022003043992      2.5061674881674216
   335   1      25.560551841784125       20.35368845652685      2.3528993589297174
   336   1      25.301282422054737      22.393585575713924      52.010396809762675
   337   1      27.040985131242959      25.467182389611324      51.931618155515366
   338   1      27.220037301875433      23.444030646016731      2.4839466413991338
   339   1      25.516989626019356      25.941208278951084      2.3173605495502985
   340   1      25.061686217480723      27.688391947267071      51.751062546578943
   341   1      26.899564240699334      30.764377224514675      52.023582855619608
   342   1      26.870106064894966      28.968363977303895      2.6505175995368475
   343   1      25.610127631016407      31.744852749896392      2.4590671422640238
   344   1      24.065163916010619      36.217240207137714       51.92711189897495
   345   1       29.00195068647097      37.102632596951267      2.5238510371802469
   346   1      27.686218712836055      34.281519394890985      2.4658408512262668
   347   1      25.723836861203289       36.71349626209166       2.143078652091452
   348   1      25.899364466334049      39.119491615068021      52.016447217681673
   349   1       27.30863038232706      41.877105419813176      51.939071338446958
   350   1      27.458316754478616      39.726973866561671      2.5468497640040115
   351   1      25.755594419221293       42.31938355989454      2.3432012895690022
   352   1      24.385253971357891      45.427630923325111      49.653627634891045
   353   1      27.541425068511355       47.12960547138006     0.12448338840812916
   354   1      27.226751084951857      45.359479454386332      2.7561452889897211
   355   1      25.812616118335697      48.161455930478652       2.497880232803813
   356   1      25.710425602772816       49.74717322449213     0.11829963431265508
   357   1      27.374782519607933      53.315549049252944      51.898386221859568
   358   1       24.09312951958087       50.70533786942196       2.546037998782356
   359   1      25.645668889263941      53.464758081610448      2.4724802634453438