dump/Cu_560_20/steps_71 (written by ASE) 

1980 	 atoms 
1  atom types
0.0      25.526554800834361  xlo xhi
0.0              25.5265548  ylo yhi
0.0      36.100000000000001  zlo zhi


Atoms 

     1   1      25.520034887597284      25.483472097972346      35.928017188874243
     2   1      1.1896488312757485      1.2391746720077297      1.5466261194816415
     3   1      25.436785376860684      2.7190358728710864      36.021388326006623
     4   1      1.0996646013993725      3.6925229381150007      1.6608814314311866
     5   1      25.360133588003094      5.0980766216805087     0.12389929247525529
     6   1      1.4189343456628565      6.3484235884150699      1.7752742691692569
     7   1      0.2386460873562857      7.5329808090385768      36.054976705028189
     8   1      1.1987731687982941      8.8291314182106913      1.7759027168959847
     9   1    0.050877661573895491       10.38562008057581      35.989323308897596
    10   1      1.2279437964010511       11.47382618489319      1.8143700763411283
    11   1     0.16465057301543623      12.784648907886599      35.906773681892361
    12   1      1.2127835023935893      14.141228815609697      1.7560713571274966
    13   1      25.495987451883785      15.329922531642831      36.056704869840644
    14   1       1.380030126051542      16.766282526578483      1.8067098024358754
    15   1       25.49467004960497      17.878893252186227      36.064969572596148
    16   1       1.194048218074059      19.261093289480883      1.8860730167520061
    17   1    0.040542457322817367      20.418124861837626       35.95963324535316
    18   1      1.2799468317719374      21.736412352169431      1.6654375496043385
    19   1     0.16301584220222654      22.931390258628277      36.027437098710912
    20   1      1.3528227910550599       24.15003353762302      1.7255921898530446
    21   1      2.4655321536417767      25.430434611915057      36.067989898048019
    22   1        3.91626200280235      1.2618813761483803      1.6685775275383767
    23   1      2.6769634858652007      2.6543734959370546      36.012190989825555
    24   1      3.8620675306855872      3.7725438642057232      1.7198511994793091
    25   1      2.4413185221294293      5.0985205429070932      35.992266329740104
    26   1      3.9065368112225034      6.4154470078844428      1.7420756593714373
    27   1      2.7187733480604823      7.4693681531177267    0.007031057305084693
    28   1       3.725893248960304      8.8783032543632281      1.5695680111614376
    29   1       2.588549051212667      10.175301401075906    0.010420532517787259
    30   1       3.884418096363877       11.30224237364375      1.7523454391488695
    31   1      2.5364252183606206      12.661039997274926     0.14646787775670866
    32   1      3.9543367606140336      14.007975355702968      1.6917903841468835
    33   1      2.5107165906793525      15.388624980993951    0.037633297510785639
    34   1      3.9294843985619408      16.712373411510391      1.6390110105910951
    35   1      2.4084257339573973      18.036673229478534      35.907667240865017
    36   1      3.5652167308303611      19.164666788141229      1.5804526617945374
    37   1       2.545516544023994      20.414610381218239      36.038799633559947
    38   1      4.1078027876872296      21.650066626502806      1.7258048292203978
    39   1      2.7045389655269574      22.887770370038467      35.949452665965559
    40   1      3.9336131472492029      24.235371490764386      1.7111622280581384
    41   1      5.0969141847232562      25.435654249962653      36.020666345041185
    42   1      6.4827458194191427      1.1946776794368834      1.6209617711254407
    43   1      5.0160443343381749      2.5019062134297778   0.0067583351178768843
    44   1      6.2433462487857572      3.7702772149000672      1.9171690061699103
    45   1       5.016516804059016      5.0612656046874944     0.15835006959586068
    46   1      6.3529690795175053      6.2688710037838247      1.9481532721655856
    47   1      5.2523199037417445       7.539649855732061    0.041517923250148601
    48   1      6.2586417072197191       8.879812703740356      1.6273196483518964
    49   1      5.1307867635570705      10.187597794353405      36.079741478386246
    50   1      6.5698112322842803      11.361603770555334      1.7456981507413385
    51   1      5.2486035919187515       12.96081489961353    0.039957864992197903
    52   1      5.2333700750202965      15.346098691597689     0.16583713516889717
    53   1      6.4789842870773642      16.667337385231736      1.6553727483061367
    54   1      5.2184834312835591      17.865053038568995      35.869044790987807
    55   1      6.0655305687336627       19.18983256196719      1.7456252536733234
    56   1      4.9793510146351911      20.310290442862506      35.932658372335936
    57   1      6.4801324861439493      21.648920660153291      1.7368113685112476
    58   1      5.1571042184405833      23.006272768859045      36.029996418593008
    59   1       6.481585328242061      24.202977896401723      1.6475906050036526
    60   1      7.7006040290487023       25.52335938699909      36.051755633050895
    61   1      9.0539046784215849      1.3850894264490428      1.7925974246027063
    62   1      7.6568767519488095      2.4225334840385715      35.899313974172451
    63   1      8.8631310695326277       3.857752398418322      1.8335878761675086
    64   1      7.6412471192445155      4.9560574183774806   0.0027265248941716869
    65   1      8.7702445776363636      6.4527661914215768      1.8870813835465352
    66   1      7.7259387354745508      7.6414123777270424    0.047286409183754978
    67   1      8.9341184847487192      8.8924346644204064      1.7631524291608471
    68   1      7.5950845985907911      10.097326952910192      36.039477184776608
    69   1      9.1060200358563943      11.578816332979557      1.7681323477532149
    70   1      7.6945858090628514      12.808647668395592       0.274706506015582
    71   1      9.0929852619905081      14.169106512956759      1.8049168854250754
    72   1      7.7053729989863387      15.355110101886316      36.090177815672718
    73   1      8.8213199754039078      16.704226064501203      1.9214338935622877
    74   1      7.6775377762387489      17.941442669286456       36.08459845444677
    75   1      8.7217016533376661      19.185333995110884      1.8800137948806537
    76   1      7.5190948897513206      20.514520955895858      35.974445847487253
    77   1      8.7943066951280677      21.743990207905888      1.7090739192889706
    78   1      7.7392489749258484      23.046091974037225      35.956462034149268
    79   1      9.1386480246168134      24.358991935791757       1.617067294807409
    80   1       10.15987058878409    0.092976265764985008      36.091943124080466
    81   1      11.478566501022465      1.4693836370908298       1.930978787723735
    82   1      10.338554787836626      2.5048733031993704      36.062923340901328
    83   1      11.306612100710797      3.7710824425625709      1.9318482278380089
    84   1      10.230382988479329      5.0830688317373696      36.042316675242454
    85   1      11.404654816637816      6.3713952355135079        1.93811114494074
    86   1      10.094486757987267      7.4874370461027455    0.018898870205816827
    87   1      11.455175771701692       8.961477504605817      1.9731674318460468
    88   1      10.335214514493879      10.241335563189736    0.061893888589941187
    89   1      11.865271362975951      11.556945848440927      1.8747661482755908
    90   1      10.079105595301513      12.781722499490071      35.882529033087536
    91   1      11.531034091868943      13.961419217799838      1.6634024693200442
    92   1      10.213406500367153      15.269418219152925      36.055922415476843
    93   1      11.329614479959499      16.606401899233372      1.8150060681206004
    94   1      10.086152708076794      18.078397758611008     0.05093346099622538
    95   1      11.396743605364033      19.187392316608136      1.8097619615969389
    96   1      10.079871966398189      20.498683174433364     0.25389017454150448
    97   1       11.56052752321572      21.806491539629089      1.6910681914573504
    98   1      10.182606116326449      23.086238291663378    0.054402636347674609
    99   1      11.644597483610871      24.571062345918481      2.0219083025691149
   100   1      12.835935918146319      25.489924897475554      36.023142240000389
   101   1      14.185289878299796      1.0716380007142121      1.7924622072977623
   102   1      12.843373361338282      2.5958529734395532     0.14024107258859436
   103   1      13.912484258538171      3.8043556767986986      2.0789410393913399
   104   1      12.694411208406436      5.0803391856585396     0.10138974483203368
   105   1      13.858306909932695      6.3909042841345949      1.8707455410077847
   106   1      12.659982893911589      7.8384784757624573      36.093711608425586
   107   1      14.056221092858925      8.8456463373437515      2.0071580883997759
   108   1      12.851707902957669      10.254162882369933     0.15790236876691771
   109   1      14.286436764394701      11.426559927795275      1.8617492788260719
   110   1      12.690981733127563      12.747986027510454      36.038584420859465
   111   1      14.178229319057746      14.055724234565467      1.6640641309815232
   112   1      12.776007599362261      15.308833839858242      36.012545983247911
   113   1       13.92273823441595      16.670952444628366      1.7709769974192335
   114   1      12.547006157962306      17.898816159551775    0.015734089330555878
   115   1      14.044588174165451       19.15778009767719      1.9899732599931779
   116   1        12.6850976420473      20.318310600929177     0.18182078764062895
   117   1      14.110902964343202      21.876663705063525      1.9777415719738198
   118   1      12.777416988140558      22.964648802504886      36.027867229400933
   119   1      14.041074494138611      24.286700054192437      1.8430172807594654
   120   1      15.450494897971257    0.064203884531538261      36.002539290266967
   121   1       16.54898642767607      1.3517813379340584      1.8724288442406423
   122   1      15.321785304791531      2.4247094268199207      35.983714901789952
   123   1      16.568253065559365      3.7089700188621637      1.9001387128497884
   124   1      15.185452022737056      5.0746644765272384     0.20138130875519669
   125   1      16.417045345055612      6.1835862363140173      1.8321461592914248
   126   1      15.151154724490667      7.5095630891083553      36.025583391096269
   127   1        16.6650216794988      8.5923075571768273      1.7286863046790819
   128   1      15.456695090961748      9.9767728164846137    0.036848925888307425
   129   1      16.658523682106654       11.56368692799151      1.6554456721533699
   130   1      15.169021811128703      12.623569215894822      35.979389403945021
   131   1      16.613586166478452      14.150085126903088      1.7491493964556768
   132   1      15.353504824383455       15.31344739162617      36.056577757833665
   133   1      16.579449779010407       16.64324135637613      1.7729703799316681
   134   1       15.36188578410084      17.959632465708772    0.088403924641170292
   135   1      16.531434014570369      19.293754784806122      1.9399334604324401
   136   1      15.095724437465872      20.593133621231608      36.068682651888778
   137   1      16.699160125820192      21.778805937276992      1.7405292403790993
   138   1       15.36977923838719      23.092649496062215    0.016306745323038274
   139   1      16.599637226537975       24.29224161251658      1.9874291501800148
   140   1       17.82755450911548      25.460340721511887     0.12580437963080146
   141   1      18.978185394848659       1.173415622586248      1.8137516568018777
   142   1      17.771744988567544      2.4961546851729843      36.035736424509302
   143   1      19.004434518520096      3.8099160453916552      2.0471190730991462
   144   1      17.739061545743851      4.9283259882735351    0.030136066238469539
   145   1      18.958114920087795       6.126658699768754      1.8368738470399304
   146   1      17.800529303499708      7.4813900553648258       36.09295816856563
   147   1      19.194049340715104      8.7293718709059451      1.7764337822006486
   148   1      17.924780371515357      10.268980311947573     0.11476977818106193
   149   1      19.079916146489257      11.564351245300253      1.8581758281719201
   150   1      17.875024057593858      12.745598247192916    0.028835882208534249
   151   1      19.176106733762396      14.068969469880955      1.9210837379894758
   152   1      17.896880407681394      15.474032254653425     0.12467864467893142
   153   1      19.186084505377011       16.63228798268597      1.8527301336889985
   154   1       17.85667085975156      17.971213010965915    0.045852862222568479
   155   1        19.1009384664283      19.294080727908792      1.9255648720474712
   156   1      17.719529421421583      20.605491260845096      36.013098413335534
   157   1      19.060212206183092      21.750120521507405      2.0863673263239644
   158   1      17.992607398333973      23.137993931869143     0.12962121459643203
   159   1      19.183904457240015      24.310559450214392      2.1437505923763189
   160   1      20.423639031619036      25.418068637486375     0.11601191884309414
   161   1       21.51853672134207        1.32417433190683      1.8102451957939363
   162   1      20.255091783272658      2.5910799696844862      36.002628888331273
   163   1       21.78986322174417      3.7283812841157009      1.7158201999415621
   164   1      20.236955636289427      4.9917100524422855       36.09631455661907
   165   1      21.573393671479213      6.4989945228844723      1.7141559589200377
   166   1      20.324270464690311      7.4765189296968142      35.967489935711377
   167   1      21.673418835164764      8.8028418344238695      1.6792203151781906
   168   1      20.575687206337001      10.193683104638785      36.065201596608937
   169   1      21.620641965294404      11.521023612981622       1.917984975485342
   170   1      20.608812993378869      12.664846998659709    0.095921475648208396
   171   1      21.738452507355714      13.864294481991402      1.8414432760156743
   172   1      20.508394139752305      15.213907337462048     0.25332751490514049
   173   1      21.719527148370052      16.649144758569527      1.6474355861634187
   174   1      20.398288146293737      17.854524308522198     0.11245166894022983
   175   1      21.576298714006871      19.205737127088994      1.7738732620493449
   176   1      20.184438639173539      20.375951338170061      35.967380005963278
   177   1      21.915906992906258      21.693188124877651      1.6018939934900105
   178   1      20.475896354041311       22.94316839556652      35.999583549677197
   179   1       21.84715225909958      24.300634864991345      1.7194347583916276
   180   1      22.857232478077524     0.17330116590471648    0.076098079448934153
   181   1      24.205581691542619      1.3287960361218309       1.854075500606051
   182   1      22.956314180741924      2.7357645381292528    0.047859489855659465
   183   1      24.212706257148767      3.8151127162297662      1.8614629875327509
   184   1      22.895510837559378      5.1212936465387768    0.034504394887085253
   185   1      24.316599557047489      6.5050802927793745      1.8809285223230505
   186   1      23.163830615305926      7.4942882594999887     0.15757768508226488
   187   1      24.295571269471669      8.8403326068956023      1.6847993317566214
   188   1      23.029082794187886      10.157564169063978     0.16439763237400476
   189   1      24.342505991659475      11.448342981389716      1.8321470877977382
   190   1      23.179438101706111      12.764780262597339      36.027843592628003
   191   1      24.415295183719522      13.798560460804918      1.8609679753756512
   192   1      22.899096455294391      15.503803905123792      36.062351263159393
   193   1      24.147866563363664      16.678375197155852      1.7565134501212476
   194   1        23.1176224138419      17.986454067091014      36.018803957750229
   195   1      24.077107289123973      19.206876074186095      1.8362395015072932
   196   1      22.960767086269431      20.456596520146228      36.091416577614048
   197   1      24.427079040734085      21.753966591228103      1.7037016284424913
   198   1      23.013762310281702      23.031946523887854      35.938706517316874
   199   1      24.232394932011104      24.332004390153124      1.6357648571215015
   200   1    0.041042940420369288    0.064373563788943794      3.5381082081144544
   201   1          1.392053688709      1.2643990221858732      5.2361078988413361
   202   1      25.445713866574561      2.7333317803991886      3.6203326242804561
   203   1      1.3249808201136868      3.6708681107745482      5.4257308593760785
   204   1      25.325677655080824      5.0931247214910806      3.7769800165045253
   205   1      1.4349149046623497      6.3144958185013422      5.2796218300426094
   206   1     0.17774336508544139      7.6654028780016832      3.6692727260755209
   207   1      1.3278911444609034      9.0587554818992473      5.5225876180678393
   208   1    0.095148124277119162      10.196849901364118      3.6294485491532775
   209   1      1.3854408426063318      11.753142534914947      5.0339623191710228
   210   1       25.50790275700421       12.87360813974888       3.509488110388896
   211   1      1.6033806243504507      14.143257095696519      5.2109417650500918
   212   1     0.27934888420377912      15.582059547178083      3.4373656045660583
   213   1      1.4298101623510855       16.75573329128391      5.2424939241623001
   214   1      25.495910944030392      18.159708010102964      3.7456397617162613
   215   1     0.26412260299716039      18.335268206416711      7.1736520189934909
   216   1    0.094591696881608234      20.642115604807728      3.6901074708912103
   217   1      1.1211309605500583      20.717976275218962       5.741721905324054
   218   1      0.1565602332287627      23.198260263995259      3.6381757470823728
   219   1      1.4651789898104601      24.349554652729687      5.5204123449530815
   220   1      2.3946618755838718      0.1023937579147543      3.3927030472082951
   221   1      3.7379695879313868      1.3951333345779111      5.4048493296315936
   222   1      2.5788721043924441      2.5542393432283523      3.6017388061909967
   223   1      3.8043327613189502      3.8558098416438757      5.4175661143764975
   224   1      2.2530419700773368      5.0368579385315764      3.5727704414370121
   225   1       3.803678909943681      6.4508832206253892      5.6743266812890845
   226   1      2.6579272746461315      7.5933228240745025      3.5249123164883831
   227   1      3.8284573073102419      8.9112459943597511      5.3373522660660191
   228   1      2.5111151732163561      10.078707483980674      3.5396002001974933
   229   1      3.7453429949205477       11.50450601286895      5.3562594973185265
   230   1      2.6980325200663038      12.735400066135506      3.3275370716607422
   231   1      3.9731287656008889       13.98777329948846      5.3418643282831244
   232   1      2.6612789878389571      15.362554572757945      3.5306956829464662
   233   1      3.8074076332987423      16.734452144922116      5.4178561615978902
   234   1       2.726928984342075      18.062710120576536      3.6086735908540963
   235   1      3.8318785445581889      19.195545115089782      5.3191615981541611
   236   1      2.6561604296291428      20.497727023325623      3.5105584603756714
   237   1       3.818311306262113      21.940057455293672      5.3486391942600005
   238   1      2.6352176461025727      23.107057057922486      3.6002976678527472
   239   1      3.9896962387465704      24.241736821843638      5.4885998430811735
   240   1      5.1750588683700274    0.042438902919923284      3.5688574420051267
   241   1      6.2820920913317853      1.1563124513303757      5.5005043016458348
   242   1      5.1316401427629863      2.5490106506003682      3.7230608326957886
   243   1      6.1845505038767978      4.0422837043740616      5.6694218692821545
   244   1      4.8099994609418166      5.0137746529895928      3.7084311269155448
   245   1      6.4445956670320745      6.3866984236954574      5.5641942064825223
   246   1      5.1958937602769595       7.466745679447647      3.5983794521205268
   247   1      6.2939715728333017      8.9179570166983293      5.2723426807009348
   248   1      5.1220160460406001      10.051770592117226      3.5923178372048272
   249   1      6.4549502055053578      11.437681427124801      5.1763428476630136
   250   1      5.2106783160862866      12.631293891259039      3.6076329754202332
   251   1      6.4501550445982545      14.056805415703183      5.2585149161567859
   252   1      5.2731769039941643       15.24713205060405      3.2130222304077289
   253   1      6.3768351276244886      16.481423736162455      5.3958207851405682
   254   1      5.1000034851424276        17.9481949627551      3.5433986154191088
   255   1      6.4014074323141719      19.186038560179597      5.4537698712573084
   256   1      5.1355292363955831      20.396967035331784      3.5396448117617734
   257   1      6.4803170023077596       21.76475337625666      5.3496616774663162
   258   1      5.3643458704011078      23.120926475400147      3.5716015378549408
   259   1      6.3666804185756467      24.279060664197626      5.4496264965342283
   260   1      7.5714859008407034      25.509207214134321      3.5176415530149714
   261   1      8.7321980852255763      1.2448462581971711      5.4390218814376041
   262   1      7.5235954750328915      2.4173051567823829      3.5996500966733826
   263   1      8.7046743912625715      3.9227941641545643      5.3673020226631873
   264   1      7.4551616954608875      5.1795926826718226      3.7999667138025206
   265   1       7.729755135779155      7.6370382631175131      3.6245240454161434
   266   1      8.7705385640737017      8.7613355015974914      5.3849715613455311
   267   1      7.6466569090611047      10.181794780102418       3.454948726175668
   268   1      9.1426735748642649      11.623066790552569      5.4188904243525764
   269   1       7.692189351468393      12.650431982970465      3.5029418582872709
   270   1      8.9101658942943018      14.083968213698796      5.3465326881600381
   271   1      7.6658298981617312      15.552286136772556      3.5849002381156536
   272   1      9.0831488120202977      16.707276259078505       5.160995834490218
   273   1      7.6448849774965728      18.025178462605616       3.739421612564346
   274   1      8.8230938839263846      19.221174108260335      5.4376540153267685
   275   1       7.632378461456244      20.593028784860991      3.5732394581424716
   276   1      9.0078847623257321      21.704307126966885      5.3404685037115716
   277   1      7.7681763606884813      23.159912871016335      3.6642571270448658
   278   1      8.8299841434766275      24.139000425968437      5.5009168129970547
   279   1      10.185120829003274      25.407249468275086      3.8063849829815566
   280   1      11.443129588730743      1.3415460505532044      5.4915043954096072
   281   1      10.214219750198639         2.5742434889357      3.8393242284071829
   282   1       11.41509576164917      3.9023927021805416      5.4584677023026966
   283   1      10.030048068790673      5.0153732360818539       3.711505333979995
   284   1      11.421266641778868      6.4987267338329877      5.5501891995394876
   285   1      10.354223839494676      7.5807213872413843      3.6594301749292897
   286   1      11.324684733514784      8.9930426226616635      5.5852502262844217
   287   1      10.213820180061989      10.103946215919001      3.8469360827842674
   288   1      11.656208659707929      11.557748920417939      5.5003431115110351
   289   1      10.325171005806347      12.853499859434811      3.5793343432313356
   290   1      11.407780342906445      13.969581647125887      5.4035333945699628
   291   1      10.151388046156907       15.38423805868997      3.5304834531677769
   292   1      11.507784624018909       16.47133009846025       5.387621262287567
   293   1       10.27991785503678      18.079821557037985      3.5305035483428462
   294   1      11.621391114727905       19.19776728609197      5.2297672362447889
   295   1      10.121350156166073      20.446031271446451       3.431590854441688
   296   1      11.467439848232843      21.625605880007548      5.4756628415334774
   297   1      10.281174472349202      22.958723924049163      3.6027191712224997
   298   1      11.602779695855295      24.318869286116016      5.4814485409150144
   299   1      12.790151784692812    0.088790842494847408      3.7381961539068973
   300   1      14.092292287358015      1.1925557370758246      5.3815112865773926
   301   1      12.789545772755988      2.5545452109440205      3.7832646830157328
   302   1      14.111453543697628      3.7906586209074882      5.4905959023950714
   303   1      12.669901778293678      5.1785127161627358      3.6571611264527131
   304   1      13.986472917353556      6.2553616506398892      5.6206633379330988
   305   1      12.957324934512242      7.7057998090881474      3.7670616089465088
   306   1      14.084675342202116      9.0266429459786099      5.4450697940692958
   307   1      12.814439637604558      10.209148086957669      3.5971278667624929
   308   1      14.246386370459611      11.497722323555772      5.5103610932501113
   309   1      12.981644486470051      12.785590949119815      3.7257541290692382
   310   1      14.111405801195817      13.861402210134161         5.4534346211906
   311   1      12.653358855612552      15.167179165649728      3.7508419172084668
   312   1       14.12745570985275      16.478395661724498      5.5967748961437742
   313   1       12.74446474809899      17.737722562473319      3.6416900016925462
   314   1      13.974193093275359      19.066568720186741      5.2944201776395499
   315   1      12.634191167249879      20.427870279634433      3.5672059180508984
   316   1      14.084763758885771      21.596299606822125      5.2356791198185206
   317   1      12.848170366609422      23.130426027791049      3.6577835371421066
   318   1       14.18776099521631      24.268213041825341      5.4840286565268048
   319   1       15.35131141802759      25.475621839678418      3.8474180284473407
   320   1      16.523997203171358      1.1634399546094547      5.8782184227961123
   321   1      15.240932173797994      2.4507887589592188      3.7074858105626012
   322   1      16.618129725562362      3.6748897974404455      5.7421441950629246
   323   1      15.094299575649671      5.1951719459532431      3.7978643686267892
   324   1      16.645570991109061      6.4411621368217391       5.614844233879003
   325   1      15.345346144803374      7.6165978854719238      3.8566211475278687
   326   1      16.689026774032907      9.1249818709315687      5.3940393774892019
   327   1      15.389234440065547      10.287486061426115      3.7115212244073108
   328   1      16.563980641057668      11.540636971167213      5.4271771716563819
   329   1      15.382346945381098      12.798961085852952      3.5673602393591746
   330   1      16.739291375269524      14.126379895851132      5.4737578922960513
   331   1      15.264301308575371      15.353042202138221      3.7287083444583859
   332   1      16.792000818857243      16.513166432769687      5.6367522194622461
   333   1      15.362615871739813      17.903151922093677      3.5982541232463183
   334   1      16.560456108494236      19.037960273534235      5.4778335651318733
   335   1      15.437453334310925      20.520363754211207      3.6205639119734938
   336   1      16.735623652018756      21.514333098833895      5.4733872417436631
   337   1      15.516311163088137      23.088281660129386      3.7271344261878552
   338   1       16.63781164076498      24.295112803766028      5.6410433616891336
   339   1      17.815003041629964      25.401380224509534      3.8014700899182237
   340   1      19.227335146633092      1.1756245212088179       5.589310970307003
   341   1      17.587500558806163      2.3498090895176182      3.7684101585480487
   342   1      19.187957688134443       3.789441821401438      5.4513052037390102
   343   1      17.620734558209101       5.078971190174375      3.7690164625202618
   344   1      19.149977834348007      6.5312952194032841       5.241534680506069
   345   1      17.734450330475315      7.7244683346007852      3.6076145908688324
   346   1      19.077918979783302      8.9503645835445127      5.4004480036295233
   347   1      17.730779453483386      10.291146407539822      3.4167063026555078
   348   1      19.051488768450827      11.557553932287314      5.2825826168591572
   349   1      17.989127916143126      12.909478771925432      3.6613963113164245
   350   1      19.338215805524538      14.227963398899533      5.3366847513373692
   351   1      17.762966311519556      15.353027845187485      3.5972433325651654
   352   1      19.268869095357658      16.576922550572927      5.4843440517296109
   353   1      17.880534701967939      17.700500609768209      3.8350007230859098
   354   1      19.048964253967895      19.209005872983926      5.2835726417930777
   355   1      18.003270689628678      20.473945161156387      3.6965676937611653
   356   1      19.374647257467345      21.727108931623683      5.4025071852395135
   357   1      17.844307406755568      22.977021755381937      3.9014654581772494
   358   1      19.242628954828735       24.32822416854874      5.5154567048273595
   359   1      20.569452775607502      25.480827605869024      3.5495423631675624