dump/Cu_560_20/steps_61 (written by ASE) 

1980 	 atoms 
1  atom types
0.0      25.526554800834361  xlo xhi
0.0              25.5265548  ylo yhi
0.0      36.100000000000001  zlo zhi


Atoms 

     1   1       25.40041463226212    0.070903213663831621     0.11362384103985051
     2   1      1.3527972442499343      1.2366952831878371      1.6995922347628485
     3   1     0.12388879295938758       2.598045043171052      35.952129898513718
     4   1      1.1918523633481479      3.8824484451509811      1.6561436111814263
     5   1     0.12723146599927157      5.3101107102081091      35.792970531988516
     6   1      1.2138073744883893      6.4808157289757951      1.7328677164034976
     7   1      25.397153619348448      7.7266987508338429      35.824132714197475
     8   1      1.2703167754513729      9.0431767145085793       1.859019096264082
     9   1      25.263252264344676       10.12177483195525     0.11747535683812202
    10   1      1.1382276612444266      11.598770595967466      1.8758049566970167
    11   1    0.086292084535400687      12.652551592352133      36.077419442979497
    12   1      1.1847733799760358      14.063286586142647      1.7856824291379887
    13   1      25.312442187752147      15.561585014771385    0.019675475616793399
    14   1       1.377985569725199      16.534506109486447      1.9948914730353167
    15   1     0.25395465805307027      17.981121921012857    0.046261833927405932
    16   1      1.3096684705284456      18.959894375839539      1.9631464789187585
    17   1    0.050387753581428517       20.37936821750705       36.09718879907426
    18   1       1.476061395951251      21.702212753051501      1.7441438751776437
    19   1       25.47764532633018      22.943562724610707      36.002226437489355
    20   1       1.317622820515532      24.368308701978947      1.6521808362530677
    21   1      2.5535824773856404      25.245981565453889      35.950099465439656
    22   1      3.9004303592761462      1.3276258094675741      1.5375704706043267
    23   1      2.4913013415284078      2.6753148166263205       36.09822961334536
    24   1      3.8121090606489578      3.8697798324545545      1.8923109581762683
    25   1      2.6665071775302294      4.9712660936789224    0.016200003623498545
    26   1      3.8244801136783706      6.4344638674220258      1.6766232614375658
    27   1      2.3221717392822416      7.6678124999881225    0.014534237265877426
    28   1      3.7758115893497308      8.9718197676665881      1.7843118694317464
    29   1      2.3642413729684471      10.179767121546975    0.053720403612601379
    30   1      3.6479048537273981      11.521048080993616       1.716043770877435
    31   1      2.4841219038791698      12.649603484146779     0.10403328696413594
    32   1      3.5660982280196842      14.068611267581744      2.0109895563924396
    33   1      2.6281595987821831      15.381701998676624     0.18212025307839197
    34   1      3.9094400227035346      16.537337759081243      1.9137118322875706
    35   1      2.5666934422493153      17.821507503197612    0.087873946248566953
    36   1      3.8105281569321008      19.170678033945954      2.0000953355642195
    37   1      2.7371546262642301      20.338506184056861    0.049265192687994515
    38   1      4.0001632859222385      21.736681263428476      1.7497773663139147
    39   1      2.4638670424171023       22.89398060801361      36.098222496773083
    40   1      3.9568902599554323      24.342123696313703      1.6842484647155613
    41   1      5.2602705698645558      25.474668957377446    0.011436341694320631
    42   1      6.3263385603516813      1.0777935916293138      1.8076084949786262
    43   1      5.0715743162998788      2.5899196779757929    0.071062458374069715
    44   1      6.3442604004411844      3.7450520740107107      1.7270183190937354
    45   1      5.0597814289267449      5.0482270958239441      36.019976200824019
    46   1      6.4775873101938926      6.4262267643682707      1.6915314049152479
    47   1      4.8978790957093095      7.6678271985429989      35.888899129655137
    48   1      6.4818519254400755      8.9300838552040336      1.6701707836676523
    49   1      5.0147485737042086      10.117378106983264      36.004044538561978
    50   1      6.1526783296722947      11.376586242718959      1.8106415684036863
    51   1      5.0207028897909503      12.781568815340536     0.14670301762292851
    52   1      5.0849372006229858      15.224893284786924     0.18416611312894696
    53   1      6.4668833850265832      16.497973771680204      1.8141476183003411
    54   1      5.1332662182938362      17.691278083005827     0.13508107311095066
    55   1      6.3029088008422081      19.003797493177281       1.855591769592057
    56   1      5.1892232661477253      20.419063016746225    0.093093270142173903
    57   1      6.5109670433475726      21.572564164228027      1.8145763556378491
    58   1      5.2306453951329219      22.998542014187819      35.969968332253877
    59   1      6.4824034626889411      23.980195308537926      1.7757736172615197
    60   1      7.5650650505328114    0.027537333039748802      36.066964872498595
    61   1      8.7359261435071343      1.2798714589867137      1.7822912191038762
    62   1      7.5513769319286279      2.4321576659614585      36.026343711971926
    63   1      8.7798920105719596      3.8742643018715852      1.6730781378370025
    64   1      7.5723565820300607      4.9601333203476408      35.817599488538029
    65   1      8.8715856134122397      6.3244437261355131      1.6802320323177113
    66   1      7.5019122738186326      7.5562635413603036      35.797611046099028
    67   1      8.8330274404635603      8.9067118691913194      1.8104864853671978
    68   1      7.4979043198585327      10.124915525346717    0.029335278774260586
    69   1      8.5757064501930511      11.433427449873816      1.8571266690263097
    70   1      7.5420807848647025       12.58120559017464    0.083585830028232458
    71   1      8.7958939863769121      13.937580673061216      2.0038223950229512
    72   1      7.6652662117274897      15.252610333595003     0.12658395427231434
    73   1       9.002483792940442      16.607646882715077      1.9228997184332113
    74   1      7.5773223460249648      17.559527945535237    0.063902680636465314
    75   1      8.7768553684377828      19.102498611122808       2.006370583083366
    76   1      7.7542833961528448      20.296608525988074     0.19586511710244853
    77   1      8.9634783865904062       21.58478870519841      1.7362879998700922
    78   1      7.7279283521230164      22.982166075190694      35.983379630267031
    79   1      8.8670531884985273      24.367179620930226      1.8130470165092656
    80   1      10.258140977087457    0.061691080612048019      35.925199353512966
    81   1      11.272245048666926      1.2228758723812676      1.8417473086543386
    82   1      10.047080422361294      2.6434220887604449    0.076692469188662959
    83   1      11.402563359236797      3.9025627018572639      1.7743741622774467
    84   1       10.06005445985968      5.0902432713682222      35.897248750620747
    85   1      11.232658703027743      6.4013641901344016      1.8540065043693754
    86   1      10.281057882682807      7.5701983648904534      35.898990222812969
    87   1      11.231931529326204       8.861775183546122      1.8070915024551126
    88   1      10.310442717636644      10.248597634324311      0.1482291739561902
    89   1      11.479638270541237      11.439396025115446      1.7933305215151789
    90   1      10.068579542301741      12.746897354660591     0.26374869202027185
    91   1      11.534903258936575      14.171057352778494      1.8798437776627563
    92   1      10.076073741232101      15.264857929937202      0.1101658840018219
    93   1      11.603101969664822      16.712426435654752      1.7964476444058055
    94   1      10.148082010114925      17.897155985875624     0.20567534883423388
    95   1      11.649872858265327      19.128546479898883       1.769596503209685
    96   1      10.278822237598032      20.363827245536331      36.066437341515233
    97   1      11.665115527442593      21.606714935312471      1.7763790307969876
    98   1      10.152038743242551      22.944516451577499    0.012351413010617304
    99   1      11.360635752548703      24.078594816851581      1.8870319299793672
   100   1      12.819209657982496      25.474607277628582      36.025645143211555
   101   1      13.885658162184097      1.3508108294954344      1.6936912646052174
   102   1      12.574317103652717       2.558000768818721   0.0055251585828614194
   103   1      13.995096890146677      3.7515466921764458      1.9443571501808383
   104   1      12.593134033544759      5.0474533818082099    0.031777142193254816
   105   1       13.97547101218254      6.1318301788742096      1.9359311981074137
   106   1       12.72716528861552      7.5021641076637495     0.21288792871102943
   107   1      14.064025457718074      8.9742267842046513      1.7156555869629191
   108   1      12.723592297369093      10.209075776962184     0.12910111394339768
   109   1      13.953751336231768      11.664998709892913      1.7118665935241437
   110   1       12.69040693611089       12.93412262298907      36.094158189669763
   111   1      13.912615149743864      14.119893093946441      1.7342189387024283
   112   1      12.768081681457247      15.348376814193543    0.091532925869853357
   113   1      14.264464121672589      16.708661417416835        1.73209278135912
   114   1      12.859751698393415      17.926196753967805    0.077455979750413795
   115   1       14.15723426090943      19.149580408190936      1.7865736116386288
   116   1       12.74661077547916      20.498742076556187      36.052887949021446
   117   1      14.053255994510929      21.763963846496114      1.7613831363870203
   118   1      12.865904311863195      22.891302091306798      35.873178232972336
   119   1      13.978010761295506      24.273488625986115      1.8630587112572599
   120   1      15.298375573365924      0.1161380961265388      36.039325847215046
   121   1      16.380999624915312      1.2326228444955045      1.8553126045792516
   122   1       15.14333109986095      2.6431595107624486     0.07539375987081498
   123   1        16.5959843893163      3.7757117975327166      2.0170451564165082
   124   1      15.127054200883837      4.9866370535928475     0.03100889328984521
   125   1      16.651417640683949      6.3769354479297577      1.9190019560608327
   126   1      15.340686434254316      7.5948009429696057    0.085262187027217343
   127   1      16.488016792292033      8.8455870756357751      1.9117110183797994
   128   1      15.247545000340955      10.390577187741393     0.10998087188243071
   129   1      16.609876712052756      11.430329065362109      1.5688125919581015
   130   1      15.271764527667667      13.046800326830695    0.048270833222511696
   131   1      16.630777009228634      13.980782042319444      1.9228097381853317
   132   1      15.389908484563337      15.428079090130582      36.011065104557105
   133   1      16.634049167383747      16.730908461989106      1.8397612332529441
   134   1      15.489722570952539      17.977617837870902       35.99123824220144
   135   1      16.720520822339154      19.270790584510831       1.779048083317764
   136   1       15.36056584651141      20.383460996005144      36.040044731546537
   137   1      16.620571232658818      21.637973223143952      1.6039380259994447
   138   1      15.363315059921264      23.196772516864694      35.959030568251656
   139   1      16.424685462752915      24.072178663998457      1.9291476471968949
   140   1       17.84283637297446      25.495276858346834      36.042156769180416
   141   1      19.012635969918094      1.2871157985846959      1.6636400009337196
   142   1      17.606721463955989        2.50767740887358      36.053050144741576
   143   1      19.064715667164879      3.6127075761160641      1.8440625802952717
   144   1      17.616832615586169      4.9613175285194497    0.097793191169159965
   145   1      19.135812594397365      6.2304518607073858      1.7166345187008585
   146   1      17.896434077984811      7.6057603591951137      36.032531324134197
   147   1      19.106833724834487      8.9657330902565349      1.8059510489058321
   148   1      18.047411775784468      10.201671849222381      36.018186477946095
   149   1      19.220459480978803      11.659023927939192       1.526721670351878
   150   1      17.848432293640375      12.954738154496582      36.073359148759572
   151   1      19.312616505801081      13.972068876920519      1.5604303805928676
   152   1      17.983077948151031      15.416284812814483    0.016074379521228362
   153   1      19.187683516191303      16.616055463970568      2.0438182286422704
   154   1      17.855192361386536      17.989308986718132      36.084506665698719
   155   1      19.266141231719207      19.174436150841114       1.978161691143087
   156   1      18.098355276220094      20.462940513465625      35.959143188603299
   157   1      19.105592594408474      21.880315068580327      1.6750363710507818
   158   1      17.918811412964288      23.082607251387543      35.948129505248893
   159   1      19.029449303582663      24.287756116487891      1.6661633334384192
   160   1      20.424328728599026      25.431298355686422    0.064023196334949461
   161   1      21.644359577834447      1.3111394868835184      1.8436839456696148
   162   1      20.276665569340405      2.5872806233933829     0.07334913058905386
   163   1      21.801522326221153      3.9118056236598124      1.7995314899862476
   164   1      20.239535785263719      5.0373442003542612    0.061197320822054584
   165   1      21.732701254771595      6.4065653418047717      1.8038795591482557
   166   1      20.292765716482858      7.4207891923375362      36.071243078101453
   167   1      21.587977425259215      9.0694499076084636      1.8287493198633109
   168   1      20.438159695897536      10.061694570339375      35.983802114061845
   169   1      21.550303675791273      11.536602707530113       1.727768881687713
   170   1      20.555641546186649      12.896263453935267       35.83570057494763
   171   1      21.703004967243473      14.265776625968726      1.8186683240654238
   172   1      20.455854826444419      15.483707762021275     0.18659437136683457
   173   1      21.865160077236141      16.600195946905526      1.8709147399225243
   174   1      20.429265441528461      17.917663059005115      36.080706051306088
   175   1      21.821349510024969      18.997672890637993      1.8815613133189568
   176   1      20.439781820185274      20.474137155752629     0.17782266894929533
   177   1      21.583588607486256      21.642793015990012      2.0154860449814458
   178   1      20.545161219741924      23.034746502435411     0.16693399484629473
   179   1      21.618566327126427       24.27904045200297      1.8862276693469209
   180   1      22.911841798651128      25.489133016920039     0.12586189467036779
   181   1      24.329471612925751      1.4380111597050842      1.6057378686785011
   182   1      22.796100959780443      2.6093958903426211      36.015741227557172
   183   1      24.154215573555895      4.0524334270589994      1.6366279059206688
   184   1      23.062838861034077      5.4536827751124166      35.830077828504031
   185   1      24.308699683071715      6.5533969739863718      1.7993323314910767
   186   1      22.915492263089124      7.7305237471292489    0.067107326965299127
   187   1      24.141761010307626      9.0099823210762118      2.0038563826616596
   188   1      22.837860018200249       10.56486712458314      36.025274012709907
   189   1       24.00863379670059       11.46346221666643      1.8289562958629637
   190   1      23.022354520482931      13.032697126693366      36.085996702691524
   191   1       24.31500385639394      13.998149054201537      1.8050996766915193
   192   1      22.953599256738869      15.403271114823617      36.042460008690448
   193   1      24.384428659127511      16.602628849522524      1.9399524275067503
   194   1      22.985860849805306      17.794298970759243      36.051075747166529
   195   1      24.311312525421535      19.132267297212589       1.954104465124989
   196   1      23.088453167569245      20.477860182764452     0.19890686287390055
   197   1      24.344293524613043      21.570920997523316      1.9205116574157146
   198   1      22.909910475972502      22.787555694640986     0.22965013012889146
   199   1      24.255842477687924        24.2323362437509      1.7145157392067643
   200   1      25.523716775144397    0.072448813690009356      3.5637883783522843
   201   1      1.0498609323046439       1.369314515480295      5.3090834881341511
   202   1      25.466576435576396      2.5649544589752131      3.4785347332556387
   203   1       1.240800572673523        3.78759165015166      5.3547363347870132
   204   1   0.0056054473302093516      5.1413245578587992      3.5036011181093265
   205   1      1.2057015885540601      6.3684426155111655      5.5064432801172005
   206   1    0.067696026589340805      7.6428484593843136      3.7271828069487363
   207   1      1.4940983456382639      8.7818844845133288      5.4223266035448665
   208   1    0.070250338677076862      10.264904978001102      3.6035883611265254
   209   1      1.3959736440988015      11.380667871378787      5.4622213032834193
   210   1      25.329115975414744      12.763144634495792      3.5931868623007182
   211   1      1.0938154601677095      13.961202453516586       5.388534346581725
   212   1      25.526533460194219       15.37780575209219       3.710729178738962
   213   1      1.1380973880992835      16.677050687572653      5.7608129996027779
   214   1      25.499840415412272      17.808431527874113      3.8812696204888608
   215   1      1.3312545187722165      19.039094755557127      5.5222066031861745
   216   1      25.442019530387086      20.523321987187039      3.7595774923174661
   217   1      1.2725427172047878      21.805939600268697      5.4252563476282472
   218   1      25.465923673765165      23.059216817509043      3.4957411571220072
   219   1      1.3549408164722054      24.199653335961624      5.4901717849509248
   220   1       2.446609409910466      25.416587483357549      3.6276501061921924
   221   1      3.7294829230239581      1.3944547230023667      5.3696279563403051
   222   1      2.3156065941445831      2.5388803514332094      3.5884785852463432
   223   1      3.9225556588831396      3.8759427440301528      5.2755602186319006
   224   1      2.4392972169141465      5.1431103662848292      3.7725169234933902
   225   1      3.7632874157572367      6.3762751653846435      5.4696351563394945
   226   1      2.6479622059364383      7.6143623753085397      3.4607327573945117
   227   1      3.9443386979971335      8.7286535277463866      5.2966522975528232
   228   1      2.5383630644125086      10.159210165117653      3.6961711881951738
   229   1       3.762088136383325      11.128474052537905      5.4993887262904533
   230   1      2.5266105765495745      12.599507792706669      3.6106571237399927
   231   1       3.754260294748097      13.878545382575819      5.4479280271154717
   232   1      2.4443257646581191      15.315173243481361      3.7101306512261916
   233   1      3.8854826188119276      16.312036169796919      5.4733514554320513
   234   1      2.7164370671937794      17.700682607979932      3.7896251772387557
   235   1      3.8587399648155691      19.269471630707848       5.221935107521368
   236   1      2.4723275875013222      20.574806268550166      3.6049427323250587
   237   1      3.7132022156301896      21.651519452831206      5.4880980520387492
   238   1      2.4679918818304349      22.988427897402545      3.4860831924307591
   239   1      3.9272098254400447      24.402358624243256      5.3107248300917629
   240   1      4.9675254367450483      25.475073449600522      3.4166993759078754
   241   1      6.3178264967502011      1.3734422880539985      5.2093183373556844
   242   1      4.9584681102415935      2.3635467133588151      3.4749305287391627
   243   1      6.5465742781208016      3.9351804669854711      5.2925677768056607
   244   1        5.08636766566765      5.1193290370827134       3.562347533834394
   245   1      6.3542100436570044      6.3657894030865529      5.3008095536543971
   246   1      5.1796069405655203      7.5752097278001065      3.5002524794570165
   247   1       6.218867110586956      8.8143404907440086       5.522825378103092
   248   1       5.028077847142054      10.144764560354931      3.5703943350362812
   249   1      6.3755100113015333      11.383460399559485      5.3551536542207705
   250   1      4.9388320082284407      12.716938060037929      3.6596579648828578
   251   1      6.2027038173997964      13.921224264843932       5.324622648034067
   252   1      4.9868288123384117      15.032166819735208      3.4825092461907383
   253   1      6.4316282377594964      16.265809256409675      5.2725116153571117
   254   1      5.0354255271330466       17.60460881722166      3.8241110299936141
   255   1      6.3696605209233237      19.257886530538244      5.6248322805350046
   256   1      5.3220041623411047       20.58751631770841       3.607443888156284
   257   1      6.5127928321112689      21.750736617618145      5.5241095242948788
   258   1      5.1885090277546446      22.964890718986407       3.723077601526608
   259   1      6.3643488969333006      24.322718846141179       5.468767609243077
   260   1      7.6915025622328876      0.1009383687949359      3.5754452433760444
   261   1      8.8420138523445768      1.4665668243850107       5.360780775760797
   262   1      7.6060813944187755      2.6834858969513347      3.6225868686713487
   263   1      8.9389003849046436      4.1429246452829522      5.3848736521177667
   264   1      7.5522966284515967      5.2600594223470214      3.5548203424193834
   265   1      7.6564958348400713       7.631749236880716      3.8342769324916861
   266   1      9.1090802346102624      8.9134453835560965      5.4248812954875127
   267   1      7.4864961810761264      9.9991337252235688      3.7546616129005832
   268   1      8.8677884223682941      11.573479452692606      5.3689856131170295
   269   1      7.5593280401500778      12.614475364162667      3.5667553228542141
   270   1      8.9758232842264061      14.063991358256915      5.3381757155087968
   271   1      7.5309407357147888      15.069430656137387      3.5263100995504018
   272   1      8.9994762917331972      16.527607326075557      5.5608606537728642
   273   1      7.5589103997979317      17.945033285172979      3.7168670465014833
   274   1      9.0180023930557383      19.408013729586635      5.5092756470235367
   275   1      7.7093801181185322      20.397807983521339      3.6943833053656148
   276   1      8.9504424910712412      21.865833468778519      5.3686003118571701
   277   1      7.6821279766711541      22.966322677841031      3.6777631343086652
   278   1      8.8758802775038745      24.325961514182112      5.3549443188672665
   279   1      10.315344397286914     0.15386210748367307      3.8544673636096785
   280   1      11.380302246186794      1.4008105572328124      5.5348707077901933
   281   1      10.164017949795362      2.5999491507642118      3.5379230499221208
   282   1      11.302650359724252      4.0172346677596877      5.2900227340947916
   283   1      10.308542709647181      5.1827394914020051       3.683209207102951
   284   1      11.325982804532925      6.5937687335209132      5.3029596656102198
   285   1      10.242034422737234      7.7682710950042955      3.6947310279940555
   286   1      11.733542179617929      9.1494134868485641      5.5347594998833181
   287   1      10.154299516548996       10.12515782969659      3.6734806219877081
   288   1      11.522773815092373      11.561457819461088      5.3074924488645578
   289   1      10.225274890808169        12.8175131011917      3.4608375862985681
   290   1      11.617434744960985      14.102777540437105      5.4644355443395369
   291   1      10.164303514764253      15.341777488873147      3.6234048726451498
   292   1      11.455333683156073      16.522680401095144      5.3046305246282897
   293   1      10.420220174842957      18.048318558975264      3.5587513809404876
   294   1      11.613628121780653      19.293714186434094      5.2179279073464313
   295   1      10.307599149286533      20.605050657838195      3.6873025274111741
   296   1      11.646404549529512      21.763818872329374       5.500645063053482
   297   1      10.170245625746331      23.053158524590629      3.5887578885753566
   298   1      11.620898618684732      24.243398288958925      5.4909201646589683
   299   1      12.639285561833253     0.14297726461615781      3.4571194818352424
   300   1      13.966891270570235      1.1955738092555512      5.4939223679567739
   301   1      12.721814905533149      2.6151761642229792      3.6389581934698652
   302   1      13.953848102915494      3.7824132845676299      5.4388956707165317
   303   1      12.749113826042109      5.2675051113093945      3.7137300640970277
   304   1      13.946316353627413      6.5331032633883259      5.4079202582055572
   305   1      12.750950730095337      7.8838218349266471      3.6556015047062709
   306   1       14.31265915450059       8.938428062123398      5.4364714597235624
   307   1      12.778722596421114       10.16158392087172      3.5412989147456178
   308   1      14.089591536699819      11.542313806928453      5.3895151499223388
   309   1       12.72056016499177      12.627173234198168      3.5680648575676512
   310   1      14.222875545729176      14.037593894087115      5.4000908638271437
   311   1      12.911538804654281       15.25656170690786      3.6438107798685202
   312   1      14.000961065176085      16.572914824825926      5.3891930941388502
   313   1      12.848431592764834      17.905580472223722      3.7180989679714664
   314   1      14.035506711047738      19.215344210205583       5.591287637493692
   315   1      12.839379218163312      20.503887500521859       3.450769985995374
   316   1      14.013540101095654      21.703863809357429      5.1967313472860281
   317   1      12.633526223229609      23.178085998867527      3.6299491873800704
   318   1       14.18960304636224      24.228110104886905      5.5884990642588859
   319   1      15.168102229198311    0.039278377459515214       3.694007774835153
   320   1       16.67951393553545      1.4415439290862817      5.4976827001414392
   321   1      15.083637606059909      2.4193185754087048      3.7264825832326482
   322   1      16.463296124867732      3.8733709148429321      5.3159675383872402
   323   1      15.280696111793548      5.0691168217189082      3.5998635451630316
   324   1       16.50418649362722      6.5943396728066777      5.4775640199901305
   325   1      15.119958530480744      7.6745485592416669       3.539654714261347
   326   1      16.884060083052283      9.0192609610203807       5.294656104806613
   327   1      15.431114176103856      10.204766281820588      3.6631423321898215
   328   1      16.591476098753279      11.473458102734812      5.4328246505903248
   329   1      15.358940319325567      12.697315565328674      3.5682595694443289
   330   1      16.649940502983668      13.893388657833205      5.2096456959662207
   331   1      15.446075843968512      15.332825349004429      3.6223090350474378
   332   1      16.654512294077669      16.372424715277216      5.5035947843684649
   333   1      15.431691199476315      17.673187752227847      3.7480620708183094
   334   1      16.710027643360672      19.025431797341174      5.4983418771921047
   335   1      15.258644735544237      20.268018146936324      3.6590702898198844
   336   1      16.496047679321173       21.88018880836395      5.3904925737009108
   337   1      15.175111321834679      23.043771048159584      3.6500845178646326
   338   1      16.576754811518356      24.385133714968816      5.3689187468152797
   339   1      17.768057610126753    0.072621919267848833      3.4115961655908578
   340   1       19.24089581153067      1.3089480771991744       5.284992488161139
   341   1      17.897158705041864      2.4830554250574024      3.5897977969475523
   342   1      19.186024239455236      3.5923063002320057      5.4187879595466848
   343   1      18.128327706938073      5.2001451529552813      3.8937495926369832
   344   1      19.283752955127433      6.2067325456989719      5.4854844359689707
   345   1      17.956928650608727      7.6733319759574057        3.61430014446537
   346   1      19.364991827741051      8.7795252900566272      5.6319997989279109
   347   1      17.930274722226144      10.378694629768651      3.5175067464806724
   348   1      19.159968563599339      11.258243071448032      5.4629343351448894
   349   1       18.05074553283491      12.830646013720651      3.4314929201255739
   350   1      19.285577780981974      13.971367781148428      5.3924904594765479
   351   1      17.965152584670964      15.393616526745326      3.5788038054382931
   352   1      19.203012744080546      16.550856164511519      5.3253327102545951
   353   1      17.812368820479712      17.935322096551239      3.5893582077020043
   354   1      19.127960532702797       19.28696216972364      5.4875491290335754
   355   1      17.805413997810277      20.426489693533721      3.7116738635948576
   356   1      18.952931729852942      21.667734600515121      5.5375222466649259
   357   1       17.73310352313085      22.904914593274466      3.7173341424946802
   358   1      19.069639580386287      24.296796971415713      5.2418269188667423
   359   1      20.115596158582761      25.514593191151118      3.5631786086813024