dump/Cu_560_20/steps_91 (written by ASE) 

1980 	 atoms 
1  atom types
0.0      25.526554800834361  xlo xhi
0.0              25.5265548  ylo yhi
0.0      36.100000000000001  zlo zhi


Atoms 

     1   1     0.21690836585440099    0.048801446622320714    0.079033826107558922
     2   1      1.3266758746513738      1.2887786643697621      2.0876836135374779
     3   1    0.069884123170352086      2.6199322581812043      36.062776979398812
     4   1      1.3928237873513623      3.7765428233686458      1.9482708248184055
     5   1     0.10977629759152435      5.1841487432680973      35.941631802988645
     6   1      1.3518828251557611      6.5481166218690392      1.7919940262598855
     7   1     0.01800467066380157      7.6310911826531793      36.055882887429114
     8   1      1.3416307379270533      8.8696073267286426      1.7903954618122613
     9   1    0.055185540091543181       10.31436800818199    0.014703997518188331
    10   1      1.2909368743391836      11.533368204223464      1.8601248296019313
    11   1     0.11752503956451844      12.626869016070781      36.095901765210591
    12   1      1.3066925064831469      13.931874059466304      1.6591072123768862
    13   1     0.13895502122001543      15.211687729251247      35.940510538126588
    14   1      1.1746860372074046      16.413340094228428      1.6706675904961807
    15   1    0.045199755658288543      17.719228384016738      36.004337354674554
    16   1      1.0890771558765724      19.104040739757075      1.8009082680199993
    17   1      25.351871037232421      20.281587812277852      35.896304940080725
    18   1      1.1861673824378864       21.66010514922111      1.7660009727715309
    19   1      25.448419402774171      22.929556992366678      36.077276519087341
    20   1      1.3715902472895609      24.195398550360871      1.7951311116771314
    21   1       2.573343973645569     0.10797950986452345     0.25816216667610675
    22   1      3.8207311013814831      1.2456025379838065      1.8585590299246053
    23   1      2.6542934579978223      2.5084345775385022   0.0036664168526499615
    24   1      3.7692662145112048      3.8282288395616466      1.7090857914421562
    25   1       2.624412871389604      5.1207683529429158      36.075130340405735
    26   1       3.844084464382751      6.3420330083402581      1.8077227795653465
    27   1      2.6936529002501124      7.7213638611618034      36.076359552996642
    28   1       3.954797359988484      8.8531752712443197      1.9090170909525015
    29   1      2.5590321945428767      10.449971658299347    0.036666738834912962
    30   1      3.9358741972964335      11.444270431813603      1.8433962128909585
    31   1      2.7762583663959606      12.881540435011098      35.946664577329948
    32   1      3.8891337897121803      14.123945936301995       1.755625930972599
    33   1      2.5751294839312773      15.342204762655394        35.9846258818839
    34   1      3.5906686837833264      16.712781705138806      1.7669277297755677
    35   1      2.3932079364069025      17.893232662345476      36.036395967731423
    36   1      3.8383955169269504      19.188657966191542      1.8145055275179194
    37   1      2.4768153537356845      20.392470277098074    0.096715338897013406
    38   1      3.7759046421969762       21.66860403266352      1.7580629167036028
    39   1       2.657737666066871      22.978652949527753      36.089055902575033
    40   1      3.9673551676476961      24.379869736166885      1.8328371373642185
    41   1      5.3175543843290818     0.21680541331420375    0.013678178856537222
    42   1        6.55315053697512         1.4633538823093      1.7149469318928841
    43   1      5.1688187572063917      2.6817519238546468      36.035590248399011
    44   1      6.2600512150161904      3.8834330277023432      1.6750340721461623
    45   1      5.1073220084281425      5.2138824711543315      35.958546233030667
    46   1      6.1983982491705403      6.4027066109423032      1.7597741746419382
    47   1      5.0172053813127011      7.5675059246690122      36.061165161651068
    48   1      6.3705547174393669      8.9909835918030012      1.7353405484685158
    49   1      5.1856747106948999      10.246520925677586      36.087258883287511
    50   1      6.2939132403563729      11.567164539540279      1.7169066800470874
    51   1      5.0567247224913423      12.800570405766127      35.980728742564416
    52   1       4.998037412587478      15.302843038338285      35.993819810857744
    53   1       6.081181308436812      16.527699160887192      1.7703727362356168
    54   1      4.8523524386127788      17.982715585939332      36.012551101226549
    55   1      6.3373827417110444      19.096947721505035      1.7313343744363026
    56   1      5.0749758461386438      20.434443487453244    0.035764228437415113
    57   1      6.1982950194816357      21.677947515744037      1.8480669023998308
    58   1      5.1007735466416717      23.017219550319382     0.13041738630008706
    59   1      6.5276353252537564      24.423154289606334      1.8424226497605225
    60   1      7.7079076773127024    0.096061147493039553    0.097850975059771042
    61   1      9.0525098228925298      1.3624974017897191      1.6848309468550386
    62   1      7.8295197853289409      2.5001887451715037      35.992430072917408
    63   1      8.8188613727253244      3.9309474668093545      1.7476967542780255
    64   1      7.8037947996550239      5.2505385968129064      36.041130973091292
    65   1      8.9615140666527342      6.3995925349856844      1.7766111957279818
    66   1      7.4590323212384675       7.774164193096099      35.999873575473138
    67   1       8.868992257371481       8.918543938259198       1.754615785089892
    68   1      7.6193418752154365      10.240328155679276      35.985516050714153
    69   1      8.9342393980239105      11.510989412119313      1.8942321644885265
    70   1      7.5714464542334614      12.802305768733612    0.040445894097592729
    71   1      8.9918403437034531      14.377667109052636      1.8211907634657338
    72   1       7.491501601675207      15.324557216342745      36.091125218959938
    73   1      8.7255624629063693      16.765822460664523      1.8053905646367312
    74   1      7.3673326791740461       17.77696417380314    0.047048781768194207
    75   1      9.0231924596526838      19.178556627735023      1.7962330796762331
    76   1      7.6104365689836309      20.318448308114327      36.091817838069424
    77   1      9.0387937377678824      21.593684525907744      1.6673431916786501
    78   1      7.6979871003573939       23.06796487872942     0.16800590930171222
    79   1      8.9789453091976537       24.38743966464245      1.8064124139368702
    80   1      10.240315469862525    0.026520689721281375    0.020579746872078874
    81   1       11.59532259108596      1.4113391875831485      1.5582172441866986
    82   1      10.420216117022647       2.604957768553525       35.93536148124722
    83   1      11.476066492736498      3.8598944018303558      1.6877021743273415
    84   1      10.199839645908492      5.1470401629714573      35.994392740856014
    85   1      11.433060952036323      6.2960831769390397      1.9155435525547435
    86   1       10.24614297598036         7.9064465479671     0.20144592478584389
    87   1      11.561562315737238      8.8213947578755949      1.9550214964379609
    88   1      10.154909577550704      10.269649566668402     0.16402282135703686
    89   1       11.50525604560984       11.47198229647293      1.8215862682687316
    90   1       10.13713687441763       12.81050143306196     0.13693418308730551
    91   1      11.395369675569972      13.997028450340324      1.8299640049598775
    92   1      9.9385610932079054      15.357120948367987      35.989522188024978
    93   1      11.240803813826123         16.632286324972      1.7884478547238478
    94   1      9.9090839816397924      17.748819538573883      36.072795347872926
    95   1       11.52147207956072      19.187730430594694       1.887929926590755
    96   1      10.141209717937953      20.344765672174947      36.060543444931277
    97   1       11.51896242403965      21.691490544712053      1.7948430106708757
    98   1      10.159799064972642      23.013345010964304    0.042209685984835286
    99   1      11.516714614684727      24.249601317221227      1.5471044013043302
   100   1      12.967483018747691      25.429452675471019       36.05736363283328
   101   1      14.072409506850139      1.3270959275829417       1.785025612319431
   102   1      13.008623184547169      2.7064960340568782      36.014224437777948
   103   1      14.059704155192478      3.8261077880029197      1.7145973608621958
   104   1      12.870553014161286      5.1705737454113825      36.008465693286915
   105   1      14.036782747548088      6.2283404351785752      1.6068305662004261
   106   1      12.723919660538265      7.8483078009358938      36.080822447669178
   107   1      14.140026415674384      8.8243564982082194       1.776534149469331
   108   1      12.654768839705234      10.161903557229222      36.081125592899937
   109   1      13.830269381029046      11.359115925454201      1.9026407041269753
   110   1      12.671261877760292      12.854385969208694      35.895477010002644
   111   1      13.921767919484878      13.834301135870639       1.684977357101888
   112   1      12.716461840496075      15.276844748566459     0.17627976160518988
   113   1      13.843404954104829      16.397008674502796      1.8248307779580515
   114   1      12.630995918551816      17.905670507626716     0.19986199574973407
   115   1       14.19119394403749      19.327404486852181      1.7696009589844155
   116   1      12.693449758391926      20.426879050414005      36.040416523570819
   117   1      14.065827508670719      21.799696407526092      1.5757724731447411
   118   1      12.759694635021038       22.96051029490086      36.047164274548216
   119   1      14.037101422163062      24.454932902343504      1.8377931866641128
   120   1      15.435981200203592    0.047647026609199346       36.02893823402777
   121   1      16.512168754563771      1.1972504890412177      1.9117646165287057
   122   1      15.594898513279031      2.5866407007709453       35.85353796536122
   123   1       16.72391686395412      3.9164024453160957       1.975358594526234
   124   1       15.19086308227735      5.2033588296662057      35.956152417423759
   125   1      16.661827664098166      6.4868296566336543      1.9042334170834025
   126   1      15.338964268294777      7.6553130556490654      36.055630391949109
   127   1      16.715611946830357      8.9660993696195881       1.769386144249802
   128   1      15.270427897025554      10.331143916266987     0.13933059173521095
   129   1      16.432640368221112      11.695898245379595      1.8147749320943951
   130   1      15.257423163563136      12.897789860093159    0.032148565686236474
   131   1      16.445663378866247      14.100453892600241      1.9063666405535076
   132   1       15.28405826014089      15.312620153735947      35.950744303878743
   133   1      16.258276743498563      16.458899210818338      1.9571528715550812
   134   1      15.271920998198674      17.814116343919675    0.063981744221894191
   135   1      16.452670251867936      19.227649774854349      1.8190558546285627
   136   1      15.287356269718869      20.482949382072526      35.962054426918783
   137   1      16.510251410965015       21.61475012125965      1.8398796793384802
   138   1      15.370888661219148      22.992568849090311    0.047095006927133934
   139   1      16.539562256574719       24.18991542281422      1.7123701460317431
   140   1      17.834254868693254      25.403200781885118    0.084482924682697705
   141   1      19.052850884366244      1.2566404624371648      1.9320804483343403
   142   1      18.045153796845877      2.4624802980921872    0.013197404465199722
   143   1       19.03994165459072      3.8119599674408255      1.7727278817845562
   144   1      17.882371870280338      5.0482284400457589      36.026916490057125
   145   1      19.240296643319631      6.3261171554320299      1.8803966074420262
   146   1      17.851279592470096      7.6602452966001682    0.055572860500240122
   147   1       19.31004871236993      8.7711821036778908      1.7445446496917729
   148   1      17.895342655803738      10.255962375052469     0.18845212918134868
   149   1      19.092616798185048      11.396060104238577      1.9460468138906339
   150   1      17.846295548077059      12.772293812355086     0.24675030490611782
   151   1      19.208205932908363      13.911328279208313      2.0400555338902899
   152   1      17.778131977210972      15.350275168514425      35.947026305805871
   153   1       19.11254201083942      16.465854470408967      2.0738926474773267
   154   1      17.848146828957045      17.829896931030479     0.15920845732116498
   155   1      19.102330579120867      19.231214068309324      1.7486798931892513
   156   1      17.860719173263778      20.126314197372015      36.079485080435326
   157   1      19.083755047581342      21.686864999774979      1.8603099529546059
   158   1      17.837544216627606      22.694647751855001     0.07747898786425364
   159   1      19.209495303195375      24.190989754854446       1.939034635975871
   160   1       20.44334592479052    0.079646906746614676    0.037771755072481109
   161   1      21.697496871417648      1.3255064843574755       1.767924978921918
   162   1      20.426506542483828      2.4510561646811171     0.14402721479366393
   163   1      21.773715354004452      3.6549909460329544      1.8431687473578691
   164   1       20.28162811240917      4.9299563594113893     0.02997665234769328
   165   1      21.659143366230072      6.3671971374504466      1.8984070763075913
   166   1      20.661309424173673      7.4126186034921782      35.977092786997275
   167   1      21.805298226715511      8.7860945288167471      1.7287207780004799
   168   1      20.391206401001408      10.181489436975701      35.826534634230242
   169   1      21.688915976360292      11.634832742990591      1.7242955264839357
   170   1      20.124990737148572      12.632992753180188    0.029287454610721384
   171   1       21.59852482014848      14.037416768023636      1.7343736583705656
   172   1      20.123401404066826       15.22719249953485     0.12176854528464685
   173   1      21.530623345632822      16.441129301325301       1.847498304158752
   174   1      20.370545134481617      17.715454118510667   0.0030707400646747371
   175   1      21.622834561695665      19.146460969842664      1.7567171477945636
   176   1      20.350863405891367      20.341714241740661      35.938129994955148
   177   1      21.533480947977953      21.732640222304482      1.5717686785476987
   178   1      20.156012099964908      22.971035504099291      36.045966620232491
   179   1      21.658629696191664      24.369938723488577      1.7749236821698895
   180   1      22.982668321548715    0.077022101495927961    0.074974079958713163
   181   1      24.376255574777051      1.3223455930609453      1.6439757481161219
   182   1      22.986272872587151      2.5130330342786946      36.061221616309496
   183   1      24.373331473859658      3.6957161716091051      1.8436776719737629
   184   1      22.963829362350982      4.9319531178215241      36.072684125084599
   185   1      24.400530460280951      6.2874006932696718      1.6837768387866627
   186   1      23.082013848051101      7.4662834411469907      36.075265246480754
   187   1      24.420976873361287      8.8097092402788562      1.7894702230770683
   188   1      23.044731651315949      10.217294147481002      36.040471527333217
   189   1      24.122255851556815       11.48647764284661       1.808156140054882
   190   1      22.984658153795053       12.73349189546936      36.045866692495942
   191   1      24.310962280770411      13.961015619359499      1.7516334395944897
   192   1       22.74813215127223      15.216174673948867      36.057923940304129
   193   1      24.155814490045415       16.58363382750397      1.6133444217798671
   194   1       22.86221367112422      17.994390203768873      36.012254300341581
   195   1      24.201914561035046      18.904674440735125      1.8198595399202662
   196   1      22.857888261597552      20.406431313426747    0.043516140517635735
   197   1      24.120377941561291      21.600128100833796      1.8443462085317393
   198   1      22.965961283324564      23.011331270580836    0.088080619041795691
   199   1      24.374681033562137      24.235882738809313      1.8880947630578804
   200   1     0.25373240216513698    0.038831221031704492      3.5780467980282298
   201   1      1.5338890531352083      1.2963806584385167      5.4307735106545634
   202   1    0.045747490367115444      2.5496362209588868      3.6840096958260169
   203   1      1.2738115035582789      3.6724332777456885      5.4354562403136599
   204   1     0.11983249159474704      5.1220662150029863      3.6311140047488331
   205   1      1.4651882084152226      6.3332105008505968      5.5107300895444773
   206   1     0.05341319503078764      7.5037671710398035      3.6829530967362034
   207   1      1.2130821386079658      8.9175614812150439      5.4051741812476299
   208   1   0.0021613594721062506      10.079925163792403       3.621323498125876
   209   1      1.2028101825705897      11.548936099393051      5.6107876095714566
   210   1     0.10427530799493503      12.620780514529651      3.5736064927738891
   211   1      1.2054244080352958      13.999895921043789      5.5392571402947501
   212   1      25.510411975666241       15.31987024435135      3.4118279887123095
   213   1      1.1341861543120231      16.486861696120503      5.3594030398805392
   214   1      25.467254833797369      17.743112338771159      3.6091511409823398
   215   1      25.522653462848588      17.769027422309193      7.0209754469179586
   216   1    0.025765574315405371       20.29666598952657       3.546989808378965
   217   1      1.3837444998995967      21.554596374615002      5.3353105654006816
   218   1     0.11839512678021002      22.826473872349197      3.6147044537543196
   219   1      1.3977803888145817       23.93242438846557      5.3614817763450944
   220   1      2.7865506365212922      25.476381390258265      3.7061763877103635
   221   1      4.0173553641028148      1.2336340301456856      5.5083162243220629
   222   1      2.6523763270861935      2.4773989427178869      3.6705591486239961
   223   1      3.7884123189025942      3.7057835250937283      5.4369500082262077
   224   1      2.7095441859147558      5.1487171592876821      3.8099397626718261
   225   1       3.978292423361137      6.4086955267471426      5.5648512350682937
   226   1      2.7090978234426131      7.8548282597405175      3.7427104354995144
   227   1       3.915320847678827      9.0615068283208959      5.3192569364373927
   228   1      2.5720190321207781      10.109766675952066      3.4514852540057412
   229   1      3.7348015372692864      11.426809254061617      5.3629235467180507
   230   1      2.7216893957803414      12.840705331936517      3.6190201999518394
   231   1      3.9148110019166662      13.875266484309181      5.4837421038929568
   232   1      2.4930285622147221       15.23034088574358      3.4945184009453563
   233   1      3.7402361954013918      16.701569677118677      5.2930886198566158
   234   1      2.4411104462784587      17.800590836764126      3.6160153143858769
   235   1      2.6264273890072825      20.492844459717048      7.0750580303050663
   236   1      2.6050849450559985       20.26650218528038      3.6175861301782204
   237   1      3.9288679025103876      21.783560840115957      5.5540554989645345
   238   1      2.6196380009043811      22.629580083530161      3.5702585117699432
   239   1      3.7503737268740585      24.204832391329962      5.5304339524957991
   240   1      5.3577502939183983     0.37394139653871394      3.6896624182705193
   241   1      6.3410966313403332      1.3756653819579121      5.6011214470410602
   242   1      5.1068680364445234      2.6382170429850902      3.5595454607664792
   243   1      6.4899521922497749      3.8480789182396968      5.6028772092626422
   244   1      5.1589575802554721      4.9714839243839579      3.7883286293999316
   245   1      6.3936864489919119      6.2188065868919526        5.35928076085772
   246   1      5.2071605821162352      7.4668908916681689      3.5338636571850874
   247   1      6.5029836784601729      8.8788497045508628      5.3368913445809358
   248   1      5.1687744616033395       10.18319764547838      3.6746095697809653
   249   1      6.2248117007267707      11.517841915203366      5.5732643250685294
   250   1      5.2121649518948523      12.731019113940841      3.4404445513347368
   251   1      6.3532067520190836      13.868078087050291      5.4630576654562422
   252   1      4.7864262349589906      15.357025482398802      3.5816021122645556
   253   1      6.0997271248502356       16.52192316256378      5.3188036001486116
   254   1      4.9982995139438993      18.005863620806537      3.3638743059277898
   255   1      6.4032205522050987      19.245284657271238      5.4474179357710888
   256   1      5.1463956177290715      20.621245297706018      3.5342710664897479
   257   1      6.5919348399536197       22.05532727555795      5.4819878317450819
   258   1      4.9767415592165101      23.190808313649399      3.6674904027226023
   259   1      6.4846747592788541      24.393578663942531      5.5214513551646549
   260   1      7.7590311229397964    0.064452641061985907      3.5444059973416868
   261   1      8.9413259282932191      1.4814989557432123      5.3965107468178459
   262   1       7.640349138955921      2.5796257904692941      3.5072577605019553
   263   1      8.8855206900320471      4.0534663218277602      5.5406432380876449
   264   1      7.5971095938894102       5.025282316785761      3.5542978661644047
   265   1      7.9064727186514796      7.3351896870931075      3.6908357700963093
   266   1      8.9494470386726288      8.9224935470864768       5.473095809094775
   267   1       7.776179161990302      10.081382528720955      3.5678750184376313
   268   1      8.8799393325208396      11.526237294946869      5.2659757905456805
   269   1      7.4511234918230027      12.941048858099748      3.4561555004242246
   270   1      8.6880886168531184      14.196487991442412      5.4410323210155314
   271   1      7.4379269113298259      15.236464805515679       3.530050613118509
   272   1      8.7858303553939177       16.60662379378623      5.4137663514809269
   273   1      7.5361438840103387      17.943360295459048      3.4984450222702215
   274   1      8.8041014811257572       19.34871367097066      5.3878910772776401
   275   1      7.4550027952692579       20.43138100703673      3.5796251110373758
   276   1      8.8792204647984452      21.718194636326622      5.1475913946062741
   277   1      7.8388483355476666       23.05041967406606       3.417103375185798
   278   1      9.0280290910537619      24.373944711878156      5.3991992783864839
   279   1      10.136585330235828    0.080450308264023801      3.5385903210522209
   280   1      11.491770365578606      1.4273464355288814      5.1110922671688668
   281   1      10.149183992502069      2.6626363072853869      3.4769848741781741
   282   1      11.373413821238167      3.9490067358713179      5.5460238257435472
   283   1      10.127642124932139      5.1739058269931126      3.5303733811963749
   284   1      11.162184748273935       6.543313721514993      5.3746468853391463
   285   1       10.19254087250324        7.61227042171795      3.4747111148286436
   286   1       11.30574097493866      9.0649214880406266      5.4770303243423841
   287   1      10.166542421357203      10.180651112053003      3.4715034123076074
   288   1      11.386500086655611      11.476041961140215      5.4054530269782521
   289   1       9.951658445358909      12.892053893464615      3.7064154333082033
   290   1      11.367138192309598       14.02673310097312       5.269081961133903
   291   1      10.045631573832464      15.428268031102899      3.9328387565926231
   292   1      11.496601133441722      16.653128105202519      5.5172146423505026
   293   1      10.051575654610279      17.759845817472343      3.7216123681624724
   294   1      11.425590376106802      19.213509551133441      5.3314151513831423
   295   1      10.227413456451293      20.419410699650658      3.5546167102638386
   296   1      11.514522902199262      21.993928836412699      5.3450460568908209
   297   1      10.382256015003007      23.035234152698184      3.4811797737845622
   298   1       11.34942931247747      24.362869385552493      5.3557090093727222
   299   1      12.863577885773388      0.1253348356271185      3.5354856938006591
   300   1      14.129612308484104      1.3435629645335259      5.4396723698404177
   301   1      12.614286460417873      2.7000697643500069      3.4401675643896836
   302   1      14.019939116188725      3.8750808850916809      5.3955147746975456
   303   1      12.738542842340879      5.1425704543578972      3.4617829347660538
   304   1      14.058670364435425      6.3966452171026598      5.3819736296470815
   305   1      12.685314380482138      7.7034553840655722      3.8464881304522662
   306   1      13.874082471990567      8.9060144924910052       5.497535222493374
   307   1      12.769338757029759       10.13151972434764      3.6963238397237217
   308   1      13.911240679991701      11.631972660292202      5.5299254621341793
   309   1       12.47483711868118       12.79298480487426       3.640949838181295
   310   1      13.806659846776139      14.182265879953983      5.5507087326864912
   311   1      12.464107380293388      15.342343166168943      3.6371007993191742
   312   1      13.789996093553887      16.687436907659144      5.4920482976580791
   313   1       12.69446955582883        17.7463269759158      3.5028196412978327
   314   1      13.982205252392491      19.173450185981622      5.3986733312328088
   315   1      12.736013504585781      20.552775660142757      3.5835137073489611
   316   1       14.07561106057538      21.682697628750933      5.2593371274433904
   317   1      12.832005804810002      23.032245199445065      3.3769406498999848
   318   1      14.110069604747208      24.280240623502518      5.2906241423291869
   319   1      15.328065215446754    0.085889280468698523      3.6162293921153372
   320   1      16.640719252999549      1.3559507550918011      5.3427606952405498
   321   1      15.166850208152317      2.7832721118264652      3.5646298784906789
   322   1      16.388898718415344      3.7074722322983358      5.3382619847520525
   323   1       15.28133843660018      5.1951959807845025      3.5886314711310336
   324   1      16.583771516034243       6.356327274011079      5.3294034648047184
   325   1      15.287934522543555      7.6576993641945856      3.6844660565577088
   326   1      16.432421473566794      8.8362629550809917      5.3736762837071295
   327   1      15.299911540899412      10.354936620975257      3.7016765306444936
   328   1      16.529783477028978      11.516867739932488      5.3158688756230248
   329   1      15.045793884565811      12.687390461654489      3.6123890012171995
   330   1      16.494138005245002      14.101116777088091      5.4182387686836275
   331   1      14.969433411697434      15.255723344035268      3.6391288867553033
   332   1      16.295504493164366      16.553733920668101      5.2882216779990721
   333   1      15.136621205594752      17.790137208288908      3.5428425629116758
   334   1      16.634422061435451      18.926189022081417      5.3985202808026536
   335   1      15.279824845946049      20.370147856549526       3.749266937253759
   336   1      16.597706297952573      21.940633669320967      5.5317518077157075
   337   1      15.181589535380985      23.100421563902408      3.4955088795254032
   338   1      16.569136234375012      24.309869243181772      5.2789868539363285
   339   1      17.649653373321378      25.478171191629627       3.504520038102124
   340   1      19.185080878206008      1.3561593320223435      5.4451203208408474
   341   1      17.796066126094768      2.4584901588468941      3.6335725451982768
   342   1      18.972264114945947      3.8553564737184955      5.4930430873681138
   343   1      17.862138231773709      5.0731970300743061      3.5981533773913044
   344   1      18.958210075684534      6.2451081515607108       5.516049838274915
   345   1      17.864138461514873      7.5453334300933523      3.7231344520270344
   346   1      19.009509314601807      8.7145658043557273      5.3948843022895057
   347   1      17.806112339198741      9.9552227401137259       3.424884167506447
   348   1      19.196760524020469       11.48767531873102      5.3077498640954071
   349   1      17.751032017341849      12.734016131398898      3.5502178837170848
   350   1       18.99053064398764      13.947148356914333       5.487267887890523
   351   1      17.859467024069801      15.318955332201755      3.5267854194847801
   352   1      19.004796871568512      16.589632104806785      5.3970773617510197
   353   1      17.697080720594133      17.655387733315226      3.6068576189017341
   354   1      19.273711688205498      18.992306942654029       5.350321679329241
   355   1      17.765858528119278      20.410064362313001      3.6001758070618033
   356   1       19.34811076921525      21.702956711811801      5.1930351055206154
   357   1      17.789786065862941      23.035054631453153      3.6784694268606239
   358   1      19.335961300728979      24.166751064369564      5.2827198807899967
   359   1      20.491887594180383      25.477026228573969      3.6026510121883355