dump/Cu_560_20/steps_11 (written by ASE) 

1980 	 atoms 
1  atom types
0.0      25.526554800834361  xlo xhi
0.0              25.5265548  ylo yhi
0.0      36.100000000000001  zlo zhi


Atoms 

     1   1     0.11795099897527216       25.46352443971476     0.12213681084081153
     2   1      1.2794285911065399      1.3504295854117327      1.6774120449127523
     3   1     0.19372781315489285      2.6158359562112978       35.97937086571374
     4   1      1.4332394791586345      4.0179714934527251      1.9119007736836804
     5   1       25.45550181706934      5.1095655608933086    0.060109097773113213
     6   1      1.1054929485003475      6.5524607817808969      1.7303358922639049
     7   1      25.450150359374184       7.777708880852324     0.05628154912125196
     8   1      1.2150682799206558      8.9722049003762265      1.8323339465217721
     9   1      25.277476095739544      10.281636041911691     0.15753395111710228
    10   1      1.0196549185114043      11.423554782769287       1.950606564175404
    11   1       25.41463037475576      12.675979170036744       36.01914395610077
    12   1      1.1874942257927867      13.880410195268455      1.6500124762111132
    13   1      25.514380466999881      15.183332379505961      35.975633004437448
    14   1      1.0522966440841444      16.557018796963735      1.8394330026905099
    15   1      25.521019761756602      17.834775895424166      35.918674488116331
    16   1      1.2242594199337908      19.076920172622991      1.8012832706366342
    17   1      25.454965926640838      20.396412322631669    0.056213782015834053
    18   1      1.1983671248405883      21.843082802170809      1.6793389341569296
    19   1      25.496581784414971      23.020721585241049      36.026222050814425
    20   1      1.3891343435305903       24.25759840139823       1.630060988396419
    21   1      2.7130789565150111    0.033788176894480722    0.062246636399345377
    22   1      3.9451429798637951      1.2034911661359675      1.8908317725518144
    23   1      2.5718201416346753      2.6093748332790123    0.054969437647764456
    24   1      4.0555916383123414      3.8979953995704455      1.7640802040050303
    25   1       2.521699304640356      5.0957820589180676       36.05605871286874
    26   1       3.804845287976566      6.3330392312092929      1.6203060241459062
    27   1      2.4495531052666872      7.6560625135012534    0.025059648240562647
    28   1      3.8217161121830561      8.9613346226571071      1.8765326786201155
    29   1      2.4447389123086865      10.208328092348117    0.010011754891490924
    30   1      3.8413878295419881      11.464926507895264      1.8936410325177253
    31   1      2.4908584645288392      12.766706873192222       35.98689747462636
    32   1      3.8403770605279965      13.963398218618931      1.6632591316530472
    33   1      2.5259796126692966      15.406274832632526     0.10756498522092658
    34   1      3.7842199802088703       16.55892704357899      1.8168203572709574
    35   1      2.4161451104818532      17.806304625436091    0.071010017768696823
    36   1      3.8079271635377738      19.147341055250823       1.771915922645859
    37   1      2.4094667050935406      20.356286546058591     0.17509899374979332
    38   1      3.8684508284360062      21.560793616997785      2.0152739288041075
    39   1      2.7218871000574256      22.943981943642846      36.049668689303665
    40   1      4.0422172489043593      24.316135579076906      1.7114652786197422
    41   1      5.5112497588982787      25.403997371781905      36.056322995380945
    42   1      6.6507932119076596      1.3157815489636429      1.9284093377761669
    43   1      5.1102366833585728      2.5300497870894714    0.018974585305409158
    44   1      6.4177344563160057      3.8594670193002107      1.7411232805853838
    45   1      5.2976682025076167      5.0015017893051921       35.87299995368825
    46   1      6.3006634566978255      6.1640856552398784      1.7422403571899288
    47   1      4.8664873994996833      7.8060125545057808       35.88637100686325
    48   1        6.12202632253973      8.6987080900540992      1.6532189554861592
    49   1      4.9372746831461161      10.112028087125362      35.834527647134351
    50   1      6.3317767413055428      11.559421096007069      1.8300112861270461
    51   1      4.9221264904056383      12.732206316108504      35.879601716288967
    52   1      5.1377728265133333      15.215422214430783    0.034414827022760594
    53   1      6.3293322890660786      16.540726001589018      1.7428962639049346
    54   1      5.0291904970582229      17.919339439109411   0.0046168739578547622
    55   1      6.3124040346828663      19.190659549156571      1.7156340105461481
    56   1      5.2283397034064469       20.59339436181882    0.040953211718215088
    57   1      6.2575365449179907      21.627954028890219      1.9236115958825613
    58   1      5.0550318712266664      22.949905562601629    0.011692099987180897
    59   1      6.6296159019882879      24.327303434963888      1.7097267112504471
    60   1      7.8589792253135533   0.0057958809051280877    0.037862054536856336
    61   1      9.2902751350244319      1.4560537270953215      1.8902349958048599
    62   1      7.7489712683291989      2.4959350068710284      0.1174684404369145
    63   1      9.0104017808479266       4.020349639022589      1.8063182247755649
    64   1      7.8941683728563037      5.0639380601089137      36.030345516228664
    65   1      8.6654994117621502      6.4127476175602567      1.7645448854237762
    66   1      7.5793747821436277       7.709612949010455      35.993556575848025
    67   1      8.7643097757066233      8.9676306244860218       1.754907766431633
    68   1       7.639044574034668      10.124107456207685    0.057287651912383643
    69   1      8.9551008992632326      11.604673234093232      1.7187335781957116
    70   1       7.600415673778202      12.804329158488068    0.016884099847459297
    71   1       9.115388751756857      14.212885771307496      1.7581449723013989
    72   1       7.650179844954839      15.216858920538851    0.012336536122370479
    73   1      8.8344409589077841      16.568944093961409      1.6793106771684514
    74   1       7.460723953390878      17.771198924187352    0.014072037371659019
    75   1      9.0198566042899717      19.345789879180863      1.8762779446477686
    76   1      7.6781193207005032      20.391390187928732   0.0040943186456957039
    77   1      8.8424233854778791       21.68760403311148      1.7841084246896906
    78   1      7.6188595896658899      22.956827920862793      36.033220835450692
    79   1      9.1242700109920918      24.186945740101088      1.7554679226111836
    80   1      10.234847290053624    0.073991353762947548    0.021316459918932641
    81   1      11.585692286217864      1.2017879329401053      2.1454747232883054
    82   1      10.447217715085106      2.5640547019690021     0.29669597888619148
    83   1      11.681932343201757      3.9253146486127886      1.8293456679293503
    84   1      10.458783551294033      5.0738126128385748    0.085844828471238074
    85   1      11.681823199929342      6.4472412724857149      1.8677183296912172
    86   1      10.286133274328501       7.751901729373758      36.036421284731041
    87   1      11.390077364359007      8.9432023863065204      1.8719002457719527
    88   1      10.135480712512262      10.178106254734676    0.018420095904059491
    89   1      11.617242685025463      11.520391938344087      1.8439236423615855
    90   1      10.109212804475552      12.740337678523881      36.008464862942347
    91   1      11.501404989345515      13.967954883174768      1.9381783931408219
    92   1      10.286894251006713      15.341720554932522      36.060559607304107
    93   1      11.526664646842667      16.505097897909582      1.8245353865198004
    94   1      10.116460784961843      17.992529028798224     0.16870747679284917
    95   1      11.501334867564395      19.195454809022849      1.7632163828603553
    96   1      10.215267531962915      20.561109842063569      36.060574838964676
    97   1      11.558958227930928       21.65761039648849       1.770766321130737
    98   1      10.430571338260229      23.024152777638403    0.050248797906476884
    99   1      11.513358756236279      24.284028484065299      1.6976964627411344
   100   1      12.889589475332471     0.17668519442507377   0.0083078097647785402
   101   1      14.079333547971659      1.2900224372566695      1.6530863495757231
   102   1      12.858925558699308      2.6227148974861243    0.097944180658328203
   103   1      14.126109485477453      4.0114458450783479      1.7105201682964657
   104   1      12.857651914289852      5.0144729745890562       35.95739354745654
   105   1      14.104020331809492      6.3427423782097145       1.599206420190614
   106   1      13.074961006242015      7.7142835735697144      36.071223480751037
   107   1      14.268678737290902      8.8721233711687848      2.0252175674794564
   108   1      12.805843654516279      10.312642567843815         36.040182722329
   109   1      14.092029556332884      11.365055410969505      1.8518549064972951
   110   1      12.980576673574781      12.831539433371068     0.11434002808427977
   111   1      14.169853151169015      14.117104292748426      1.7708905205621477
   112   1      12.669418017765397      15.120891691320002     0.20283690057453888
   113   1      14.162328986620624      16.539616917769735      1.8643616852508675
   114   1      12.652079735722122       17.75129947004206    0.091410911696573199
   115   1      14.162638514412635      18.988230565330813      1.7341209781077964
   116   1      12.852467697585496      20.314750730158448    0.045612125228740447
   117   1      14.045588029497056      21.635766537591653      1.8666636168434254
   118   1      12.882724106823607      23.249369422635091    0.067198327963126275
   119   1      14.010160045467462      24.167572773674539      1.9870541100642631
   120   1      15.438589460750714      25.409848965037074     0.12441031733706032
   121   1      16.539058754590602      1.2594000257194011       1.869009994769409
   122   1      15.472767024112832      2.3511620473095092    0.071544302588017555
   123   1      16.652295878620009      3.6671201996223943      1.8999035567888085
   124   1      15.547319223567158      5.1089588518822762      36.080579856404256
   125   1      16.542963274027578      6.4508225357283591      2.0266866996352055
   126   1        15.4872107857076      7.6244295872290673     0.11217873035641314
   127   1      16.663947429771802       8.973885560407922      1.8698355889588114
   128   1      15.441043176666406      10.154388308528311    0.076746357476554269
   129   1      16.680718910886835      11.363601957027056      2.1482471192975723
   130   1      15.433431814828134      12.483990391807122      0.2211273870868242
   131   1      16.691790043824085      13.714989555718345      1.8112351304952317
   132   1      15.572168660807895      15.080132519952363     0.11324008704016243
   133   1      16.602679403180453      16.482544597280238      1.7066573184410914
   134   1      15.296964302891841      17.749810046650637    0.021043259091663925
   135   1      16.543528827659028      18.961834629754811      1.7941159407448013
   136   1      15.345892465380413      20.173810871252734      36.047031432200875
   137   1      16.484696166370526      21.537721094519796      1.9163820556040023
   138   1      15.328122959878854      22.862407617110001    0.089966821032555683
   139   1      16.872239017548239      23.974195142467046      1.9974073879877878
   140   1      17.938096519773428     0.13085086614866495    0.015208652619594441
   141   1      19.142997780353511      1.5060591916011339      1.8765924595017187
   142   1      17.878570817056644      2.7014279583037788     0.11403528341388659
   143   1      19.106230417607204      3.9829636805990383      1.9166203935615047
   144   1      18.069778634592055      5.2273247578938706    0.089909901443797818
   145   1      19.353657936119397      6.6017244983534384      1.9313227662890649
   146   1      17.975058798308503      7.8548844229214208     0.15640667758522098
   147   1      19.224820048548835      9.0142373498673614      1.8499150537102997
   148   1      17.888975429731357      10.545517582487111    0.096370071547403485
   149   1      19.170042451052861      11.541906016164383      1.7288241441640948
   150   1      18.135223420421671      12.834438469203363      36.048531199641388
   151   1      19.172766206744207      14.114185056759103      1.4938073974445842
   152   1      17.939677246376281      15.604413147897843      35.978501311058281
   153   1      19.208303825293704      16.803219934614486      1.7401621715975113
   154   1      18.069229060710907      17.960877763109231       36.01763884793187
   155   1      19.346438140990134      19.423048221207775      1.7550114401355918
   156   1      17.904718531264127      20.570407008591161     0.14591147163636164
   157   1      19.106914598013432      21.696577953860267      1.8389961685607645
   158   1      17.770816143515205      23.005193561054632     0.16156021661017797
   159   1      19.257677821608421      24.420113472615881      1.8867828398802655
   160   1      20.542302633801913    0.069498135751577289      36.067419268768383
   161   1      21.651312327433466      1.1864871738702922      1.9160546018030806
   162   1      20.481876748092326      2.7035511638967114      36.058001160100325
   163   1      21.644437333121061      3.7869584126966274      1.9268415956676894
   164   1      20.480372343310922      5.2211310224151974      36.041048343683578
   165   1      21.662824663506509      6.3104717879908101      1.8842313232429779
   166   1      20.434236137824932      7.5546930340587881      36.033402851385908
   167   1      21.581537757418729      8.6605654690656841      1.9698948193385737
   168   1      20.187670151360386      10.107462790262554    0.005573287918684851
   169   1      21.592453117494095      11.463228303664799      1.8851635236106081
   170   1      20.633846090198944      12.544801251303237      35.906685641120689
   171   1      21.607657333549117      13.977298908816543      1.6078800504765345
   172   1      20.318818776608452      15.477216177722426      35.859845907560931
   173   1      21.726101698736418      16.410947422478664      1.8921826758517666
   174   1      20.502922630887529      17.960589695229494      36.067897354602074
   175   1      21.702770786970376      19.306006405586505      1.8071703806955175
   176   1      20.300151443767035      20.532738552314179      35.751205040798801
   177   1      21.548101358135636      21.730199482972921      1.5744077346784124
   178   1      20.271657440523246      23.080144361471429      36.032114485934308
   179   1      21.741822291138384      24.124978432383998       1.732480482677226
   180   1      23.109507259523049      25.453598487731249      35.900102603811803
   181   1      24.329952973991954      1.3382635841611761      1.7708092039928158
   182   1      22.954747865282361      2.5496504146034824     0.10976945214536039
   183   1      24.272493771114416      3.7693262668042928      2.0115608870700949
   184   1      22.859788611838308      4.9116478431518935     0.11217491992597391
   185   1      24.300111836451887      6.3025146784605264      1.7990378532590754
   186   1       23.05690344757334      7.5628802110918754      36.066433833078456
   187   1      24.056523868483577      8.9082628438673215      1.8145673892248495
   188   1      22.644963233678876      10.074415915775372     0.13942444572329563
   189   1         24.168362748596      11.535419772213311      2.0233858998965508
   190   1      22.997304570235094      12.737290027555551      35.984783903975561
   191   1      24.138399146347929      13.998009793604403      1.6322717839212817
   192   1      22.893524285301385      15.258417313442536      35.991535032335733
   193   1      24.337503785036155      16.488736684557797      1.7610075647089058
   194   1      22.917953301037937      17.890870449936681     0.12643662125667568
   195   1      24.379201112393332      19.037864895055556      1.7193669591921881
   196   1      23.043024812781873      20.438178168595464       36.04082048159848
   197   1      24.213705470083358      21.573685364483218      1.7957537389560341
   198   1      23.106819099025781      22.933332520225338      36.062649396467492
   199   1      24.336593271562236      24.158928367186441      1.6561908858230834
   200   1      25.496751908956011      25.376401845040473      3.4893321835536066
   201   1      1.2976472158928882      1.2651362439745322      5.2204253217083236
   202   1     0.30907877040541254      2.5181663947386332      3.4604305668459796
   203   1      1.4607443210722559      4.0640828028781959      5.3769160662958981
   204   1    0.073158497883997767      5.3242475126639395      3.6005563433936816
   205   1      1.2903827999006572       6.662197062839998      5.2012762249836584
   206   1       25.45124551332632       7.699504995015011      3.5965828714745487
   207   1      1.0816966150308196       9.004993606281543      5.5163486157104202
   208   1      25.397643656677278      10.092003159275631      3.5655759466399228
   209   1      1.2216013893009425      11.499648178942911      5.5103906442514976
   210   1      25.317131421655194      12.685697831756967      3.6323874794321473
   211   1      1.2241667203133249      13.937434540669786      5.3501236750204511
   212   1      25.358967860208498      15.158235139448195      3.4754269388905086
   213   1      1.0297357780360856      16.338739870307382      5.2376742994279084
   214   1      25.362983768508371      17.761808965934549      3.5434320598152014
   215   1      1.1421076647829891      19.072489219665776      5.3967191390585629
   216   1      25.399930867792879      20.177899774619341      3.5555072186012344
   217   1      1.2928807579639641      21.651070784014557      5.4126943777049314
   218   1    0.019305724902503672      22.854714367475452      3.5916887476961623
   219   1      1.3431106719395627      24.241282272384424      5.3001172448370646
   220   1      2.7431249603645864       25.51220071559186       3.633341576885909
   221   1      3.9468442134368891      1.3038320431374739      5.2470725209635978
   222   1      2.7368857883047233      2.7632841863348223      3.6703056617465202
   223   1      4.0558210317511723      3.9658438616318272       5.479164694517082
   224   1      2.4402997821673282      5.4686663561197157      3.5194057389609825
   225   1      3.7521245975472208      6.4463488125289974      5.2646817706897151
   226   1      2.5781948504954229      7.8091867635203931      3.4412414047285438
   227   1      3.7917565082026385      8.9536508642385186      5.5101138851001172
   228   1       2.377526244849991      10.076916223762973      3.7554979347547608
   229   1      3.6721540444079719       11.35561757352621      5.4513359191747037
   230   1      2.3465185536459989      12.747073208490079      3.7142909914031805
   231   1       3.855247645564603       13.89481380874701      5.4223618538986598
   232   1      2.4458513803979693      15.243985184654489      3.4381347365106207
   233   1      3.8862540484573413      16.632790902414843      5.1331830179493503
   234   1      2.3161146826472248      17.973220157445091      3.4981884802717231
   235   1      3.9033446325912711      19.250246768363482      5.5859454284270829
   236   1      2.3290431212626119      20.646999943163422      3.4477513193057705
   237   1      3.8919173560891567      21.861089167606952      5.4202107430389761
   238   1      2.5231801224845101      23.014958540491488      3.5811953828524579
   239   1      3.6769594242536248      24.448779681826618      5.4723735134458114
   240   1      5.2585601585850643    0.079144956468104016      3.5998167196817232
   241   1      6.5586849895751564      1.3316545480395658       5.430474611922552
   242   1      5.2998943043342974      2.5804047142267796      3.4523035594088927
   243   1      6.4622861898987827      3.7391393577791825      5.3401814821766633
   244   1      5.2360809949806528      5.1107296695332156      3.7107225120391121
   245   1      6.4902522319396789       6.399860666358097      5.4351780926320927
   246   1      5.1050311624795697      7.5714277278181044      3.5971165546294617
   247   1      6.3103887423006544      9.0079594372274467      5.5607403682320085
   248   1      5.0036863846362225      10.166834158273247      3.6448234883890969
   249   1       6.252014475218548      11.491484638242614      5.3678539952817452
   250   1      5.0277950490036387      12.541629555696133      3.6259577996135985
   251   1      6.5039216908499426      13.774930582829263      5.3021923956688664
   252   1      5.2471533293161716      15.063423701360355      3.6260203900969472
   253   1      6.3878076654403264      16.444308804165221      5.1973733448337196
   254   1      4.9869339513359643       17.99553516287196      3.5947471563142912
   255   1      6.4489881162353884      19.145856987564738      5.2155406629863439
   256   1      5.1084962733227064        20.3214777257671      3.7403790739640463
   257   1      6.3137523569235281      21.668828276940488      5.4403627680251079
   258   1       4.944490178895653      22.977335172444111      3.6282200496652526
   259   1      6.4047961027442684      24.378282542295818      5.3762627420415212
   260   1      7.8794475464207148    0.013289301863950796      3.6759901662153318
   261   1      8.9716059400234958      1.2952094515441603      5.5717260921243019
   262   1      7.9082282002231485      2.5321548224628465      3.7308483951477189
   263   1      9.0994991535607497       3.739225498372003      5.5401766246375157
   264   1      7.8778453279541969      5.2606333783834689      3.6783168111156597
   265   1       7.684557503535733      7.6119379011597026      3.5627046810898277
   266   1      8.8302371902628227       8.720351370352061      5.3958190690379366
   267   1      7.4122825507574603      9.9856048526554826      3.7605532133891804
   268   1      8.9014913105832427      11.455631440422831      5.3289893780064332
   269   1      7.7001458492938513      12.673801094641085      3.6011173905065572
   270   1      8.9173308032330993      13.851842122820377      5.3298083906723557
   271   1      7.6695361125136703       15.16542732673066      3.4507394341037636
   272   1      8.9484297575423586      16.440114029104397       5.259314001061858
   273   1         7.6364272817157      17.935432076064853      3.5093203454777275
   274   1      8.9245045613042553      19.035536956832345      5.4347038764119304
   275   1      7.5968317002685195      20.536098274222059      3.4528241710340462
   276   1      8.9404884777444185      21.561629955411927      5.2820291270018958
   277   1      7.5973716462856462      23.071205572772488      3.5912630782557371
   278   1      9.1395723558407536      24.025948650099146      5.2306233265716724
   279   1      10.342906246629369      25.415094875598353      3.6085779995205831
   280   1      11.548757111840864      1.1206347796337977      5.3778357922015951
   281   1      10.201333187540598      2.4634384402936793      3.6366885232803536
   282   1      11.597834626317859      3.6976400496726307       5.475459074710276
   283   1      10.283034104021528      4.9330384278039192      3.5814551294882682
   284   1      11.441068211105071      6.6336603803801548      5.3256931624308841
   285   1      9.9600338565279305      7.5744553967781485      3.4378750470858912
   286   1      11.419657511768923       8.997754158908057      5.4325547359446134
   287   1      10.076734324961842      10.021535466798536      3.6165743344863222
   288   1      11.589955894548439      11.586702312176373      5.5652376186723593
   289   1      10.076625403483121      12.768126020266331      3.5069433818177687
   290   1      11.395420064244414       13.91734495646145      5.3890297189470031
   291   1      10.254037177194945       15.26549966066859      3.4033399161892937
   292   1      11.541391176168334      16.587610533599904      5.2729808950488746
   293   1      10.242224240979724      17.743415914960089      3.4604696844883285
   294   1      11.281223544634006       19.17183897460734      5.3703575724878796
   295   1      10.275718821305833      20.403927268604079      3.5772896966549199
   296   1      11.364172122230247      21.657808656716771      5.4505462674782503
   297   1      10.201197670940763      22.974999013753095       3.482110134955438
   298   1      11.774295018950509      24.197250004201987       5.493279212561835
   299   1       13.09179299831197      25.516920793642427      3.7239727861804788
   300   1      14.148621180195981      1.2250768107700469      5.7115656658711584
   301   1      12.944413741511188      2.5918648127802384      3.6494946690021455
   302   1      14.020242956027381      4.0154671711086003       5.430558989358663
   303   1      13.143668580356413      5.1684047125280204      3.4794277775994242
   304   1      13.864805810031356      6.5141741834829192      5.3338221608218488
   305   1      12.575958648274678      7.9845638517281694      3.5989224216026292
   306   1      13.899256608165558      9.0337572100279804       5.593079489204615
   307   1      12.759655414966844      10.300917299309443      3.5791409705987789
   308   1      14.255932648039067      11.624323456224424      5.5019996273702061
   309   1      12.815356485352373      12.871053611683196      3.6919358301509537
   310   1      14.159299042814629       14.25388162443998      5.3418781024708606
   311   1      12.800142042613293      15.216488988624466      3.6481290884535342
   312   1      14.110072666862484      16.589284038392815      5.5136624231968083
   313   1      12.877463148277828      17.730240784297944      3.5265335019023727
   314   1      13.925714587458511      19.153123272666402      5.2529072013011842
   315   1      12.782223605947179      20.226341803843709      3.5978005763641003
   316   1      13.964080377852643       21.68381227631653      5.0867528674383253
   317   1      12.621893537682585      23.078992783866408      3.5599060518048318
   318   1      14.157742731775281       24.29456753928536      5.7890480534731861
   319   1      15.513245538106593    0.038984306921263381      3.8549197956473571
   320   1      16.791715433242729      1.3231998615223903      5.5090451475301379
   321   1       15.32042241239356      2.4580338746537667      3.6581858993663645
   322   1       16.61457606342476       3.683717262520017      5.5492396602986496
   323   1      15.581282649267626      4.9337897852226238      3.6444447813836085
   324   1      16.651485779250361      6.4050276825861623      5.5897939329360646
   325   1      15.199127733811066       7.588903302978065      3.8415810422815304
   326   1      16.500263543756972      8.8673042199332457      5.4582078460342141
   327   1      15.259937755483454      10.131063942101791      3.8896410682949312
   328   1      16.650266239986863      11.549139467437934      5.5324569221913125
   329   1      15.301564696588496      12.788933705259307      3.7994156998676942
   330   1      16.874178652999639      14.213819746928314      5.3038244939202626
   331   1      15.618412790831286      15.386090764929676      3.5453454316730713
   332   1      16.686330077108931      16.570222011075078      5.2668027451275981
   333   1      15.336840912948123      17.747453223573018      3.7409649441815649
   334   1      16.697411224771557      19.084458332220876      5.3597424028084433
   335   1      15.377004418645532       20.21146155013809      3.5438238925532133
   336   1      16.555411193476935      21.767886619771708      5.4309373359917501
   337   1       15.47778426556992      23.090089562779614      3.6402572273395215
   338   1      16.588880283297357      24.261205816946539      5.6150996933896451
   339   1       18.08823162940962     0.16906942472059786      3.7535349397485063
   340   1      19.307936908041547      1.2276990160484766      5.4999871309512782
   341   1      17.782494639410576      2.6336067871376052         3.7061642074956
   342   1      19.363258545534269      3.7306350884299846      5.5124035921290826
   343   1      18.098813722079779      5.2114472678401507      3.8133425752611361
   344   1      19.088599281317151      6.4147565471386478      5.5622270446134454
   345   1        17.7889533857084      7.6320088885234805      3.7627277682667857
   346   1       19.02337903941395      8.8859597330275193      5.5240904487370184
   347   1      17.965111416995466      10.135467633625247      3.6926308052304622
   348   1      19.176023113118259      11.605016406570483      5.5219833558828206
   349   1       18.00077468832227      12.626945772915713      3.8521844275533166
   350   1      19.336935088250513      14.090939617814268      5.4171331601513275
   351   1      18.086191987340033      15.201864258526607      3.2945260281246975
   352   1      19.268815888687005       16.57006998019072      5.1930908319668951
   353   1      17.882607612181051      17.763024488566284      3.4892886531966938
   354   1      19.095011382778218       19.14172137804432      5.4213370868415103
   355   1      18.009332818228554      20.258495907943669      3.6362008992203809
   356   1      19.101954904616569      21.607874280064472      5.4223323005497273
   357   1      17.859453469412305      22.748903388010131      3.6605184382147784
   358   1      18.984383385668931      24.302547019005782      5.6121619626145733
   359   1      20.586055211988892     0.11099891514547959      3.8041651611074885