dump/S5_s00_n130_r1024_400_20/steps_11 (written by ASE) 

1559 	 atoms 
1  atom types
0.0           114.158223526  xlo xhi
0.0      7.2199999999999998  ylo yhi
0.0      22.831644699999995  zlo zhi


Atoms 

     1   1      2.2265318785653325      1.9206545187031918      4.4938684610578621
     2   1       2.105022711937977       5.651533671661352      4.2766669386007958
     3   1      8.0825314855248394      1.8221691454757643      4.4026652257752907
     4   1      7.9846142108705562      5.4082369595423119       4.535158057726898
     5   1      13.866469185751681      1.7484958463693852      4.5304835085440347
     6   1      13.651713441179085      5.5225801486546144      4.4583988744843914
     7   1       19.42418346421784      2.0068014776751264      4.6143252590219781
     8   1      19.460619393427962      5.4703681678835228      4.3436319513784216
     9   1      25.206882277009019      1.7662583773670422       4.414063291943382
    10   1      25.023838144779578      5.6083883955481735      4.4765560616640272
    11   1      30.868708630491817      1.8369843025783958      4.3225070161363952
    12   1      30.856989730011318      5.4742429905679968      4.5012999257927877
    13   1      36.635565469733628      1.9138301860638109      4.4641632722108042
    14   1      36.688320910279359      5.6544612004881314      4.4931903641401414
    15   1      42.320808902874994      1.9201992274320938      4.5315993269418469
    16   1       42.36290401189315      5.7029896364764783       4.442489566891676
    17   1      48.077006410371531      1.9392016771397678      4.5085359199775947
    18   1      48.130745860556381      5.4840482588452373      4.4415540291240267
    19   1      53.806678895869268      1.9742529010383187      4.5160604209416535
    20   1      53.824203425878643      5.5382056622214613      4.5229208626411461
    21   1      2.2099898139993819      1.9371940349875612       10.30144374173635
    22   1      2.1991545061636688      5.3453915305606623       10.22658479893269
    23   1      7.9905428064282855      2.0373223669914107      10.244457917502441
    24   1      7.8505958903510935      5.5223258054216453      10.302888040108799
    25   1      13.554865894715377      1.7807176514379801      10.090815490449154
    26   1      13.713421004052339      5.4631536188817273      10.276069934364571
    27   1      19.413060157399062      1.8263973389745158      10.377303505429527
    28   1      19.369277973036933      5.6179425714935745      10.206356908701364
    29   1      25.222576375691908      1.8898787191321924      10.183691448589645
    30   1      25.141431357983649      5.4166735004398063      10.144701539730418
    31   1      30.867510675899954      1.9305690280745471      10.255398110637413
    32   1      30.996248756544016      5.3074114724762484      10.096823664669467
    33   1       36.71909190300633      1.9119850839611925      9.9488354987843763
    34   1      36.827148254806538      5.5499407145867012      10.091573623580338
    35   1      42.372683877089727      1.8970935356085186         9.9911675286363
    36   1      42.575198106805232      5.4800845750773917       9.916868719199833
    37   1      48.065619381481554      1.8029706020968543      10.082769431502383
    38   1      48.200088609133161       5.491623656680817      10.096871692807788
    39   1      53.919746985323776      1.8515252940935134      10.284413561302483
    40   1       54.46497098005716      5.4309817284088684      10.315072769844663
    41   1      3.7623143238559726      3.6133871889569007      16.469930973337863
    42   1      2.1461989351564754      5.4731574126344418      15.769907830125609
    43   1      7.8814401358936994      2.0156126603605173      16.068933803644892
    44   1      7.8149623315618912      5.4641988539577913       15.90534135011438
    45   1      13.624308942300736      2.0670272466843067      15.942727486187776
    46   1      13.682208892222992      5.3607978942769163      15.968253779725826
    47   1      19.329690907461924       1.995726556136604      15.769936813532997
    48   1      19.368337624822686      5.5970599896430659      15.957670029578402
    49   1      25.204806681472174      1.9656284760842169      15.935913020813873
    50   1      25.180261928943931      5.3129646825522823      16.041654179492447
    51   1      31.021860974148026      1.9150960490892581      15.752545307895303
    52   1      30.920441127795222      5.3906908441274295      15.761080049636478
    53   1        36.7820512105801      1.8797769532999347      15.792615188058237
    54   1      36.737209612534414       5.542816567969302      15.926353891290001
    55   1      42.383124884839226      2.0966377883415004      15.956950547913024
    56   1      42.292107211254439       5.617321149897597      15.702675692330974
    57   1      48.000622796803562      1.9346875286807252      15.849597900366163
    58   1      48.082136661554792      5.4637720703007622      16.020554635807734
    59   1      53.611947360281853      1.9356073674375363      16.188825971966061
    60   1      53.434310561804828      5.5196387675736487      16.068074566282888
    61   1      2.0262073820133306      2.1001361603492437      21.563248821821954
    62   1      2.0389057918598059      5.4103815436033154      21.596396578165894
    63   1      7.9783891859197604      1.7394356386216572      21.585443009335346
    64   1      7.9831483261146223      5.5396527726538363      21.561349641496356
    65   1      13.659994259149158      1.7115246852464765      21.703579181956012
    66   1      13.692278433716448      5.6960239506805364      21.683276003986276
    67   1      19.640982328927382      1.8282491009551813      21.691138655919108
    68   1      19.390643697965057      5.6079641112438567      21.574697754513554
    69   1      25.075332680939042      1.8218380510792347      21.380837255812509
    70   1      25.106432359606099      5.2733706809976324      21.393213303472216
    71   1      30.907881940476582      1.8898977162657131      21.536018180264819
    72   1      30.995611692140539      5.4726925358222029      21.652765069701836
    73   1      36.601172011668204      1.8552218588003071      21.673068138640993
    74   1      36.619514101989935      5.5201906092461162      21.527868686067393
    75   1      42.191501048521665      2.0176030349096128      21.628940076483872
    76   1      42.178506451781359      5.5735524729254937      21.566011857417859
    77   1      48.016334772415505      1.6932268270829793      21.693968825932451
    78   1      47.918047542151889      5.4883364830640042      21.621233170720338
    79   1       53.53807331637767      1.8849609771646256      21.797827789167435
    80   1      53.769159265706897      5.5776485678078425      21.755408084897127
    81   1        114.126471204468      1.6707223723940861      0.1071851135624735
    82   1      114.06393779301058      5.5987485619936042     0.13468997449420594
    83   1       5.622796319456536      1.9941422489516569      22.794294150806046
    84   1      5.7893097312463695      5.3995477007540638       22.60842431803643
    85   1      11.369420903612541      2.0770000683895313     0.10481469413289225
    86   1      11.516796176902664      5.4911440749295952    0.055764054222702274
    87   1      17.267013854170578      1.8481067599308596   0.0073419936621216229
    88   1      17.203447334343988       5.525844679119972    0.098030425169041396
    89   1      22.739553477313894      1.9299451764612499      22.731109231180721
    90   1      22.829455549601427      5.4475853858899628      22.686045542231376
    91   1      28.701489792384919      1.7559995902204975      22.685364968721569
    92   1      28.546441715059476      5.3132816684899451      22.813144393049356
    93   1      34.452557913753054      1.8995618798384475      22.798356777273181
    94   1      34.386374679025728      5.4966801213633385      22.611968244678494
    95   1      39.981727353870369      1.9833057213701908      22.690175763171588
    96   1      39.961601554550001      5.6502848861028685      22.534958644622101
    97   1      45.763245905330024      1.8607050092867419       22.71763753460311
    98   1      45.674282175527374      5.5198031197543012      22.784559719990018
    99   1      51.412259572069637      1.8583556562786081    0.077157214067141947
   100   1      51.521305857733637      5.4725188279174013    0.040921785145556978
   101   1      114.12078385969322      2.0656116446217223      5.5295009671599322
   102   1       114.1558053039475      5.3911013954269533      5.5951178639958954
   103   1      5.7583036072650531      1.7552057160761358      5.5982497157177713
   104   1      5.9218614608483007      5.5578751594886597      5.8169769633245298
   105   1      11.641084221405341      1.9417899023600536      5.5794278620402205
   106   1      11.405505052746829      5.3275499366120673      5.7796328152763214
   107   1      17.171754169935621      2.0536472491845483      5.7666532470869969
   108   1      17.186146256960189      5.4357939161524138      5.6661361652681093
   109   1      22.785106361563795      1.9627762548524172       5.665660116268044
   110   1      22.967735954093637      5.6503180857397739      5.8886554998011746
   111   1      28.584051422803782      1.9093682184685448      5.4886876234940578
   112   1      28.565308789943369        5.51157202039614      5.5440071870578507
   113   1        34.4760259207955      2.0390127027968039      5.4911089671901454
   114   1      34.430339283743074      5.5094043034206965      5.5833920915719464
   115   1      40.072665676375806      1.9772458859079278      5.5292595113058445
   116   1      40.123751680316303      5.5097601789378006      5.6861843856767953
   117   1      45.717004018582649        1.92609639787098      5.4866174491596551
   118   1      45.865145854731395      5.5569127336264481      5.4617366914437619
   119   1      51.504631896922042      1.7301352908880046       5.700340906985228
   120   1       51.68463978099944      5.3565020953371398      5.8151367935172162
   121   1      114.02009584063691      1.9163620255321903       11.32632612972788
   122   1      114.09128131304847      5.4911990522571079      11.161919477643204
   123   1      5.4082631478672223      1.9915299749142938      11.298822497990514
   124   1      5.5301988562547395       5.568389224727631      11.453853017329379
   125   1      11.134499559763603      1.9466499684518623      11.380620581974657
   126   1      11.173485223257384      5.3887896067228338      11.534490480720228
   127   1      17.132397756158987      1.6946943078905039       11.37022722003589
   128   1      17.103932517787069      5.4313646040411525      11.384988442462024
   129   1      22.952472543993387      1.9221014164523436      11.322283943293838
   130   1      22.880498327136273      5.4728415013819252      11.248630597637058
   131   1       28.60966468741826       1.813898934141368      11.396668365031212
   132   1      28.499779621838016      5.3644694560244996      11.244965409355336
   133   1      34.507995634689884      1.8315813615825289       11.19214642803478
   134   1      34.483467471787321       5.546172302473547      11.380524166139784
   135   1      40.251001551888763      1.9794737464873331      11.274825575802717
   136   1      40.267053490547319       5.507402731525187      11.002961637376423
   137   1       46.06475696516658      1.8667929098841789      11.264735975997143
   138   1       45.90436491137546      5.5227140085786184      11.180234904126372
   139   1      51.745467794444679      1.8233939455376142      11.271028049206324
   140   1       51.67401045604116      5.3255346053347585      11.414723697378196
   141   1      114.12614851948034      1.7254747580608996      17.247797577611358
   142   1     0.15764978360240936       5.485840079943693      17.024574896780393
   143   1      5.5535890989693533      1.8460933667294364      16.858288233041058
   144   1      5.6208425086907665      5.5984547059620766      17.083996910806977
   145   1      11.367360877049929      1.9734962802397402       16.94432134367911
   146   1      11.309113819209397      5.5630211442909321      16.850218974037599
   147   1      17.215392337629314      1.8751385044405426      17.041233614446867
   148   1      17.143993708819181      5.5386299854432623      17.121063843359881
   149   1      22.667862980394688      1.7363565545340707      16.983750347321106
   150   1       22.73885468461927      5.6336071595457478      17.007873660159969
   151   1      28.726877677136919      1.8489543387705305      16.956822333060117
   152   1       28.84849221932086      5.4784134278779542      16.856847674042864
   153   1      34.313772965955444      1.8663086066845709      16.838676693754756
   154   1      34.279277398202701      5.6822953858015577      17.011960784098523
   155   1      40.017291588034148      1.8092396724131681      16.938174363679341
   156   1      40.153427334473612      5.5288429012011946      16.948270618135535
   157   1       45.74783413382012      1.9538867425250876      16.816608559096164
   158   1      45.701576227116036      5.4183381992928075      17.018252335118518
   159   1      51.331454270924432      1.8515459143563313      17.123842306204519
   160   1      51.265737686471986      5.5811682144065458       17.23407289081624
   161   1      1.2336862438432403      1.8515904144427247      2.3167682375591716
   162   1      1.2208315625156692      5.4334549189903756      2.1567689606369362
   163   1      6.8067657080878732       1.954756290484299      2.3381164696899228
   164   1      6.7522262985494352      5.4888435940319571      2.2049717026989999
   165   1       12.44428411378205      1.7971356833335388      2.3963944090665952
   166   1      12.638649018083523      5.3677839861093011      2.1309164838891705
   167   1      18.498196522839439      1.9557780885776526      2.2533789067440102
   168   1      18.400145855036786      5.4397212542976598      2.2501598751309801
   169   1      23.963796712511474      1.9707666239720938      2.1800361023380197
   170   1      24.153500648861744      5.4802806300010474      2.1104893763072741
   171   1      29.841812335611213      1.8587047446119256      2.0628869750580652
   172   1      29.718794988105955      5.2961294069804516      2.2236952485409693
   173   1      35.595969371385088      1.8689443434266657      2.2628361305499345
   174   1      35.243805663163904      5.4462879387462628      2.2815134029829447
   175   1      41.042197263688188      1.9225123014024721      2.1552006784290425
   176   1      41.318036925189503      5.6195178363890177      2.1413935882794881
   177   1      46.912212837000006      1.7633710229788218      2.1079867162531922
   178   1      46.905246905759341      5.4528493998009147      1.9983491876948585
   179   1      52.560421472614088      1.6847681881891512      2.4267137848512426
   180   1      52.555081915982079       5.555162317799363       2.205033106911845
   181   1      1.2295007721028108      1.8690148101506729      8.0684029199090368
   182   1      1.1254488989360436      5.3609527597216795      7.9142522307651433
   183   1      6.6899688491937006      1.8664887747999206      7.8787031473558393
   184   1      6.7878033551573198      5.5230757219416216      8.0580914491859357
   185   1      12.458886343328865      1.9310349211542457      7.9688516135829355
   186   1      12.633565127614238      5.5521849314853329       7.974300972173487
   187   1      18.321844577089394      2.0880092720250945      7.9612125621580603
   188   1      18.194220934836164      5.5200699456122591      7.9328900900210844
   189   1       23.99489330285224       1.786097526846262       7.973654952627184
   190   1      23.992376388710777      5.5225915551571978      7.9447405835406384
   191   1      29.783966696525443      1.7366923707532809      7.7618143472943411
   192   1      29.887561244524438      5.7134534576864855      7.7764062229912172
   193   1      35.396042947149333       1.870112753303361      7.9327970910707704
   194   1      35.458485133848114       5.407112345367036      7.8863266511220385
   195   1      41.192925684488216      2.0958970938950081       7.613198848076471
   196   1      41.255415745597446      5.5274236667692529      7.8118699679103027
   197   1      47.060012590605076      1.8088652706762354      7.8865614094270846
   198   1       47.09347667109347      5.3463833991779346      7.9159150143236312
   199   1      52.800755533310614      1.7699066368324008      8.0728176480240581
   200   1      52.879628221879663       5.425505183456516      8.1672219423250354
   201   1      1.8726512051737068       1.903674391990746      15.822068858676049
   202   1      2.5709342755419167      3.7293689008198005      14.152821000627448
   203   1      6.6682828051288574      1.9287858004048453      13.639080448032844
   204   1      6.6311889350573425       5.439224206592419      13.680580213840011
   205   1      12.422776764187857      1.8750474962334629      13.656984889460512
   206   1      12.418108379353018      5.3464504857677877      13.758046294473477
   207   1      18.285328097190959      1.8216136722366933      13.545434194275934
   208   1      18.366080450881871      5.4815875022847358      13.785654104382797
   209   1      24.072160408522237      1.7739864861543762      13.461332817671805
   210   1      23.931334779402693      5.4975542145090914      13.468342846922708
   211   1      29.787499273116115      1.8731377180999769      13.540385895068656
   212   1       29.86839246022581       5.401473678222688      13.513584555208231
   213   1      35.545503816097195      1.9875489403804143      13.618245025317284
   214   1      35.607628064435154      5.5683561781365309      13.551384931657607
   215   1      41.357562501883955      1.9058969701699844      13.563204310657113
   216   1       41.22369122113021      5.4601888616702734      13.293855743640121
   217   1      46.895484226540823      1.9159032001667573      13.698998697435872
   218   1      47.085600213173365      5.5169723838677767      13.458222845019415
   219   1      52.742919000972222       1.967427484721725      13.659231941608965
   220   1       52.64619549094769      5.4706335394283823      13.673689105815246
   221   1      1.1828496044320365      1.8498642256267737      19.324713361220869
   222   1      1.2866461321685889      5.5773362092100287       19.20590982405913
   223   1      6.8428875120619201      1.8987441300673515      19.303497451418142
   224   1      6.7255762624311943      5.5809219901722456      19.389109763297334
   225   1      12.493541385046116      1.8573291285089906      19.380346938256853
   226   1      12.540586698244603      5.6098651990812787      19.276748565478947
   227   1      18.444302176768097      1.7499518364238251      19.518026127282429
   228   1      18.164890824908241      5.4688750389071172      19.426180522565769
   229   1       24.00991393833047      1.8293062597425345      19.076776542153777
   230   1       24.09354239837236      5.4649633470078367      19.053440360108819
   231   1      29.603496450575545      1.9477835543992643      19.195662090323342
   232   1      29.744445877190948      5.4039320536283952      19.122552093536484
   233   1      35.367732354909819      1.8938596785365065      19.321357003926789
   234   1      35.330746157720434       5.363374661617093      19.369696882706034
   235   1      41.045620153425979      1.9180159224633895      19.262082832637688
   236   1      40.999467113321948      5.3776806003786888      19.291391622965264
   237   1      46.812636784937617      1.7775727908861076      19.234594490413084
   238   1       46.73353358929095      5.8816848233509829      19.189225718892338
   239   1       52.60859597198958      1.9686973668224148      19.519245048847655
   240   1      52.411905259101538      5.4159378335373995      19.481240624645935
   241   1      3.3676664832165937      1.9921859698008522     0.86977986734886603
   242   1       3.449756258551179      5.3641920404535268      1.0979460114755535
   243   1      9.0796891765704064      1.7897902447496608      1.2145530646623008
   244   1      9.1072844576366805      5.4486884432841061      1.2149462057925562
   245   1       14.85125617871468      1.8684823079687514      1.3487499731791175
   246   1      14.863083748122012      5.3384149990702783      1.1703728998724536
   247   1      20.572099003940842      1.9776752825370787      1.0818630213309641
   248   1      20.697456762721458      5.5005591738962201      1.0295925082929911
   249   1      26.258856346005157      1.8291792486893188     0.83652730067875236
   250   1      26.339117760699029      5.4992254573708701     0.88189824940326689
   251   1      32.202984489050586      1.7590609846611927     0.84071242571366711
   252   1      32.333502797059936      5.3549927812725562      1.0154244658083842
   253   1      37.672071136644334      1.9094391501372525      1.1081840235473959
   254   1      37.805385198689436      5.5489640652631333     0.98454107062764606
   255   1      43.317838961743121      1.9036396927487784      1.0070484620328561
   256   1      43.480772640023552      5.5276666732446227     0.97014945392131247
   257   1      49.246946570618789      1.7824750036252979      1.1431188943558319
   258   1       49.08910186884291      5.4282863510853003      1.2072477044980345
   259   1      54.893288754993286      1.8981085450635948       1.077952503015418
   260   1      54.844660830983486       5.251187380603981      1.1103924546277797
   261   1      3.3182021095940839      1.7823932453363442      6.7673334250604009
   262   1      3.3417706616616369      5.6007308405770209       6.714184120191681
   263   1      9.1844467101391647      1.8481722988640912      6.8022514680863813
   264   1      8.9675298198195481      5.4000529346141075      6.7842655200260591
   265   1      14.787223107131158       2.027727115706913      6.9729901815681288
   266   1      14.981918503755717      5.4895214879294603      6.9121424341264452
   267   1      20.565654001365854      1.8541009479082229      6.9596206437734027
   268   1      20.455664274372381      5.3953479077763022        6.89634323058395
   269   1      26.339950427127906      1.8650860943059298      6.7206275776612241
   270   1      26.189577826297985      5.4904960592061665      6.9205373896097324
   271   1      32.013889848993585      1.8958883809539899      6.7077283342082605
   272   1      32.158776745125117      5.5745669358013217      6.6684093135498204
   273   1      37.755110782609272      1.8248260059816956      6.6884541606160841
   274   1       43.57297478714689      1.8974342076072432      6.6662268385043877
   275   1      43.436596468624487      5.4105187728586746          6.620232439125
   276   1      49.247800401792318      1.7977491135123773      6.9272608541419025
   277   1      49.447423866207266      5.3202119945103723      6.8913403408651748
   278   1       55.09341282451711      5.4793641399155764      6.9905832947883786
   279   1      2.9873636487356867      1.8361931903232416      12.536886095361508
   280   1      3.2372765275497719      5.4363079392303355      12.395052045841902
   281   1      8.9601538602488287      1.7938203902063927      12.514036450452265
   282   1      8.9368422024792569      5.4732222233420105      12.540987311957759
   283   1      14.877996816309405        1.84085822235954      12.419352009242393
   284   1      14.817973549298049      5.4345260320498614      12.642180922247565
   285   1      20.566637396898223      1.8712487894930656      12.476843137158511
   286   1      20.658636416639961      5.4857116378344735      12.466533592052468
   287   1      26.414316923868657      1.8504973074905495      12.465067850971691
   288   1      26.368929174828953      5.4363997644141318      12.252372054995108
   289   1      32.125558599004478      1.8167690606311271      12.414643262207264
   290   1      32.177389285059895      5.5401454017001468      12.358832687850583
   291   1      38.016317778221406      1.9060333268471683      12.192268450879826
   292   1      38.059614493000126      5.4324874186808296      12.355929941198157
   293   1      43.535638628957308      1.8410430260418051      12.382643104928116
   294   1      43.717102871351415       5.468487633478655      12.324980813205668
   295   1      49.312535778825534      1.9469009883291919      12.493620121836427
   296   1      49.395316641502767      5.3596402772831633      12.297202466777382
   297   1       55.16525016429545      1.9778319232885102      12.688911659730838
   298   1      3.4113529978084167      1.7953875671514652      18.116708028275738
   299   1      3.4830790835019587      5.4658932442477282      18.057483846084473
   300   1      9.2059959522954689      1.9432757968621559      18.225377634343204
   301   1      9.1475893487985047      5.3537968537247664      18.220923719841505
   302   1      14.878634881053326      1.8411214793409447      18.178797403479159
   303   1       15.05819558111895      5.4994735207378955      18.344950268249494
   304   1      20.585730159697142      1.9631682229024385      18.056163656637381
   305   1      20.475159404262502      5.3709757019546309      18.215132978185068
   306   1      26.354681404842172      1.8958735685854005      18.121566817611093
   307   1      26.437837131581922      5.4358454310118898      18.151244632553073
   308   1      32.139923571103175      1.9532234993506625      18.134892264856557
   309   1       32.06283302876512      5.5618485705095937      18.112555083729923
   310   1      37.582511168210985      1.8740930218120422      18.095984565814348
   311   1       37.68825911802054      5.5771245973159536      18.145231661947083
   312   1      43.352628944554944      1.9062528029289783       18.01980408855102
   313   1      43.393238881135339      5.2999337493268177      18.126058740247498
   314   1      49.069973989562541      1.9147277499139947       18.23576578709848
   315   1       49.03478083687456      5.5814803306534584       18.45853679709013
   316   1      54.712267568347627      1.9097457460925933      18.395240314080151
   317   1       54.63579114887623      5.3297733314347626      18.323434786488615
   318   1      4.5340782249478222      1.8160953245765221      3.4462526202206893
   319   1      4.5719853782332542      5.6347630503695196      3.4105029194955261
   320   1      10.308370805295304      1.8760131376761511      3.3782765766152907
   321   1      10.184679394209859      5.5589381028376401      3.3878587689867969
   322   1      16.173965326784241      1.8112104144779189      3.5160339255521396
   323   1      16.050965661403993      5.4529825915052239      3.5325091632952641
   324   1      21.634985937629711      1.9241833846568241      3.4250033044203265
   325   1      21.698222113903419        5.57311958715907      3.3805094658260142
   326   1      27.535360179777989      1.8110176498686545      3.1994175189120244
   327   1      27.420247465847257      5.5192408960663801      3.3021261252947762
   328   1      33.333252713613689      1.9330884524943335      3.3426778797387131
   329   1      33.155826531029028      5.5203433366831964      3.3018426490346755
   330   1       38.81727174475953      2.0228725055224541      3.3801504519902692
   331   1      38.830759411687374      5.6142437909958254      3.2795167433740864
   332   1      44.752824910486908      1.8139021522754055      3.1885071984982316
   333   1       44.79725470230705      5.5571861218015375      3.1835892165098936
   334   1      50.415505983104644      1.8327248942708327      3.5006340434730636
   335   1      50.248249318498623      5.4943522882602291      3.4013649894299647
   336   1      55.874280404379768      1.9208353597833849       3.260166419573991
   337   1      55.996743016999844      5.3224173848700991       3.239381429940885
   338   1      4.4748800954273342      1.9110067642365454      8.9767020185784805
   339   1      4.3893778616923962      5.5471459854944394       9.075891577236721
   340   1      10.253035918571603      1.8932657179759289       9.042939582128005
   341   1      10.153079369454611      5.4802245934723164       9.158597357364112
   342   1      15.902145077694273      1.9155154397480416      9.0641870907667226
   343   1      15.921106526790904      5.5025187275705099      9.2333442897031848
   344   1      21.709912289696163      1.8545401200340867      9.1089581962399837
   345   1      21.571949999602129      5.5383789179223211      9.0674798819975244
   346   1      27.596999279109262      1.7067846576601908      9.0777365043209528
   347   1      27.463197005142696      5.5124974346429436      9.1017487658010481
   348   1      33.213996394262573      1.8739879858588608      8.9757896490992497
   349   1      33.288709424489632      5.4612024009499267      9.1627661384653045
   350   1      38.990192923003079      1.9299231872759623      8.9804751143949488
   351   1      39.051115799397415       5.570496040507825      8.6721817077035279
   352   1      44.837270920134074      1.7920239434762126      8.8468076549944179
   353   1      44.724512165642615      5.5330487447680099      8.8412891237723237
   354   1      50.574207766842584      1.7850460954898819      9.1317696833151842
   355   1      50.567717609950336      5.4063377167557185      9.2245521008824909
   356   1      54.969794198379965      1.9830787656297018      6.8462498624996053
   357   1      57.275439260305653      5.5516269262758362      9.0560627688740336
   358   1      4.3802447796510284      5.5272932674795801      14.835807067169569