dump/Mg_1000_20/steps_81 (written by ASE) 

3980 	 atoms 
1  atom types
0.0      32.100000000000001  xlo xhi
0.0      55.598830921999998  ylo yhi
0.0      52.130399999999995  zlo zhi


Atoms 

     1   1      3.2617873324444777      55.456763401770957     0.01372568257391729
     2   1      1.1113246095877041      2.8960313812762748      51.906598233031566
     3   1      1.1999345707347515     0.83870528316147508      2.9036230800459255
     4   1      32.022925102035508      3.8699556652600697      2.7895254773897626
     5   1      1.5965948240290253      6.5149582581769829      2.6910045013354815
     6   1      1.7617051809332787      8.2234436243888336     0.20531127262324633
     7   1     0.30006654548267386      9.7167541489551237      2.5103076772883059
     8   1      29.085765296138565       9.034218684840905      2.5681528298963889
     9   1      30.517427623913257      8.0042759267496333     0.45870671608734398
    10   1      1.5367368951508193      13.623838134506769     0.10187702298309186
    11   1       1.877031007151313      12.036841107582408      2.8612185044807732
    12   1     0.26804819004305613      14.523833293004188      2.4854645692206385
    13   1      30.416561898959745      13.032947906041356      51.701935758587183
    14   1      7.7279859532149535      23.027265600930203      49.279617576834916
    15   1      3.2529020212883459      16.474329259156711      51.927316923669679
    16   1      31.713483224808336      20.585601023791749      2.3871799461251575
    17   1      31.902788327431924      21.956603858819872       52.03562458628933
    18   1      1.6553151369785195      24.352443749238962      51.817381083579789
    19   1      10.844926359317697       19.76424178423553      51.988372817147265
    20   1      32.030973553419244      25.752751169443204      2.5632657032226223
    21   1     0.41307660310301397      27.877825287631961     0.41689223104154194
    22   1      1.3359422727561479      30.602197095101342      51.913779093595451
    23   1       2.213882951175913      29.230330403113069      2.6001015763178676
    24   1     0.39090752313892591      31.999279561062284      2.3328426722869025
    25   1    0.061901096305523991      33.478414983199414      52.017866902885856
    26   1      1.5263602461414232      36.029803336582134      51.996794337950064
    27   1      1.5688149100356339      34.533282265542717      2.8131544750168453
    28   1      31.704513156361578      36.980895668792222      2.4095812836877291
    29   1      32.083966542061937      38.679453234395091      52.046954821921943
    30   1      1.4978324731914039      41.842590132531186      52.098169161457243
    31   1      2.5716830212768551      42.659015168001652      2.2505936506755693
    32   1      31.761226035323652      42.711967843790468      2.9130948688757448
    33   1      31.961081160565964      44.380955207587377    0.019285297606923719
    34   1      30.672804384502744      45.623640389422796       2.644848111187446
    35   1      31.711353180792056      44.446629398661592      5.4880096391424793
    36   1      31.933509256989229      48.273774205878709      2.6898791988689554
    37   1      3.1536912282084968      48.332929259311655      2.6285271928832712
    38   1      30.782392922595047       50.62592953816187      49.225333996891948
    39   1      3.3473543747120402      49.949351147604318     0.21487864941295426
    40   1      28.815826857834455      53.289452422279858      2.4824700045782291
    41   1      7.9838780930272213      52.882232591669343     0.27779319016746762
    42   1      5.1166597112570651      2.3734171837029092      5.3720566907161027
    43   1      8.0200385406580637      1.1774292995206661      2.6808941345300292
    44   1      3.1315324802770204      3.5888395065850234      2.1830587840025868
    45   1       3.314059558845829      5.5917817301227908    0.035394668806861103
    46   1      4.7584318645483794      8.3735728820382462       51.85023428717296
    47   1       8.124980347166435      6.5402339277650823      2.3776815059990892
    48   1      3.4395990721800649      9.3009067793401279      2.5819945809000573
    49   1      4.8611796379802135      11.361461071281928      49.419675670096069
    50   1      4.6563557942671965      13.660519355295403      51.836692057306315
    51   1      4.6320994059049108      12.178949261025048      2.3199440072417565
    52   1      3.5578822162194683      14.618268463287269      2.6492463711097121
    53   1       1.855826449283839      17.206698723759072      2.3448589708593643
    54   1      4.7357155359704635      19.560189494372491      46.597997490939498
    55   1      6.0801255208526053      22.138680178905421      52.073831161137349
    56   1      6.4146456444494131      20.765150791229296      49.425350643061471
    57   1      1.9449010390947956      23.157081120280026      2.1373540774387099
    58   1      6.2990808693984368      20.166261390654412      2.4546479713917142
    59   1      4.6805798010459023      25.516478187338411      4.8509352833406112
    60   1      3.1491244752333429      26.263103667499244      2.3595666739703427
    61   1      3.6291522030160732      28.001231068484877    0.038314318548092523
    62   1      4.5307245260057671      30.788506043950687      51.688115519490665
    63   1      5.0440855583044932      28.639052493086758      2.5188368266118069
    64   1      3.3773633246006276      32.016822956856906      2.5901935976523376
    65   1      3.1221008808766477      33.476214650106726     0.16513685119547528
    66   1      4.7137650396993926      36.305331533574623      51.905913929637109
    67   1       4.696852591476449      34.517992818307278      2.3444359501518481
    68   1      2.7186456660118132      37.228001918207717      2.4813498573779982
    69   1      2.9233160276612984      39.325738066467061      51.826504105927377
    70   1      4.7193640917300401      41.582180784900444     0.28179378474559824
    71   1      4.5067149137027132      40.380866405954485      2.5240800019716452
    72   1      1.5207088673688345      45.503663367761433       2.501066538923892
    73   1      6.1239352515381196       42.82840015252809      2.7279644831310379
    74   1      6.4039268029938423      48.351981876856875      2.7495449269996888
    75   1      6.1666103890421473      44.868404860711912      5.3134300704747197
    76   1      3.7636166658649213      48.048547131242074      49.824174344130661
    77   1      3.4402141400815629      53.658627978893449       49.44229444081013
    78   1      5.0120004573101413      50.928692528960362      49.689330926012524
    79   1       6.637909163370634      50.130650922448098      5.0656231186609242
    80   1      3.3412701201823891      53.652384212971732      2.8390199916307859
    81   1       8.563468433143111     0.54343546158292444      49.548123221972219
    82   1      4.6378790272990873     0.54161331149963754      49.607389435218927
    83   1      9.5922356765495795      54.062166491735219      2.7439889539086866
    84   1      5.1273039656407144      2.8854245163254544     0.12631028673144648
    85   1      8.0865003270077001      8.4019952011488162   0.0099832145125731356
    86   1      10.081751238181344       3.833142814265992      2.9320231356266291
    87   1      11.523790871282351      6.7190474657663959      2.3573098828078196
    88   1      9.6342731596836551      9.2334471554556483      2.6219561092233108
    89   1      7.9341951757761002      11.940374086919872      2.3755480485765417
    90   1      4.8236930993880796      17.734111805091128      49.582715361543059
    91   1      6.5227046659503127      9.3713641951832507      2.4043986076901818
    92   1      6.5958422277324349      14.861086359917334      2.1762408059058158
    93   1      4.3621670562086603      19.426887611727935      52.001104791430244
    94   1      7.8517729297804122      22.994539710627052       2.561441583362162
    95   1      8.2001621418649062      17.602792609795294       2.764877320477694
    96   1      3.0028792463062932       20.26325747422883      2.5193871547986624
    97   1      3.1009997302956371      21.847690349428554      51.820394879492923
    98   1      7.9949115674508091       24.52116336201421      51.907396601812572
    99   1      11.447142806875814      22.913410040604298      1.7456653155268536
   100   1      4.6693758473907838      25.228102133552568   0.0037597028613940908
   101   1      6.2574511331438085      28.027490215834852      52.036671941202492
   102   1      7.6067869870991842      30.708949648071762      51.590222268100206
   103   1      7.9385560115528762      29.102794495721717      2.4579761675399241
   104   1      6.1840325994567227      31.577022449587705      2.9868678519732264
   105   1       6.194113754471803      33.104214092232858     0.13871898757205978
   106   1        7.39046002782871       35.95265402961013    0.091546505295532959
   107   1      7.8680766768447485      34.415527800412164      2.8305576364080665
   108   1      6.0769953056544592      37.382102205001992       2.419369187285926
   109   1      6.3680868934715686      38.752240360164123    0.022768724395908591
   110   1      8.1453880904200933      42.056620108570947    0.079549385523167954
   111   1      7.6036099622937074      40.065659056270967      2.7716481477426766
   112   1      4.8453147187696421      45.432686250041435      2.8612237399687124
   113   1      6.3621882383397477      44.854620201766565    0.036480464333293904
   114   1      9.9275461144731398    0.063713580386855734     0.14073967644473198
   115   1      8.1227353883616544      45.388790540973005       2.807646771155059
   116   1      7.6465546665575737      53.223334778210386      5.2795571697808112
   117   1      6.3735473696838998      55.558263437794928    0.026943477674845062
   118   1      1.7954086487170879      52.445814551736703      47.063502500863692
   119   1      8.3717092021156869      50.813805520669412      2.6805509423175176
   120   1      4.8192795627054164      50.849961922437885      2.4962732739569846
   121   1      8.3601557672383677      2.5510446370489817    0.066632664087616339
   122   1      11.567062298120042      3.1692619872379466      51.919433379669591
   123   1      14.531433672673801      1.2688197301666329      3.0501733022011295
   124   1      6.4682067579004325      5.7330334558098013     0.14624269861228731
   125   1       11.19816648532305       8.739592702703991      52.116387330785535
   126   1      9.4972636098497336      10.892613291613415      51.935010097317949
   127   1      14.433476619361885       2.830571456601914     0.28104459994937908
   128   1      11.049450167748235      8.0903259230284981      5.1599912462671238
   129   1      11.238068006210057      11.971020966727474      49.389380057337952
   130   1      6.4268792136196131      16.982743832997965      52.074139998715751
   131   1      10.922214175969048      11.839160413438655      2.5950589584252084
   132   1      9.6303267301009914      14.562235000744286      2.6027712216821075
   133   1      9.7845190960297579      20.603803196903009      49.157306332674779
   134   1      15.644025324806078       20.36044968906247      49.522425896803433
   135   1      11.121923740516374      17.513999891297001       2.212739276953255
   136   1       8.329283640716687      25.135918982924867      4.7735849949159084
   137   1       9.774762818325101      25.778794420295355      2.4643075548841131
   138   1      11.342657765172875      25.159807806350798      51.716185391917136
   139   1      9.4622910772719351      20.436745845692926      2.0348249906730347
   140   1      12.876889073386872      26.272418912323854      2.6893366639878038
   141   1      11.442702128988641      29.192847591635481      49.502042647861749
   142   1      9.2522152053638642      27.578592005645966      51.785918627085643
   143   1      10.933744380881109      28.720643603944119      2.2378520513118052
   144   1       9.499757061454428       31.73882371237843      2.9270472077291392
   145   1      9.1875086402977448      33.229796425654499     0.17070157018871601
   146   1      10.959377945829068      35.864305704201549     0.14708542514145187
   147   1      11.121358439405274      34.397487738250682      2.9477938423841881
   148   1      9.2622850836178348      37.058690040712264      2.7614879865484183
   149   1      9.5067332397608393      39.431580879180324     0.57906309080862006
   150   1      11.455688718942355       41.52359483446287     0.26244198154780218
   151   1      11.183519376328235       39.75044044896724      2.7407976828709364
   152   1      9.8716619500639169      42.751128227992673      2.9004807194475664
   153   1      9.8851906975435586      44.727698593299785     0.11997642491443651
   154   1      8.1195997681623968      47.423105159291872     0.10516888837826019
   155   1       11.25099018745407      45.198021675663213      2.6704260131905535
   156   1      9.9784332203052788      48.102378767327068      2.6963593445621963
   157   1       9.702630138974067      49.965088541887248     0.30869749738544433
   158   1      14.443462146455673      47.456225841700892      51.724379783440277
   159   1      13.112203799777951      50.194731716316348     0.29724031915278959
   160   1      11.550626522619304      50.858009558883495      2.7268717952278574
   161   1      11.429051261733454     0.87470051802521864       2.690314730556437
   162   1      12.854822145837316     0.54509648609983441      52.073707959443652
   163   1       24.09899968089578      3.1235578439060063      51.851877762667662
   164   1      16.378951353807842      3.8780595667798354      2.5737175560192567
   165   1      14.459445663781295      8.6812321934137042     0.26288931686488437
   166   1       16.06660434702129      9.2903277179163801      2.7695447030196698
   167   1      9.7568979719444009      5.4545120490362642      51.949333111520417
   168   1      12.793644996777632      9.1515182020204708      2.4179321385809387
   169   1      13.034056296897306      3.6133326734178066      2.6930156551574429
   170   1      13.824392302999742      14.803358477642588      51.694210460230792
   171   1      14.233930319928398      8.1478629550489554      5.0421102672316467
   172   1      9.3907334738567023      16.531390696658132      0.2578121452508082
   173   1      10.714384765590397      13.903056622859799    0.010995972262799298
   174   1      13.813266519123289      19.430565168594114    0.028049686796055819
   175   1      14.321135482458157      17.298005918355187      1.8345534955472478
   176   1      12.497775237446719      19.995912188423006      2.7517620417645525
   177   1      12.522050500978708      22.186659118456337      51.669235221028174
   178   1      14.365625320449674      24.935387486794721    0.072305273068680412
   179   1      16.204639567071698       26.21560775607124       2.401862988895918
   180   1      12.927281032839277      27.619171803882107    0.070797466296415909
   181   1      10.527096073779749      30.715768354431368    0.056441927836261535
   182   1       13.52786955083954       30.54594383238878      51.950289595727192
   183   1      14.336533681319288      28.817563145254347      2.7487972541468788
   184   1      12.776910623125707      31.342533848686042      2.5178229677755821
   185   1      12.566427928535454      33.175893679593699     0.33442139593425813
   186   1      14.298832794729567      35.867684424848036     0.48120611973930338
   187   1      14.281222235385625      33.924875179273421      2.7480266354901097
   188   1      12.610871885528951      37.124208437020847      2.7136775068957104
   189   1      12.550305550443136      38.612947684083622      0.1166744021462621
   190   1      14.446938715480098      41.522081208409809      51.866766569368316
   191   1      14.119446244816324      39.770519708333062      2.7804414432470224
   192   1        12.8602670578417      42.334382337404712      2.6704496881486199
   193   1      12.855978131369714      44.310319553618946     0.28258802157232255
   194   1      9.6931349101712225      48.212183370193365      49.623179373383536
   195   1      14.254211690686851       45.06468490093048      2.5773674411848337
   196   1      12.974033470803946       47.80861423849975       2.750595909666735
   197   1      19.433388475458834      47.929574751399016       49.30821721017233
   198   1      15.756283268374428     0.11488817577827719     0.56008883793928554
   199   1      11.584047442687993      46.992707368401064     0.19423299854829038
   200   1      16.142873172875124      50.230092400235208      52.047008461251579
   201   1      16.190719989730063      53.782474029843343      49.942781987846956
   202   1      14.365662618390379      2.6648988174183952      46.566795746942809
   203   1      21.014682785057548      2.7913402048098286    0.048961460384243774
   204   1      12.840791500783624      11.427247132082643      51.926424819811238
   205   1      16.269037148469149      5.4068591001625244     0.26617788314470298
   206   1      15.749801787687472      11.388603638139786   0.0011666445183472214
   207   1      19.786218392596272      4.0523431796907197      2.5575717800674909
   208   1      17.676437652495974      8.0717503841706879       52.05701611087806
   209   1      25.592499893274198       11.21148521096727      46.656409393007166
   210   1      19.009787766001597      14.456971682259582      2.4272328319489946
   211   1       19.35541538518228      9.2531688663326257      2.4281952257758155
   212   1      15.844657890374924      14.234819697668305       1.995034952673217
   213   1       15.89293724411584      17.016617282905973      51.889383164185666
   214   1      17.037785016533643      19.539516064839347       51.93614906050734
   215   1      17.503263329543589      17.307165098905568      2.5988181844549443
   216   1      15.887289096639746      20.586364549272641      2.5147064890188893
   217   1       15.34531601947632      22.390310137943633      52.058092441269181
   218   1      17.363018841675427      24.994299816635746      51.622668121505221
   219   1      17.496830315202036      23.368229353633058      2.8176268910357023
   220   1      18.088134655335654      25.049824210528996      5.2864098857010102
   221   1      15.954274228063293      27.667822908858398      51.969635898253998
   222   1      17.747510448862794      30.475887110345621     0.34001123650664583
   223   1      17.617420484867431      28.952722043579662      2.6290157768795286
   224   1      15.890983097747197       31.35435620634934      2.6515938055595143
   225   1      15.950823788819415      33.117035944679934     0.28489160537839087
   226   1      17.666882112357715      36.153574271366608      52.093577096824156
   227   1       17.75612989648554      36.455956066636062      5.3861295413221244
   228   1      15.972562491384338      37.027824905096971      2.8259034900056772
   229   1      16.037916999619199      38.845093827152155     0.40785845133530169
   230   1      19.620750133436264      38.884845434580846      51.684097225445051
   231   1      17.899113343380343      39.921250023947785      2.4055888263324374
   232   1      15.973481877672391      42.404961760115526      2.5528337311536711
   233   1      17.508407339454219      41.470741827715038      52.030917506449732
   234   1       15.80321937260457      48.167837075550132      2.4037821886458159
   235   1      17.790371244493592      44.651060050022309       2.777978326955691
   236   1      17.617520575889642      50.668875011958782      2.5605348200432498
   237   1      12.744564153039473      50.061676065964157      5.4657712993607275
   238   1      19.345376710188646      55.419897399880618   0.0034977660414485376
   239   1      16.694645637485081      53.980604286904352      3.0572060040692386
   240   1       12.64145051826368      53.537679035744546      3.1294942643638506
   241   1      22.460557517998716     0.16228165877050924     0.14666166899769104
   242   1      27.340083168176708      2.8901607366167172        51.7659490318241
   243   1      20.884096939244071      0.7521333363677688      2.6564149139106972
   244   1      21.569571857332022      6.2917028321600261      2.5294695633338518
   245   1      17.592846331455458      11.773492583312938      49.009788877091779
   246   1      19.544865487935517      11.062702367560505       46.80065007072654
   247   1      17.829574894098407      6.1256180537763498      49.604419210646505
   248   1      20.859643194439542      8.2709637169249337      52.106722779634438
   249   1      17.479923962228728      13.976264000374904       51.57137585521874
   250   1      24.674052419046166      11.991884025742777      2.1114229577511665
   251   1      23.078016646383446      8.9276078260026548      2.5440424493514255
   252   1      20.989761517061705      11.645648939090641      2.2855694165825415
   253   1      19.388446496636988      14.517327746345751      49.354257396229158
   254   1      20.760980157630609       19.50774226225446      52.022153973847196
   255   1      19.187895387653498      16.869833853512297      5.0530229462728435
   256   1      19.054561913726339      19.891175150630868      2.0600464771668583
   257   1      19.337637752769112      22.405057492178035     0.06464465635704332
   258   1      20.436132824225464      25.051257495597682      0.3102802741757113
   259   1      18.760938876013856      22.029386594400915      5.1136315778424395
   260   1      18.973033698315827      25.972503446262063      2.5125684130493906
   261   1      18.911351028865351      27.486198126312626      51.637734638720808
   262   1      21.063934833371597      30.013915981461107     0.12693188838715952
   263   1      20.552702270059939      28.673186054602152      2.7249616218359294
   264   1      17.218266929934746      34.051543617361112      2.4465339185231181
   265   1      19.698520854439252      32.968853880792203       0.192987263341792
   266   1      20.841187870143163      36.048799074065556     0.25540296167952747
   267   1      19.155532033674969      31.427111280420249      2.4894262246686494
   268   1       20.95785622238515      33.914250234167149      2.4152137197870709
   269   1       19.15195647449416      36.706289001172557      2.7059881553533036
   270   1      21.178666266497036      41.162699911569483      51.818300083636906
   271   1      20.803288681010564      39.530236280836689      2.1508958259458266
   272   1      19.661916846360349      42.509742010491593      1.7540827100826175
   273   1      16.048449682173551      44.674073603001901     0.14935073693248652
   274   1       20.92236263545076      45.323529373999726      49.275000041697616
   275   1      21.162266720652607      45.511529352484864       2.689426598863863
   276   1      19.164307359252774      48.010157025969029      2.7317240774063642
   277   1       17.96425479291387      52.744932255834833      0.4675938264373895
   278   1      21.252475550614438      53.104722464579304    0.010530148184559015
   279   1      20.859012799836947       50.80332838024308       2.186170339114033
   280   1      21.054649035358885      52.741311116419723      5.2148836074404086
   281   1      22.699386373078841      3.3281268373103199       2.427060018395049
   282   1      22.480155959458223      53.653680411103785      2.8356814104237431
   283   1      25.604297680631667     0.15678359442169959      51.703730482540934
   284   1      24.335808360766158      6.1971452313981965      2.4763457216673435
   285   1      22.675525675469263      5.3465496778569603      4.8952805713095646
   286   1      22.879902845986795      9.3496444935538605      49.249501275424372
   287   1      22.681288692985582      5.7273033746141344    0.031287606403156129
   288   1      21.174597027813586      8.5283885502930072      5.2894141161750934
   289   1      20.685550157350466      13.707010405609232   0.0087206895003051725
   290   1        22.6880807066096      15.195279908287874      49.647158665479424
   291   1        25.5288654153001      17.030840159263203      51.333696767013926
   292   1      18.689191243389267      16.931847860970297     0.30644081368887738
   293   1      20.974882610918645      17.535589847359727       2.685304892660568
   294   1      23.466351836071059      19.199654129683942     0.34934022025643002
   295   1      24.050213400378524      16.464470854598225      2.0908438261380491
   296   1      20.504612884956533      19.932736996661756       5.432914901036356
   297   1      22.434303938123005      22.113609121242856      51.841774228016426
   298   1      24.184390754681857      24.597304651325473     0.23008395372758925
   299   1      24.096308189687342      23.158860917952953      2.7905565565949111
   300   1      22.381864205974779      25.656994964813819        2.28842797220946
   301   1      22.571230803063195      27.503163959601579      52.093748589607102
   302   1      24.366857088343558      30.499704463285809     0.29630966468747266
   303   1      23.922287690130972      28.460039318463171      2.8012015240130501
   304   1      22.468588805946514      31.141503919592179      2.5905980148786591
   305   1      22.989571087377449       32.76140079544782    0.046524032593057457
   306   1       25.95372987344097       33.33570395342047    0.078384515375434824
   307   1      22.671599957251033      36.717926421097005      2.8992531742986669
   308   1      23.826551269934715      35.547110115815009     0.28136020322176752
   309   1      22.602328927503951      42.471538483257298      49.555585113445147
   310   1      24.097647355319161      39.668230859791578      2.6094886813819262
   311   1      22.417398534797506      42.485137619942684      2.5990445720073097
   312   1      22.658841386389259      44.157637752615727     0.18564520938564658
   313   1        24.2173779456994      47.041952830856857     0.15369670806216792
   314   1      24.366314132011976      45.000525393129287      2.6445261415483938
   315   1      22.155271964288517       48.08895874663267      2.8122714785529332
   316   1      22.539737200706995      49.896694284864957      51.854766509542998
   317   1      25.396689645149475      53.522104318368179      2.4012926807058981
   318   1      23.992137092149022      50.594572014494844      2.7271845566708226
   319   1      19.482349884180714      53.381011924565748      2.8228717026303487
   320   1      27.397341066603421      2.4418542902645064      5.0527640126264544
   321   1      26.880599428350347     0.57775079284349062      2.0066700004447058
   322   1      28.940604289819905      55.453590518028577      51.425273863208197
   323   1      25.650371813666585      3.4433778921379599      2.8036492184804231
   324   1      25.793394596841509      5.5467315826143455    0.030463297048469135
   325   1      26.323853197444794      9.2845963330190333      2.2417590896073345
   326   1      25.909517359926529      11.342948969886569       51.95088399230184
   327   1      27.681137699344877      12.134669654242943      44.446946072759822
   328   1      27.610955459092526      14.033399047800915       5.026078331662359
   329   1      26.069040357017549      10.674414277704805      4.9166851116387447
   330   1       27.39386361594774      17.354873645326911      2.5109778459403973
   331   1      21.724549347459959      16.781674069905733      52.033999211725948
   332   1      26.936571807728505      19.492984616422468      51.984998433126364
   333   1      29.155115457670636      14.872182191086964      2.2845638349362547
   334   1      25.150731990682676      20.069834550998767      2.3744706382453242
   335   1      25.287098391054016      21.894686521365614      0.1709147110522499
   336   1      27.122953642183564      24.790998567881822      52.077346694733343
   337   1       27.21429537798543        23.0811810202236      2.7398027428671168
   338   1      25.631022218931644      25.808829187208257      2.7034141005388554
   339   1      25.957553667088028      27.556338883949625     0.24569185075347225
   340   1      27.318589109404734       30.44555648870983     0.27995922124245365
   341   1      27.018059371820161      28.827575856845037      2.8060042481946583
   342   1      25.853087444982521      31.828379216027489      2.5850162084132338
   343   1      24.050261161848827      34.149878392224402      2.8475918105867031
   344   1      27.269810754168155      33.944201038599608      49.386181810717787
   345   1      28.849069995869286      33.186601400496819      51.974749668109574
   346   1      25.643879085486315      37.090477924651999      2.2698145585080018
   347   1      25.769346612178772      39.093692957542039     0.11225983940797085
   348   1      28.944979179715592      39.178372221250704      51.729523868649004
   349   1      30.239701601595886      39.801204812318304      2.6982053292138057
   350   1      25.524695260936781      42.178442678832319      2.4905073011636452
   351   1      25.849175126635451      44.197960082632513    0.078524514677187768
   352   1      28.975540567188702      44.483797009882522     0.53767878174841532
   353   1      27.145009903299847      45.065986614388038      2.4983894593785911
   354   1      25.341019936601636      47.738054139123939       2.670299916159665
   355   1      27.442359232276235       47.16882606649461      0.2225608300371405
   356   1     0.14638284525534506       55.44647885118674     0.17364198199937003
   357   1      28.755587635322794      47.750738163400349      3.1008360809802995
   358   1      30.410581021510893      52.443996631019836      52.009642784100159
   359   1      30.210735510248295     0.62875811163538686      2.4809286939711739