dump/Mg_1000_20/steps_71 (written by ASE) 

3980 	 atoms 
1  atom types
0.0      32.100000000000001  xlo xhi
0.0      55.598830921999998  ylo yhi
0.0      52.130399999999995  zlo zhi


Atoms 

     1   1      2.4786517131720252      55.443638035285673       51.92902944110709
     2   1      1.5567785518300801      2.8471722031563211      51.940206838189887
     3   1      1.2516021279262424      1.2723799187753584      2.4394476440019193
     4   1      31.763458993937121      3.5176599011324399      2.6886539389169557
     5   1      1.6163349537294844      6.7462044221713668       2.368045513610137
     6   1      1.5649689640026541      8.2497267100503127      51.936529746171203
     7   1     0.27325352933301095       9.549865210650724      2.4767552809319193
     8   1       29.43131182597681      9.0315505528664275      2.4587078367543951
     9   1      30.568034109996976      8.4275566900590864      51.969556353752871
    10   1       1.805917760245477      13.754091340228136      52.017010707656702
    11   1      1.8903872383518789      12.255654137247632      2.6679361693935948
    12   1      0.2650087684281755      15.154372545721765      2.4781117122601106
    13   1      30.616660381600013      13.974767789460138     0.22248656188745583
    14   1      6.4245929977590563      21.753733644653799      47.235946173245729
    15   1       3.299737788898828      16.587477566079375    0.091543631113124316
    16   1     0.45655723624124717      20.245861011790552      2.3682670200461109
    17   1      0.2749259458892242      22.050218133434797       52.07061632891925
    18   1      1.7837415267355532      24.975987027318396      51.923894134796605
    19   1      11.034983892997518      19.300136526757338     0.18562128519285384
    20   1     0.13959855366880611      26.056565225809191      2.4087135735670571
    21   1      31.374788457034104      27.200537182368159      51.501102598481481
    22   1      1.4474690711530958      30.438587687068189      51.910431161587908
    23   1      1.2713662925431219       28.97930041923976      2.2769557303529466
    24   1      31.785877754372134      31.547807997348862       2.442838604221274
    25   1     0.12813129780039906      33.238333745261848      52.100165610036193
    26   1      1.3967740902374672      35.733469346998447     0.03842466103905362
    27   1      1.2305324533943138      34.049392719715406       2.763338130173405
    28   1      31.816178489456004      37.236310433555524      2.5733272241761176
    29   1      31.692660968899993      39.041751262352776      52.075572153076308
    30   1       1.495874132649605      41.717458434081799    0.034062203489128209
    31   1      1.4710967838539803      40.061935288605291      2.7286238198276012
    32   1      0.1354844476593057      42.641302683058335      2.4714184925961971
    33   1     0.35384827205441843      44.577920412904533    0.028437919553434866
    34   1      30.727915791897065      45.377748728616268      2.6291089316864356
    35   1     0.15945777573006442      44.364641029957966      5.0154904469915627
    36   1     0.18729069643007129      48.137860842430747      2.5988539129351822
    37   1      3.2149500641529238      48.086410461196621      2.3859923877527636
    38   1      30.019553974070771      51.016640243112988      49.552083876812794
    39   1      2.9240859117109577      49.999388758415286      52.115563034970037
    40   1      28.774251928274168      54.077488276911829       2.460714516139161
    41   1      7.9439192199329423      52.871893773116724      52.063945640856353
    42   1      4.4199308571785636      3.1515742266739704      5.1426958294679119
    43   1      7.7781503730631814     0.43212482106524097      2.7583877341613063
    44   1      3.1696498332160337      3.7312240131610905      2.5594022641017942
    45   1      3.4296793062769808      5.3829376770456525      52.097523912624112
    46   1      5.3681591707396734      9.2903615860133471     0.22834203918335477
    47   1      8.2214147730868348      6.3428565800431072      2.3891405596083883
    48   1        3.58369962314534      8.9525313845354546      2.6168705372361556
    49   1      4.6355952249198822      11.766788520580787      49.705635434262881
    50   1      4.9510613247188804      13.449775434027408    0.028403314680052066
    51   1      5.4820314000978296      11.830918160400408      2.7066569821596209
    52   1      3.4528587322161051      15.104775723614985      2.4777369373245564
    53   1      1.9752548865192936      17.603882734070233      3.1681368586506675
    54   1      4.7658855980914065      18.918123657700001      46.887427052553427
    55   1      6.6608615286313677      21.554002636349804      51.896642928212366
    56   1      6.6302110875911744      19.767268113313442      49.390695935576119
    57   1      1.7543328682704129      23.264147883736992      2.3127084312989084
    58   1      7.0100956375010091      20.753861936252978      2.6845782174808646
    59   1      4.4836964687617984      25.446917352547135      5.3453063196026713
    60   1      3.6001823138254005      25.994602348305701      2.4967714017456046
    61   1      3.0757284532432703      27.813780336217807     0.12835123886627509
    62   1       4.912792384702076      30.321653166076896      51.868730946527634
    63   1      4.8085463624578946       28.68359061672437      2.4354825098821653
    64   1      2.7752795056542512      31.311769469905688      2.1866284040175197
    65   1      2.9932056508641995      32.899826481648887      51.839234357705848
    66   1      4.4825569679122639      35.748259645521777      51.841226740527027
    67   1      4.2176008008394215      34.015549743977985      2.4570822219053681
    68   1      3.0267212789522357      36.864909992996317      2.6974390677435567
    69   1      2.8598186875093154      38.810609180209696     0.22724090830711954
    70   1      4.9387396473049074      41.285925189294467     0.14162029510954857
    71   1      4.6336233054480251      39.373697359712608      2.4295793672537354
    72   1      1.6215270715904055      45.755524685816127      2.9030055371517198
    73   1       3.171206029874897      42.691114077374223      2.9437043655428194
    74   1      6.3769212139191982      48.103085058923611      2.2365151916066601
    75   1       4.947085033146104      45.465262835662507      2.6798068663057379
    76   1      2.9796156934520535      48.219104358863106      49.198926372149252
    77   1      2.9059999381660933      53.542249976643511      49.565121745020868
    78   1      4.5088480715685622      50.447604490576978      49.642885851364966
    79   1      6.2785576873720359      49.814626972161854      4.9191025498139247
    80   1      3.1225333876846921      53.711116584024232      2.0876994906623629
    81   1      7.7958041631978769     0.49933145456957034      49.477482758849959
    82   1      4.3786376335767354     0.94018476789163874      49.572845689521337
    83   1      9.8024221960897311      53.578020271556376      2.6071800398485645
    84   1      4.3513943426803712      2.2494602829281303     0.14438431820450945
    85   1      8.2906033123957084      8.0008369413307641      51.837249262123102
    86   1      9.6733491066790638      3.7078939990154054      2.9259839206753986
    87   1      11.301109367823098      6.3259202896036175      2.3852956825185361
    88   1      9.8128085850688826      8.8918731497128825      2.7294153786226194
    89   1      8.3483073128512384      11.497696694926764      2.7045766822952797
    90   1      6.6869336597931461      16.228397097855598     0.34860284930123731
    91   1      6.6357891533630156       9.282106281571977      2.8761303790572854
    92   1      7.2646718253961637      14.193554315267185      2.5894444564280423
    93   1      4.6705840817187338      19.124423319935993    0.049429466555366341
    94   1      8.2568855748676704      23.614620305073885      2.7761808041340035
    95   1      8.4967007639754044      17.567581051431791      2.3736204265253567
    96   1      3.6480116365405029      20.562200248891266      2.7871859346854948
    97   1       3.425002800092031      22.213658360590966     0.28835264126538962
    98   1      7.8918326699160337      24.851643030034829      52.007558839949866
    99   1      11.519007677854034      23.843803011258327       2.951092552506716
   100   1      4.8938708157012769      25.319185388299317   0.0087242269277678954
   101   1      6.8016739157927875      27.798271276396793      51.967101411105929
   102   1      7.9487067949320664      30.593783373143928      51.863909740258158
   103   1      8.1775489474052065      29.063904711328338      2.7206494780886632
   104   1      6.2945045154863717      31.352785385980514       2.398916018740179
   105   1      6.3456595721363191      33.306996758716672    0.018386191389963436
   106   1      8.1395950606116365      35.849835903209794    0.080368626547981437
   107   1      7.7377505399692597      33.806675766189549      2.5486010658799403
   108   1      6.0507150397317977      36.383229478245269      2.4325698900134212
   109   1      6.0325353185079713      38.204601425482934     0.18288421445646513
   110   1       7.930424195690307      41.891647998045336      51.729194903932203
   111   1      8.0647193894604392      40.027114480028011      2.8837449447785604
   112   1      6.5117764850076743       42.62013575546176      2.8595862136981705
   113   1      6.4877777090588351      44.488949470218436    0.087891910883232088
   114   1      9.9877616261213351      55.480321071866364      52.022453636581105
   115   1      8.0456706165700673      45.693532838821625      2.4198139330901083
   116   1       7.936789439116307      52.916100114546147      5.2706643605051218
   117   1      6.2225034505167649      55.290505608405901      52.105880080782214
   118   1      1.3574221237315276      52.786469531380284      47.100244289100061
   119   1      7.6425608444901671      50.725511759683627      2.4289011678372465
   120   1      4.5278803599804274      50.744430331502244      2.5166380169149853
   121   1      8.1258945722444036      2.1792684650303973    0.014463176694471069
   122   1      11.339880205315447      2.6495672557465104     0.37846916227422456
   123   1      14.354718268794716     0.90994995303938497      2.7808471917165352
   124   1      6.7230158301026925      4.8356003168861381      52.089783723787747
   125   1      11.478040791210434      7.8973834577984601      52.112698212047462
   126   1      9.7666349277225919      10.783904917053018      52.106211475685782
   127   1      14.439013448131112       2.849918549419181    0.060212211326392075
   128   1       11.64877058269259      8.2964351832157828      5.1186241398791932
   129   1      11.179818310343116      12.151048858833946      49.212833929071252
   130   1      10.058672596757257      16.465469238731977      51.855016713208805
   131   1      11.286058384727664      12.115989442799409      2.7076495884281706
   132   1      10.058693977857198       14.73378734223393      2.2172967591656643
   133   1      9.5849187899647461      20.275409566076778      49.504723403367379
   134   1      12.935175566949276      20.330691675506948      49.588991691671382
   135   1      12.149424936077295      17.544673792495438      2.5092775483861147
   136   1      8.3016671303700154      24.944726753530457      5.0541786372408337
   137   1      10.094164234505811      26.434392081367413      2.5138867652951475
   138   1      11.173161125734124      25.116438363620315    0.016803973039811987
   139   1      10.109679462638415      21.102002665829279      2.5596089395958144
   140   1       13.27254168889784      26.016278666757568      2.7318979023599765
   141   1      11.447767440928672      28.480986716365894      49.317547406969375
   142   1      10.166260252581283      27.912792540988811      0.4043411393505052
   143   1      11.301046006833802      29.022279603744348      3.1050643773151849
   144   1      9.7757591752856019      31.327619227908897      2.3863310593069897
   145   1      9.6556047304812456      33.035464806220929     0.20587683918392438
   146   1       11.03501561788832      36.177649229037684      52.110018712399423
   147   1      11.036653517510963      34.439868152250583       2.593547320962486
   148   1      9.5666271868959196      37.179575924487004      2.5070410430717951
   149   1      9.1110990545787001      39.042037693047028      52.035421974603281
   150   1      11.268262926021993      41.534321832805126      51.548828384266649
   151   1      11.121177267443247      39.645065448251572       2.483593799842581
   152   1      9.4295239229096008      42.880181122292669       2.646366033763961
   153   1      9.6532019676140681      44.441588625221428      51.614189639849208
   154   1      8.0264114515091425      47.009653609668185      51.751856022514936
   155   1      10.927390670612077      45.445870113406428      2.9159283841408228
   156   1      9.6356415469837646      48.523143747120393      2.9801182254838863
   157   1      9.5394318649023973      49.919559663868618     0.13434747882010051
   158   1      14.287128169710346      47.421465633470127     0.19053591029661657
   159   1       12.67991414661179      49.779927889104599     0.31937289622504855
   160   1      11.352939035792382        51.0847117621134      2.8123057604713577
   161   1      11.270808167560569     0.85360662013032684      2.5848416571739565
   162   1       13.07620739250644     0.24961731563305481      51.974854636944201
   163   1      24.108633885266467      2.5562199966362238      51.953099669388756
   164   1      15.784717958450745      3.8652984760444205      2.8012522669150046
   165   1      14.690637026983511      8.0896264665899302     0.18033133863762363
   166   1      16.253644521931761      8.9111253593120665      2.5759584698617188
   167   1      9.6518597997151971      5.2341899363252846      52.024770146749468
   168   1      12.830135221989773      9.0195960447659669      2.4676456826693349
   169   1      12.798746829730524      3.5012660454879141      2.8902203598954581
   170   1      14.659397005789055      14.068003353217353       51.96429893813157
   171   1      14.865163762502064      7.9383615152117502      4.8776633310138635
   172   1      13.082149624565982      17.078977261157153      52.095869451830573
   173   1      11.499610788867479      13.536285711428278    0.090929138004718676
   174   1      14.628147642104437      19.226945272953916    0.045943327248140035
   175   1      14.863796609513429      17.397262760123137      2.6695569504615104
   176   1      13.295287825842374      20.308850139354345      2.6103825461784758
   177   1      12.602147116358145      22.087387217819582     0.37757003289041829
   178   1      14.553528777941088      25.128842959768324     0.26857664628163258
   179   1      14.394185388526575      23.043155466687953       2.686269959155569
   180   1      13.150849120433939      27.596150051331055    0.085315237586956666
   181   1       11.26139126926096      30.425146555482012      52.015150928612094
   182   1      14.160369026238074      30.175124791075387    0.099170660526499768
   183   1      14.600569092000304      29.106915790103798      2.5870234074014955
   184   1      12.904527605279405      31.549924041090687      2.4928897656153457
   185   1      13.011411636920533      33.645035528324456        51.9013265864209
   186   1      14.419329407263016        36.2602028331127      52.050963599979561
   187   1      14.817547599177439      34.292033893088977      2.3218746179938901
   188   1      12.743478856462787      36.932668126027814      2.8553094378900603
   189   1      12.762632096716663      38.969191382082457      51.973650033255112
   190   1      14.463955550405041      41.726368975592024     0.24913873089147534
   191   1      14.184902804371523      39.868798887393247      2.7296185284889143
   192   1      12.405170913096063      42.509849897308094      2.3581442786837234
   193   1      12.617103797230726      44.581922246636488      52.124108239033475
   194   1      9.6662321309629355      48.222934415616351      49.588734506173623
   195   1      14.126558312725709      45.304405315417583      2.8073873047660354
   196   1        12.8184174230487      48.127102714900218      2.9170580926167058
   197   1      18.305015364375606      48.667940925233346      49.715661213173249
   198   1      16.009059986107591   0.0082132389091451579     0.11323360027394279
   199   1       11.08377196405616      46.965481367132298     0.12150461552432006
   200   1      16.181216086176445       50.01361831017087      51.970390467715099
   201   1      15.888348197740319      53.470987199515832      49.583993728055368
   202   1       14.37453007964276      2.4691634831475699      46.860506143321935
   203   1       20.95860609422332      2.8524087218726994     0.10843754282198491
   204   1      12.673471103969167      10.809245410355677       52.09617521995596
   205   1      16.105972738357135      5.6856467259434122   0.0014647289434610703
   206   1      16.020773588521674      11.085150174576263     0.05694996748502687
   207   1      19.350530262340122      3.5878536585277194      2.9166157248723854
   208   1      18.013389630937755      8.4310846925314546      0.4505086774749828
   209   1      25.370469308037666      10.856235974075966      47.046625633792949
   210   1      19.388990196672744      14.787163195825427      2.3565586036729997
   211   1      19.464589014735022      9.4276098528639327      2.7689596541785377
   212   1      16.249266231336872      14.640182592920311      2.6426717595758697
   213   1      16.587132285112954      16.539616780120628      52.068205512349053
   214   1      17.933586067387367      19.688735243117705    0.048918931631621601
   215   1      17.633988405229708      17.240553191999684      2.5597279919852758
   216   1      16.270912479124586      19.883606095049277      2.7139190661838728
   217   1      15.939138672117062      22.055991022635418     0.29888514213829392
   218   1      17.480396712497235       25.28690626024359      52.051775495161365
   219   1      17.626877081973323      22.745193927893801      2.6716214150545952
   220   1      16.485483105144418      26.038598897979341      2.8446944500658007
   221   1      16.023635155245291      27.828194804960862     0.22236331837905776
   222   1      17.718571274270246      30.488676971187029     0.28799045468671364
   223   1      17.786461579893643      28.888939142865869      2.6240414359910122
   224   1      16.075712337774011      31.477419719033282      2.7294879578801803
   225   1      16.207397095500166      33.145540707647598     0.18879001110226007
   226   1      17.261878903184083      35.861291165926964    0.075610148162182603
   227   1      17.421994018535955      36.068117667549608      5.5943471706048031
   228   1      15.898685859420231      37.278443490789272      2.8357993274540205
   229   1      15.815383019116386      38.873898452738914      52.027506906259525
   230   1      19.044834006056398      38.721832965022031      51.674010919993293
   231   1      17.580056747730712      39.805635126721825      2.4371073345455749
   232   1      16.064915765282581      42.254129548660373      2.9814668810607929
   233   1      17.665314596565189      41.639539495530997      52.129700507664978
   234   1      16.494840563251618      47.894575027277718      2.2144813400047352
   235   1      17.831241489737355      45.207706313589441      2.5533461768295793
   236   1      17.519675290544853      50.830702788525045      2.7530428543319361
   237   1       12.30947155902671      49.643790133575337      5.6734742722850102
   238   1      19.134195349951785      55.590866587284339    0.045444888055386101
   239   1      15.834950923084218      53.683720911228384       2.607896162200936
   240   1      12.740962628641745      53.741569200859367      3.1278661143660802
   241   1      22.276552184983693      0.1217322391968704    0.039607163592500549
   242   1      27.258334475423109      3.3640168775235679       51.84853502052259
   243   1      20.871862574370127      1.0743813232522983      2.6710233583167988
   244   1      21.074836442367808      6.9252653836870124      2.8797631899490859
   245   1      17.565511022846014      12.036796380047498      49.256921912386403
   246   1      19.284250564095657      10.483413912821698      46.724356174065903
   247   1      17.089374168081843        6.76550077861482      49.500691382272038
   248   1      21.063475620945141      8.4539483700872893     0.19605240990284761
   249   1      18.971409238360511      14.842940515676675      49.626722884401396
   250   1      25.006704870205258      12.442110262774644      2.2923797430001467
   251   1      23.489021106867771      9.7889041092396543      2.2781911830060544
   252   1      20.538853517604924      12.087487007954449      2.5785287694839054
   253   1      19.438570850003529      16.458531272459883       52.09091209612216
   254   1      20.987246949620836      19.302627763699736     0.34162400944955007
   255   1      19.888460572318237      16.529112373256609      5.4287637333077097
   256   1       19.54830402608793      19.817912675503525       2.828765806312834
   257   1      19.313590056539834      22.255106715166196      0.1612294520329057
   258   1      20.688841863871566      24.881858168924261      51.889885788419697
   259   1      20.796467071010536      23.213580377525897      2.7987578800278055
   260   1      19.522759988220827      25.896981684720696       2.408565945515917
   261   1      19.195651398324262      27.766284840746348      52.045331786312161
   262   1      20.970431584675328      30.299419379497557     0.26051208455855573
   263   1      20.795730501124257      28.503682756559691       2.916710287143724
   264   1      17.703633613424561      34.060839568640972      2.7259142608381466
   265   1      19.272492129017042      33.225900233912618    0.028234214204368887
   266   1      21.266500485059719      36.116656014188251       52.08767875572164
   267   1      19.526362867891319      31.393181493411863      2.6668617111965651
   268   1      20.700927515215017      34.134739691521354      2.4289288643440741
   269   1      19.160190724019181      36.932613149314555      2.1402685949738141
   270   1       21.09092404047064      41.730598370561964     0.11467450955692937
   271   1      20.597468518023884      39.921368227405154      2.3523998914644371
   272   1       19.27889485626693      42.659445282399432      2.4331845739860554
   273   1      16.100411861486439      44.349436521357987     0.34121745534985032
   274   1      21.147853721656617      44.987819484275711       49.36602077787083
   275   1      20.908904916024195      45.451214524918875      2.4404831469664177
   276   1      19.506315603413036      48.037583393034041      2.8960031751755881
   277   1      17.433237223233359      52.875344791557204     0.33727293927273605
   278   1      20.560648955046169      52.976589856630632     0.18057168462667406
   279   1       20.67558318173657      50.859446884900223      2.7411045999272758
   280   1      20.782275599950076      53.008235446039137      5.1228560199396691
   281   1      22.906932850327475      3.6530854007883069      2.3013371036966825
   282   1      22.248365328627781      53.650138540213533      2.5791600347192123
   283   1      25.828184506038824     0.17561230145262702      52.013310750114982
   284   1      24.256722113133723      6.4832247803036749      2.6019901216839347
   285   1      22.492274385142618      5.8270220632810874      5.9115973827612214
   286   1      22.394979604428826      11.139360665084546      51.683043283585306
   287   1       22.38737086586562      5.6974547579254766     0.31183510997750852
   288   1      20.793272933870931      9.0429605205369619      5.3176466760864969
   289   1      19.099553543245523      11.051820305762885      51.494402906090251
   290   1      22.264758781594693       15.00278990193811      49.634775304904323
   291   1      26.060715293356093      16.460793151625477      52.073337177479097
   292   1      20.915484116245029      17.243284215618168      2.7384554799738492
   293   1      22.687525754088167      14.241121745623911      2.7519966387546431
   294   1      24.229241793406459      19.318995264810059      51.903326531934226
   295   1      23.829797314196053       17.43220045526451      2.9260620696303681
   296   1      21.351577056181373        18.8702846247308      5.2061316173974435
   297   1      22.696432580746116      22.021724141059149        51.9652878117139
   298   1      23.847420515405183      24.678224296678344    0.032073707346440265
   299   1      23.874447662576841      22.940226347851567      2.7009030396445599
   300   1      22.255210184872791      25.609702430968486       2.201280650297849
   301   1      22.266392232644481      27.612393232728525     0.35066129444955152
   302   1      24.038562825366956       30.50350509803804     0.28988670242164544
   303   1      23.768989281205613      28.109560861872563      2.9976637359612002
   304   1      22.483973321491586      31.086822142657521      2.5210296727155757
   305   1       22.35982815687175       33.36375997636398     0.02368631889397722
   306   1      25.736882310734551      33.094928242343414      52.062717845604489
   307   1       22.29188810025601      37.073409962870961      2.8196326883082756
   308   1      23.800190131034011      35.870329938981968      52.117781866247654
   309   1      24.425761172218198       41.19160024581484     0.12520635723619228
   310   1      24.202312317440409       39.70612642818125      2.8130646959613821
   311   1      22.329501835716329      42.777594706386317      2.8946381329221142
   312   1      22.797086449938149      44.459163970151948     0.34060187733489911
   313   1      23.863292588953502      47.593984994598799     0.32433536577917382
   314   1      24.167682991079218      45.679930567023625      2.8022912199319783
   315   1      22.342175827676694      47.962139616220284      2.6649808201825409
   316   1      22.573193998269939      50.399966331904132      52.070675491099948
   317   1      25.609223815490523      53.706289739987589       2.801719048348787
   318   1      24.069598405841568      51.082938190925347      2.2183376967913451
   319   1      19.047180861113418      54.019051884660506      2.6203429159405358
   320   1       27.06863344647045      3.1379738062608262      5.0004738697798787
   321   1       27.27355893142661      1.2003056501384768      2.5875507101198405
   322   1      28.634472661771412     0.68974692411022898     0.21286198565089481
   323   1      26.012905135762285      3.9613580510263136      2.4258259499150632
   324   1       25.20675697804338      5.4837315128789594      52.061170132514434
   325   1      26.059905517285468      8.9380160028766369      2.5504618277671982
   326   1      26.074687511060969      11.105117635015489    0.038781308720554068
   327   1      28.688071153744378      11.397513326562068      46.897515060860279
   328   1      27.428471569376185       13.72546028604761     0.53746046393337921
   329   1       27.78903880978455      11.478848918419084      2.7836536014278996
   330   1        25.6289180218496      15.049202906408048      3.1203115811912858
   331   1      22.591166940845024      16.601830883120318     0.21564372473356777
   332   1      27.152547073148195      19.197175605359366     0.39325928512365715
   333   1       27.50279051094526      17.687888486023983       2.923785997731247
   334   1      25.901384401829105      20.468557744281124      2.6834631339818755
   335   1      25.594431683480984      22.148458437199753    0.048071137252633081
   336   1      26.837640345015071      24.496158147967709      52.054357635039182
   337   1      27.428285219734519      22.779164114111378      2.2816503975368287
   338   1      25.838409027830505      25.540793593542219      2.6942560778783822
   339   1      25.234250960788984      27.489791243600187      52.006003218262151
   340   1      26.995583645988624        30.0900841883747    0.055295927194342898
   341   1      27.186083446911827      28.280701462521328      2.5404725614805761
   342   1      25.635821462482163      31.214021650086138      2.7283568309579875
   343   1      24.349661312685928      33.848167421056843      2.3976665593787136
   344   1      27.831448453879336      34.356739829801953      49.599722479613106
   345   1       29.00825661284815      33.253838749015316      52.105543058877522
   346   1      25.519165681399283      37.069868065540582      2.4701814497515651
   347   1       25.75174954910721      38.639988498995386      51.810163020945865
   348   1      28.624422517915033      38.683271815433329    0.052129197800062303
   349   1      27.073311213501331      40.060931607209319      2.9208860321817691
   350   1      25.774726403522259      42.675299462959707      2.7462498321971367
   351   1      25.692109847763952      44.291066458126615    0.024608118064977574
   352   1      26.895154832782584      47.468350311417687    0.048250420466914801
   353   1      27.269785385667017      45.148992232949276      2.8657201617295547
   354   1      25.401812727303991      48.403338075748358      2.6623407853605969
   355   1       25.26943523293485      50.324001839076459      51.834789784123025
   356   1      31.366337675240157     0.33598773318843506      52.085997664508078
   357   1      28.559624005064627      48.348582160080092      2.3885083538666914
   358   1      30.236977807213751      52.911649013447501      51.961112813434738
   359   1      30.331452034545318      1.1875694415003941      2.4552101774973512