dump/Si_1000_0/steps_21 (written by ASE) 

4000 	 atoms 
1  atom types
0.0      38.395898218429522  xlo xhi
0.0      38.395898217999999  ylo yhi
0.0      54.299999999999997  zlo zhi


Atoms 

     1   1     0.38767112553688604      38.390374091218746      54.293092542128257
     2   1      2.1703854121790904      38.329861795597417      1.4825088690466384
     3   1       2.016053707326837      1.9326579346789818      2.5479619983662118
     4   1     0.21703609741554752      1.8769659267707401      4.0678781873416572
     5   1      38.289218072523425      3.9389775058395688      54.250251391736221
     6   1      1.8385777594733899      3.8498901992804186      1.3160842555015151
     7   1      1.7985818883327922       5.776979527222676      2.6808307280217059
     8   1      38.232313134028026      5.6115076374124309      4.0158406858494908
     9   1    0.040289532217944596      7.6315264786127646    0.053382049001504568
    10   1      1.7641654508815456      7.8970214564758194       1.670909155006755
    11   1      2.0110268463134204      9.8583830736761939      2.9169414059090277
    12   1      38.297268928336351      9.5290435083624061      3.8903096170326412
    13   1      38.334021839679494      11.375130343339631      54.281570882716444
    14   1      1.8458323471614848      11.567432903018448      1.3339732239229887
    15   1      1.6778409999660961      13.469743346129164      2.5559849558551386
    16   1      38.288681096267958      13.389974142274983      4.1780359757122918
    17   1     0.11665813901217872      15.438535679682644       54.18997430971794
    18   1      1.9244298565905544      15.393248019183202      1.3365310556419432
    19   1      2.0066440219049855      17.227139044805899      2.8377296411549291
    20   1       38.31098729681829      17.177121216614676      4.0862784846524951
    21   1     0.27889170838172095      19.201577381114973     0.31781591027431666
    22   1      2.2403988740362357       19.13814269259365      1.6052169559864884
    23   1      1.9534751040574228      21.115166557498618      2.8344694487343283
    24   1    0.066410776365424251      20.692358073329238      4.3736832623785986
    25   1      38.360972271756154      23.127253554247233    0.071017469958326515
    26   1      1.8609009578927524      23.056254799759458      1.3961860528413237
    27   1      1.9050399179907238      24.799440675168587      3.0016480339185683
    28   1      38.391488136580598      24.927921407092896      4.0686943256130359
    29   1       38.22049875675016      26.809693617100358     0.14950488135438045
    30   1      1.9880739528391353      26.803135293681937      1.6133970919230223
    31   1      1.8196452328190034      28.872691222522864      2.7109921098919942
    32   1      38.290635551807554      29.249647494258589      4.1568012315612215
    33   1    0.041256433718524423      31.013741585797415      54.156682943801769
    34   1      1.8074351729267879       30.63449361772086      1.3477773280680709
    35   1      1.8924916089638175       32.65177823741756      2.6948217724901702
    36   1    0.044979757606551755      32.774896003732252      3.9507245146140697
    37   1     0.20636166471745288       34.37583407493738      54.096788748526464
    38   1       2.190910928408361      34.517122948682022      1.1702638803742285
    39   1      1.9818709823633902      36.364366037998884      2.6995539808097546
    40   1     0.11579531719714514      36.337161852421772      3.8568704253004724
    41   1      3.9278610772921119     0.19916147360493563    0.023971262193015277
    42   1      5.9525083607987375     0.53982430448041485      1.2426165914721996
    43   1      5.9831403632218514      2.0851183179719861      3.0096810871251498
    44   1      3.5792873647298875      1.8715937888988008      4.2173225131689858
    45   1      3.6558483957537793       3.883149607392824    0.024165944814467356
    46   1      5.6680330465659479      3.6704121402674659      1.3360527982450217
    47   1      5.7843096793730702      5.9689013305522067      2.4932243490763883
    48   1      3.9256030631654135      6.0577605958813443      3.8443539153761423
    49   1      3.7469432620428345      7.7368636830166624     0.27336498744824672
    50   1        5.81038257263946       7.943105171190127       1.399338781858567
    51   1      6.0213266171152391       9.651431715435125      2.9838528930158059
    52   1      4.0914983790151229       9.789163340300675      4.2613726355005044
    53   1      3.8064945757574105      11.681000631119145       54.28312529347523
    54   1      5.7963951694429499       11.67904178980468      1.4499911651574935
    55   1      5.8038551866638111      13.424278314654789      2.7639451563476451
    56   1       3.688363379012777      13.188468810909486      3.7645432845456388
    57   1      3.7106227743821658      15.443112432144154       54.20720348356074
    58   1      5.5096585710586243       15.31557362525195      1.4583009549861805
    59   1      5.7348238820244655      17.311216704631867      2.5932940159233691
    60   1       3.818246671007266      17.149526011153284       4.019994871102563
    61   1       3.913449642634887       19.30432775171635       54.24687102922622
    62   1      5.7954893201055064      19.235829573925407      1.2902803617494787
    63   1      5.8293110069961456      21.186479138445176      2.7309407194002571
    64   1      3.9569155004042025      21.098969737314214      4.0667794644074338
    65   1      3.8191496130211151      23.121672581364027     0.24197492203020354
    66   1      5.7978317642956148      23.080726694275924      1.3642570957663676
    67   1      5.9736527734642753      25.030365508041061      2.7617225772035114
    68   1      3.8858563109526485      24.689191477225705      4.0205583533495544
    69   1      3.6200339331098363      27.115322414585432   0.0010949771195782887
    70   1      5.7539960798231551      26.747887832776097      1.1386623827274223
    71   1      5.7642144687142336      28.707305073338727      2.4586675442719059
    72   1       3.981334639383713      28.787666710033772      4.0362347575559401
    73   1      3.6455926495809838       30.91980678176694      54.156656502941473
    74   1      5.6897928957475639      30.989947668038702      1.1893010308767198
    75   1      5.5794102024260628      32.804859023034957      2.4842724223317765
    76   1      3.6730240435039558      32.563071519600669      3.9896045149369477
    77   1      4.0770070135032288      34.719579048409194      54.144947291470409
    78   1      5.9127288986996938      34.578744313154196      1.1184349884975291
    79   1      6.1520858418154747      36.969550022637904      2.4835215407534625
    80   1      4.1333249439527435      36.606955757347585      3.6169382821877099
    81   1      7.9049588528574359     0.33923125918859409      54.286258427906375
    82   1      9.9278801485976249     0.44279323449782521       1.248689911967326
    83   1      9.7825834458140708      2.1337558708712963      2.7357817287002852
    84   1      7.9887357253102431      2.1498567498307422      4.4646954982460771
    85   1      7.6415941488783714      4.1536255445587473     0.17694027322776287
    86   1      9.6824162577974775      3.9371569346980175      1.4166651429044568
    87   1      9.4577150508154268      5.7410692829949443      2.8524247236315903
    88   1      7.4607603450481346      6.1344397641591142       4.024157654912929
    89   1      7.8562972151716499      7.7924002666448304     0.24113043813752014
    90   1      9.6480085679576941      7.7168169497661268      1.5664215486994877
    91   1      9.5316470832517819      9.6399004807032398      2.6859116367960967
    92   1      7.8972256409716284      9.6642356701607088      4.3699596392550948
    93   1      7.4844932027213096      11.799947366353488      53.973653782160035
    94   1      9.3557108849221269      11.641283782918961      1.0300883365097442
    95   1      9.5030909744283996      13.217017909578241      2.6956685418849453
    96   1      7.6449392733316488      13.577152024582883      3.9680759775017251
    97   1      7.5336964198678373      15.491791085418576       54.17357758521311
    98   1      9.5423248313936586      15.319734227721977      1.2249816766680055
    99   1      9.7707661206956775       17.25297190296498      2.6360249490156753
   100   1       7.816325073191642      17.510978481284916      3.7056932695302316
   101   1      7.7580344485034125      19.403917685721126      54.083788413989289
   102   1      9.5378378890045745      19.450042000529933      1.5522198335152795
   103   1      9.5504900429789696      21.397328794266574      2.5811665276480675
   104   1      7.7472516172423882      21.125955013179681      4.1508212719591482
   105   1      7.5362374803814118      23.162140251178524       54.15638312287701
   106   1      9.5271441928043874       23.39048744031604      1.3290335716106707
   107   1      9.4800239329936069      25.494141493206225      2.6944691993059928
   108   1      7.6945105327338306      24.843998025863232       4.290069294003219
   109   1      7.5559832236340876      27.004258574954271      53.967600246206402
   110   1      9.4247592198828976       27.03608604085197     0.93866845935839283
   111   1       9.403360066994793      28.830789488099406      2.3594890504096946
   112   1       7.681645378605551      28.955916815444692      3.8483792252016866
   113   1      7.7568103494906007      30.716183423035215       54.24790519155998
   114   1       9.750170006444483      30.987043909345012      1.1660315600994546
   115   1      9.3393861325858136      32.948781053975189      2.3777277239364727
   116   1      7.4747518825783539      32.886215039036983      3.7198386710614826
   117   1      7.8003796408963515      34.625513103126004      54.100947412065416
   118   1      9.7491762829251467       34.61457054368433      1.0217140433462315
   119   1      9.9803617003265241      36.505963833645311      2.3574745536469415
   120   1      7.9541390652156583      36.865531431779743      3.6427683304224274
   121   1      11.659314593940321       38.31634068246376      54.182278981574356
   122   1      13.500804144814591      38.197859100746726      1.1728537751633077
   123   1      13.566299194349034       1.684981688110611      2.3687411938950831
   124   1      11.787645204000876       1.994552679564531      3.7784122066980101
   125   1       11.54633818648897      3.9534644042173874      54.181366155943529
   126   1      13.633403794744522      3.7850156924485892      1.3103616634978374
   127   1      13.548757267515199      5.7865416219922583      2.5633424337988666
   128   1      11.482439463755048       5.288201967880533      3.8915753531109187
   129   1      11.345379942741795      7.7509060131907983      54.271976537382258
   130   1      13.343899785633361       7.592955340994803       1.228212959805183
   131   1      13.461541628530309      9.3754660252312991      2.3891063867704831
   132   1       11.52273674566398      9.2349715463143269      3.6960486352946385
   133   1      11.547394685310982      11.338489467773169    0.099701288517326167
   134   1      13.390161340559168      11.588032512690956      1.2836886360497499
   135   1      13.343151457076381      13.310923552533595      2.5280249269982411
   136   1      11.598247001352119      13.481836357533593      4.1673910543144297
   137   1      11.442693386444809      15.311176356185255      54.210959277445774
   138   1      13.500628566650764      15.406106710484837      1.4827418304421276
   139   1      13.611273687848914      17.324635136169579      2.8145937835473775
   140   1      11.670855505148275       17.40835348219289      4.1036073703994465
   141   1      11.351424797075598      19.040529831100933     0.10624525084083392
   142   1      13.358054772485671      19.066939848643901      1.3705340024331218
   143   1      13.446338640255107      21.175617287423652      2.7300643066797541
   144   1      11.336825918799107      21.127229103324094      4.1397108530725983
   145   1      11.626326295053254      22.981552179512885   0.0010373831767879005
   146   1      13.501579569868378      23.044129501425907       1.357916363359392
   147   1      13.485978717991747      25.232160983097131      2.4089541969569948
   148   1      11.523725466188683      25.014557594801552      3.7921963060913879
   149   1      11.334228658512068       26.92141996061223      54.159174573476875
   150   1       13.08546253088489      27.064762663098282      1.2286903889877054
   151   1      13.073210125706138      28.706134030605973      2.8286044255527272
   152   1      10.986878750431391      28.761939920312216      4.0251183249832936
   153   1      11.536648666435223      30.883291093415004      54.109052845764509
   154   1      13.428538653354877      30.572026230605154      1.3516250152862523
   155   1      13.522444286027133      32.449065341222486      2.6077129481265282
   156   1      11.412693257012451      32.566019957669795      3.6897914274854209
   157   1      11.545040035605989      34.728580245874745      53.834687699519414
   158   1      13.417091662544994      34.425937499081897      1.2477484615108205
   159   1      13.451782803264408      36.387139883829413      2.7018394577455647
   160   1      11.582888875545137      36.602433042010347      3.9699031663705218
   161   1       15.41788039348007      38.315645419403744     0.12672513415956269
   162   1      17.450699494037195      38.121446086238265      1.4300833315671873
   163   1      17.298787036167024      1.7359071890890205      2.6164208808706713
   164   1      15.329357521904111       1.735294218365804      4.0049272416115489
   165   1      15.417760344561062      3.4993472538571551      54.157981650971642
   166   1      17.305281245351285      3.7085631663792693      1.2652065403826216
   167   1      17.363673583653014      5.5538729004809015      2.8102607768339007
   168   1      15.381233912913418      5.7291689132199872      3.9290741236128017
   169   1      15.306879624938833      7.6470897734164804      54.231553709931163
   170   1        17.2431999159427      7.5838499976555944      1.2500114198093002
   171   1      17.260857050572213      9.4264172475969819      2.6501046083999662
   172   1      15.329029775865878      9.4335438713770916      4.1479173205946163
   173   1      15.275112316492072      11.680907891548294      54.299739037240705
   174   1      17.280404787817819      11.192747949128751      1.2184633669525735
   175   1      17.570572173425397      13.141651153293273      2.7347466753553009
   176   1      15.305111294928281       13.31576410174346      3.8299684944685479
   177   1      15.365891157599826      15.414449159525031      54.273258463949205
   178   1      17.317803065936673      15.185586955831985      1.5444924618150488
   179   1      17.299044839342397      17.326680726144541      2.8386834096485254
   180   1      15.323617227729281      17.240804128906703      4.0697028301624876
   181   1      15.045692566847881      19.478443790977479      54.189091167016961
   182   1      16.872143203481468      19.260752194337897       1.472303210261261
   183   1      17.104145170974597      21.159225371506604      2.7689725082452457
   184   1      15.215163437195127      20.838380184746288      4.2338379381322078
   185   1       15.35239564308681      23.100246713489867     0.12431772736936179
   186   1      17.275758573497825      23.089251274917341      1.4012605235903521
   187   1      17.282307958601979      25.105394159558561      2.8168483351082592
   188   1      15.299420040431139      24.878258434357388      4.0264663133637777
   189   1      15.074280706167771      26.980147140443716    0.090447575867426369
   190   1      17.090222630039023      26.922281065726196      1.4007268709452552
   191   1      16.833058042946583      28.877632297386416      2.8180327758901038
   192   1      14.927330672325112      29.146311786718844       4.052977466352865
   193   1      15.483045400519032      30.678862388741823    0.058212265358508854
   194   1      17.317614646309693      30.562250701074067      1.5347431435091257
   195   1      17.087157320867131      32.607799899361517      2.7500937553779168
   196   1      15.263315512851896      32.667959648586518      4.1241057838972459
   197   1      15.468835955846473      34.470477600627859    0.012602854474732793
   198   1      17.195085522947167      34.544607513233125      1.4517902616109388
   199   1      17.252980339057089      36.414915076043741      2.8581798277065769
   200   1      15.358265987796015      36.441453393664638      4.0913344650395631
   201   1      19.220256980067216      38.232139268603994      54.125510625457913
   202   1      21.084918332189336      38.254261329544129      1.5697882750316037
   203   1      20.900844000682095       2.069730872060457      2.5439205589752638
   204   1       19.14549818401078      2.0046224969588726      3.9421516146770141
   205   1      19.163315207120952      3.6713028955582065      54.101847727898111
   206   1      21.228437623018539      3.7925345536290047      1.1461191708700438
   207   1      21.200301955882445      5.5653422837634485        2.41161241728885
   208   1      19.351963023605411      5.6366502636676312      3.8659507206903161
   209   1      19.144891033111758      7.7650484818116565    0.042047885917349967
   210   1      21.167270435273675      7.5668316670188469      1.4947806564285073
   211   1      21.186366301079168      9.6138492483221256      2.7344560068561821
   212   1      19.208709320685649      9.2327285001002384      3.8380182711945143
   213   1      19.207307074830485      11.658949076529288      54.251041481679181
   214   1      21.272977050587908      11.448755105180771      1.2782582140823484
   215   1      21.242056712052431      13.529198024413136      2.7010156071593334
   216   1      19.486117909607604      13.493312908935007      4.1423563093725217
   217   1      19.158598798499138      15.434242204675018   0.0067341518032890202
   218   1      21.128242260812335      15.249043497975258      1.0672235805603676
   219   1      21.270194172981736      17.001829771276064      2.7543575506642357
   220   1      19.246741504185255      17.472861679424575       4.088074448851339
   221   1      19.148616908602023      19.338564432245978    0.076415543055179308
   222   1      20.871227861009345       18.95965408302613      1.4167884522087213
   223   1       20.93496721578866      20.971237850823741      2.6024730001367846
   224   1      19.122269419287559      21.125206372137683       3.954708988295963
   225   1      19.222026860359065      22.897731905850392     0.16759917885657377
   226   1      21.383846918476838      22.842922965255841      1.5869688275012115
   227   1      21.177047978254713      24.923734369990026      2.6937581240588897
   228   1      19.224909345077933       25.29554186464016      4.1325830316548737
   229   1       19.06867909343995      26.851699793247043     0.19772402377543591
   230   1      20.893126426521601      26.968542697844065      1.4410112206067671
   231   1      20.704047571770193      28.659794348610948      3.0014508380041196
   232   1       18.61024947913894      29.058228217490498      4.0732443077883342
   233   1      19.210602596668604      30.486040444108689     0.18665036009980449
   234   1      20.971190885867806      30.575719547564844      1.7599637365233074
   235   1      20.967161558711645       32.48671558904234      2.7666893884391115
   236   1      18.953378205668155      32.805567907600803      4.3367470352424338
   237   1      19.222139685237799      34.367971863949613     0.30266422709950136
   238   1      21.298570841249497      34.195896357607005      1.3192106639956487
   239   1      21.042612694918891      36.120602112960036      2.6075259263540036
   240   1      19.351756355957662      36.374417358233941      4.2076916978779773
   241   1       22.51216347646659      38.364223925424824      53.948506505812816
   242   1      24.623714852858036      38.225805221922272      1.2446323680000666
   243   1      24.596788588641928      1.8040731715305565      2.5129016913024564
   244   1      22.813612493626351       1.924925236487927       4.002818219419499
   245   1       23.09903224675277      4.0711154621752028      54.064387439527657
   246   1      25.035690175339639      3.9936934306611027      1.3111601565176909
   247   1      24.953732338819815      5.6182126315367089      2.8226548237126194
   248   1      22.910658368188955      5.7439406727653441      4.0398192815700984
   249   1      23.006754224145226      7.5965644266911472     0.25056397103995764
   250   1      25.104006115392483      7.6422717949809664      1.3280496534041411
   251   1      24.880184453278208      9.6046811684991056      2.5557389025631445
   252   1      23.098263378061038      9.7790553919048122      4.0779578843674376
   253   1      23.189653398119876      11.573515819489799      54.294053145947892
   254   1       24.97591943748105      11.426907776881626      1.2560976495978129
   255   1      24.913502716782819      13.559317960278015      2.6878782596268693
   256   1      22.961075393911187      13.819784931112178      4.2548092076106867
   257   1      23.291105346478052      15.267918145633763      53.937528420374072
   258   1      25.269478867671413      15.354936189629134      1.1568231308988959
   259   1      25.026061965435652      17.298996717091153      2.5642692248364249
   260   1      23.142530004501801      17.216900118342501      4.0010132536277885
   261   1      22.798666244238905      19.164850133024981      54.208544615379402
   262   1      24.935316990094861      19.182850527287229       1.146430528401051
   263   1      24.757950982599858      21.079062049767924      2.7713781749042954
   264   1      22.711669758482021      21.017841819362832       4.107325358173477
   265   1       23.05768724452518      23.244685034850086      54.125932478199729
   266   1      25.163025244799783      22.962805649619259      1.1938836936947719
   267   1      25.001578345998109      24.845079986824349      2.8445927847196089
   268   1      22.935204850859929      24.717334846795765      4.0706283529170699
   269   1      22.905322602262789        26.7468562287164     0.21492416242941756
   270   1      24.779179079698466      26.709335178907828      1.4790028041222383
   271   1      24.536981791815723      28.646863001946382       2.987096898738085
   272   1      22.617096998236129      28.778031733064047        4.46370465210323
   273   1      22.942021139525885      30.483792096474943     0.34206174958843572
   274   1      24.739806395411012      30.606976713003807      1.6533143609654752
   275   1      24.800278814887399      32.682447550629313      2.7446254046566518
   276   1      22.818425249009096      32.720788380465343      4.1339808940826055
   277   1      22.951428145185982      34.287222317811114      54.193176294200484
   278   1      24.972021244977515      34.484955984870759       1.342173682191266
   279   1      24.525541435560072      36.282226917120077      2.6289038751226399
   280   1      22.729322660060902      36.487286402537883      4.1412873547403573
   281   1      26.986679284972922      38.344153914909363       54.28979417038687
   282   1      28.749290753380166    0.066477408218691469      1.4063477205728325
   283   1        28.8230219345926       1.992626192567768      2.7609432659064503
   284   1      26.792169082462834      1.8898091061888032      3.9186320954268812
   285   1      27.084067120636039      3.8274985764319207   0.0096007302669818533
   286   1       28.96371125230915       3.979518378026158      1.6207340926063336
   287   1      28.807535272066435      5.9532909810426773       2.977800135767541
   288   1      26.848096617002852      5.9421357156161054      4.2831145755928706
   289   1       27.00261567756117      7.5895521381826558    0.076309856155444278
   290   1       28.79854782431639      7.8284212698066966      1.3783888099902588
   291   1      28.718267140661311      9.6239164889537854      2.8070715185755506
   292   1      26.575060920335901      9.9143802913108399      3.9962022076966255
   293   1      26.978826150769329      11.441162395395841     0.02911950480487346
   294   1      28.863639527869893      11.654188235907181      1.3984318942211982
   295   1      28.841507277540273      13.550070272216709       2.627824837859996
   296   1      26.864450488784225      13.562403184767362      4.0696017423364532
   297   1        27.0946985972598      15.437188175982204      53.959632860849304
   298   1      28.902925335782481      15.413903886781155      1.0962501688743478
   299   1      28.620155458709512       17.42929478534117      2.3859097755081056
   300   1      27.027528208327372      17.359716749523628      3.8191551203313239
   301   1      26.830365189112687      19.213502692970046      54.234804462693532
   302   1       28.78478334254061      19.472684739644464      1.1873960393201841
   303   1      28.767986511041194       20.98412350477485      3.0662327072071571
   304   1      26.627316096765231       21.33822437650273      4.2862726973221452
   305   1       27.17389792292796      23.081295142296185      54.120406977595209
   306   1      28.815229762582895       22.86986155738856      1.4121199054161937
   307   1         28.733750324397      24.832534669935267      3.1092016402137328
   308   1      26.978921050684626      24.641039289508399       4.347669437842355
   309   1      26.776964230356235      26.558936536363714     0.25147104738573478
   310   1      28.777594898115613      26.785324493273869      1.6807751206774337
   311   1      28.532526587463209      28.756403815940196      2.8379965796320885
   312   1      26.544453693416024      28.856032968949773      4.2998901471603306
   313   1       26.53736039788771      30.374118586769711     0.15788235060217645
   314   1      28.514430495199658      30.727764997801813      1.4735235934047086
   315   1      28.667777421237425      32.615486080204697      2.6215411320482973
   316   1      26.803265523935227      32.589691806913585      4.1128409955027445
   317   1       26.82644860821091      34.559157683667316      54.112925023931226
   318   1      28.736697127287883      34.420754360990358       1.225770862095874
   319   1      28.680823430692229      36.399499067120551      2.4519198167355878
   320   1      26.875972866986629      36.441784354827718      4.0268324359214507
   321   1      30.673064849178196      38.172254374871613    0.073731503321687167
   322   1      32.514041766750765    0.070084396484879852      1.4880252062125356
   323   1      32.405227686183686      2.0010640041679522      2.6429005313404583
   324   1      30.704158532242886      1.8924499146770626      4.2462024509939642
   325   1      30.703765718360216      3.8593916961592774     0.10469728647826751
   326   1      32.631664721933426      3.8613674688861361      1.3370794357037323
   327   1      32.565706524814814      5.5615345171357458      2.7838503219878916
   328   1       30.83206438168634      5.6243443362554668      4.3643509245244223
   329   1      30.706527893995279       7.768968187135652      0.1251945268035117
   330   1      32.615131361196127      7.5773856727881759      1.5569532979442913
   331   1      32.452290203810001      9.5665250455341297      2.9022522344026691
   332   1      30.728373084775352      9.6201405745995494      4.2754354175787634
   333   1      30.586156909655244      11.776586334005289    0.017484349052506343
   334   1      32.591493688715509      11.367859711530381      1.4189611032901455
   335   1      32.680922050088029      13.480064825829679      2.8343111745260354
   336   1      30.690926741541652      13.507956870568803      4.1834199563549737
   337   1      30.666312233848682      15.569534415845711      54.130875319427311
   338   1      32.656207239802796       15.34890049777548      1.2057549172809197
   339   1      32.620915960193877      17.231941016550948      2.4931045477829477
   340   1      30.640510716014145      17.395721997241928      3.8286279254107289
   341   1      30.745926867815029      19.243638198922856      54.273634120371163
   342   1      32.656521523999942      19.218763618036995      1.4869048932562228
   343   1      32.429019640311807      21.250827728776258      2.7194856045119109
   344   1      30.664128706898239       21.21896326093847      4.3654523834681846
   345   1      30.879636697205946       23.13958813003509     0.22442100362867434
   346   1      32.612665860619096      23.198577129046292      1.7875814300700179
   347   1      32.598763450667882      24.958854170690394      3.2402188357763402
   348   1      30.698705396090059      24.897013424485589      4.3002495773878548
   349   1      30.691672795903447      26.925489665294691      54.287248354394379
   350   1      32.356857141507824      26.590913033534878      1.5959922961653206
   351   1      32.718268556551998       28.58181424697737      2.7716065824385603
   352   1      30.630949647996495      28.741584659407824      4.1285249128458448
   353   1      30.702618655711937       30.72156557199482     0.23008922546795238
   354   1      32.762195691823273      30.335523977371015      1.3147017943256047
   355   1      32.612401993457141      32.310723025481735      2.6908124887425879
   356   1      30.699322050995182      32.672478552752111      4.0023220508791848
   357   1      30.596125148776355      34.588713172701119    0.060907753659227938
   358   1      32.719978949916857       34.30982325223593      1.2895187972468312
   359   1      32.479966606837195       36.33286926921452      2.6835463592240685