dump/Si_1000_0/steps_41 (written by ASE) 

4000 	 atoms 
1  atom types
0.0      38.395898218429522  xlo xhi
0.0      38.395898217999999  ylo yhi
0.0      54.299999999999997  zlo zhi


Atoms 

     1   1      38.184434842544029     0.16552344873594488      54.122234667066934
     2   1       1.847612461248817     0.02792008711120917      1.2953386759500634
     3   1      2.0089881368752249      1.9185751197278376      2.7517411094439552
     4   1      38.266702034584547      2.2820884149483627      4.1189188563397918
     5   1      38.263134926660989      3.9649402717983766     0.34780034014379441
     6   1      1.9507215585338453      3.7530862618170615      1.2971304898356393
     7   1      1.9249375503750741      5.6569972709642506      2.6645958666480647
     8   1      38.315538573914431      5.7437540043325059      4.2613146226261618
     9   1    0.045198162471622928      7.8162419256230224    0.032813351230765897
    10   1      1.6970494463395545      7.6533012441896799      1.7140074894094464
    11   1      1.8237796230977832      9.7602497093379981      2.7915801943260679
    12   1      38.336753527737606       9.679240961884334      4.2574609300063129
    13   1    0.069244014631427375      11.335004147152171       54.26751156523293
    14   1      1.8451580681218562      11.548157643211415       1.269829279349904
    15   1       2.017368535808687      13.230334522936257      2.7739874024063531
    16   1     0.14200522993255166      13.498099397405399      4.1233805684709983
    17   1     0.21257538085875013      15.254050937150982      54.083091816919207
    18   1      1.7802915448016767      15.152244794407657      1.5170267438049803
    19   1      2.0192156783943234      17.052927830697488      2.8615369055937316
    20   1    0.019815468676370365      17.237874319264389      4.0314532416168154
    21   1     0.15141653240439457      19.122053296435585      54.218682797840707
    22   1      2.0713824040327853      18.811065859093272      1.2939879209409937
    23   1      1.9621730979087526      20.827324257253625      2.3908603749760351
    24   1     0.29367442583307707      21.107899708470345      3.8797766857681597
    25   1      38.224837000377882      22.962941406956485     0.24515485220156272
    26   1      2.1749377144776467      23.055296867329751      1.3489058959075471
    27   1      2.3247548888237426      24.777348597820943      3.1546090491653316
    28   1     0.15349771284862718      25.273604504385744      3.9409717603014789
    29   1    0.084914227960295671       26.88757676235937      54.242755168064612
    30   1       1.825984583546016      26.754493211585626      1.5487010944344983
    31   1      1.9618198409513328      28.764885736841389      2.6965379535105991
    32   1     0.14081114376277498      29.005670164215129      4.1623486353262376
    33   1      38.257820344578974      30.869020271693202     0.10504373092034051
    34   1      1.8280396932022589      30.771626328729649      1.2988902183720281
    35   1      1.7404700844945578      32.576151731935227      2.7746617949405397
    36   1    0.053879133007527093       32.71460573703726      4.2403024480432698
    37   1       38.39229532623029      34.754210372007002      54.283362257045816
    38   1      1.8492495192149145      34.663114098194193      1.3932233661904454
    39   1      1.5049410682808231      36.736197293880103      2.6872078727803346
    40   1      38.051534657720048      36.842014579196906      4.0480244476467409
    41   1       3.749925349369601      38.309502210402883      54.292705997486181
    42   1      5.5528198688173687    0.096868093393031235      1.5063243169755991
    43   1      5.7011256545817366       1.779377881490227      2.8725935557949929
    44   1       3.842566761629767      1.7756473353778632      4.3376369984599483
    45   1      3.9156080231526853      3.9748592744844333     0.10377191153467027
    46   1      5.7363192685122231      3.8433957896111233      1.4289737365927864
    47   1      5.5815867095971123      5.9310299776069408      2.7546429565328907
    48   1       3.788040700207262       5.705292653958117      4.2017593092274526
    49   1      3.4971960508168838      7.2636816751134887     0.19385764767768029
    50   1       5.741734886424311      7.8539496350425946      1.2245415548022967
    51   1      5.5826457089626755       9.703652800337899      2.7248037162657512
    52   1      3.8194418132058572      9.5977301255979075      4.0664306180491518
    53   1      3.7821001649764407      11.252809453359964      54.216589247318105
    54   1      5.8162081464631257      11.527556430378684       1.207840693843125
    55   1      5.7447190082101924      13.540086673960372      2.8497410903783131
    56   1      3.9150917619003462       13.35777839441174      4.1565987816464389
    57   1       3.698526735351594      14.908431685729838     0.22448435884177806
    58   1      5.7447442328088218      15.569009166630334      1.3095425566603107
    59   1      5.6232361502714072      17.333663244060418      2.7518981539517564
    60   1      3.9032916058919898      17.202381494331757      4.2271790807054206
    61   1      4.1091585331995528      19.076996362572046    0.020163575916023999
    62   1      5.9220644642953735      19.149124924273629      1.3417712769005201
    63   1      6.2666784673331177      20.978112488485237      2.7745292976437752
    64   1      3.9397788590169025      21.219432102077409      3.8813021813604691
    65   1      3.9691342829481928      22.975389073397025       54.14264641571809
    66   1      5.8586097566012034      22.826369381888838      1.3208354936338971
    67   1      6.0254558393153577      24.645002981984575      2.8075822877783345
    68   1      4.2376385552757583      24.942675173867201      4.3504502243245264
    69   1      3.8650864880829436      26.737685308216275     0.14302768847161357
    70   1      5.8208758154342544      26.526809249544364      1.4335368436294531
    71   1      6.1018187926658181       28.49153066945501      2.7789499528408315
    72   1      4.1335837296441706      28.735470932190914      3.9519266797816246
    73   1       3.825325858248191      30.700047909835863     0.22678344841398285
    74   1      5.7988079959138963      30.407417268572956       1.636688361975176
    75   1      5.5324895531750338      32.646269382190148      2.8182588726307007
    76   1      3.5697255933536347      32.627436556288984      4.1112656235791079
    77   1      3.9314867849802182      34.599650811613813     0.13087947241527881
    78   1      5.8530699632325005      34.743109868116242       1.361183278229158
    79   1      5.6714447782321704      36.440220407924386      2.8574259062802287
    80   1      3.6731223325023712      36.336181847101962      4.1362601020151368
    81   1      7.7060652235365366    0.065456011209503506     0.15553248548632165
    82   1      9.4138214052002489     0.28119566518665084      1.5647410921206983
    83   1      9.3530635512473985      2.2886516128132914      2.9918747626889513
    84   1        7.40467438962924      2.1143904421187889      4.2656795240235148
    85   1      7.5114901003604064      3.7146853086562017     0.11241925938586508
    86   1      9.0909825929710877      4.1550295612640911      1.6904253210548066
    87   1      9.1862745603165727      6.0849896522170805      2.8101915055082278
    88   1      7.4196492103831444      6.0209456208707861      4.3969970139856951
    89   1      7.7180343788882109      7.5704387970681077    0.019530914416566257
    90   1      9.5353229185116746      7.9058198144935661      1.3948047083408841
    91   1      9.5596393828772701      9.6203925073983569      2.7436689268958045
    92   1      7.4445876197154748      9.9658495112335768      3.9607032009602356
    93   1      7.6603169119407521      11.573331441507825       54.22254673845859
    94   1      9.4438214572785402      11.451802185176073      1.3628412507034677
    95   1       9.675592314001884      13.418371576955641      2.6716320987007607
    96   1      7.7272000704907677      13.433251708620084      3.9912065759543225
    97   1      7.4543609967376092      15.490587130323998      54.150600323591654
    98   1      9.2862443753671844      15.115183942352242       1.268887339723231
    99   1      9.6739163957731051      17.188509225894059      2.5427362776285358
   100   1      7.9431964805828148      17.278827891365662      4.0157450674312711
   101   1      7.7047494710005955      18.971162082941579      54.183409935832238
   102   1      9.5155071141410374      19.264025986549242      1.2890580107889145
   103   1      9.4580486321870918       21.05847003039009      2.6443928533233225
   104   1      7.9376359972601414      21.130951730466574      4.3605186763627097
   105   1      7.8557126271854267      22.816026786143059        54.2076572865884
   106   1      9.5769055958199836      23.046462072959006      1.4996131109824076
   107   1      9.6626867039324704       24.88508453448582      2.9175437698907336
   108   1      7.7658065466854529      24.994497434198706      4.2818409892288187
   109   1       7.645604091479286      26.759226302817353     0.33334998017255635
   110   1      9.7441313254387847      27.050625290431373      1.7374871471338349
   111   1      9.5887826455105962      29.184479094182432      2.8510854303880389
   112   1      7.8459220814199346      28.997589002169423      4.3020096779395107
   113   1      7.8352438892592593      30.548952517975689      54.284699948357549
   114   1      9.9720182628991463      30.930871814975788      1.2695672397044651
   115   1      9.6678131492814661      32.806846790101531      2.8564238752520161
   116   1      7.7063622977880701      32.796652133557679      3.9983206471783417
   117   1      7.5943301573192459      34.568831188352675     0.16399554178407239
   118   1      9.5756484485463993      34.890507564603631      1.4477656727837382
   119   1      9.6883416478749123      36.693849388415735      2.7638806399256408
   120   1      7.7253859936394109      36.473521564569431      4.0585503110532635
   121   1      11.309437860880749     0.28462228766884939      54.163100511809873
   122   1      13.151759318459121     0.29517885316385889      1.1637627625570299
   123   1      13.468157339664643      2.0647603680648627      2.7186335276075373
   124   1      11.406658903775883      2.1757905133730464       3.886469082794608
   125   1      11.047485928984011      3.9273753343446147     0.23645386253658651
   126   1      12.970305526295737      4.0338907491156171      1.4928306873785329
   127   1      13.126112635436032      5.9823379934927114      2.8209216814368823
   128   1      11.215128947678036      5.7722697700786787      4.0691983579028612
   129   1       11.04758382836599      7.7673632902570073       54.11362208771957
   130   1      13.047144586822112      7.8304194582374382      1.1448693189047503
   131   1      13.537211202454468      9.3060840652878163      2.7379140602851177
   132   1      11.623490200544156      9.6120727461654489      4.0185007056492514
   133   1      11.383294883131079      11.612448421014326      54.281265138539823
   134   1      13.328303378458381      11.369696893091739      1.4491261262344777
   135   1      13.673622768082462      13.448705309881694      2.6579789768992796
   136   1      11.860688904859746      13.381651029245685      4.1344865442434502
   137   1      11.312136834593606      15.121833897957123     0.20957993157147706
   138   1      13.313663208846341      15.198312123898093      1.3309039120713813
   139   1      13.406654398575013      17.259742294084681      2.5634561415188966
   140   1      11.503192306720372      17.405850311779339      3.9773721841130407
   141   1      11.458963384661597      19.306558102720281    0.017077585479717071
   142   1      13.478440585927743       19.23052979646603      1.2013342156429199
   143   1      13.418493145619294      20.906132360438868      2.7540621088653201
   144   1      11.349632989116452      21.153745968297507      3.9854911145900034
   145   1      11.440583185979545      23.123645903043336       0.115786795202905
   146   1      13.407901825354896      23.037821199831807      1.4398921918170557
   147   1      13.568376890301957      24.995155719599559      2.8620389825301213
   148   1      11.725295536411451      24.997073300858801      4.1577347181760276
   149   1      11.485265138349199        27.0154116216269      54.206817168172627
   150   1      13.568029226379542      27.005531785642866       1.459483673360112
   151   1      13.541741478896945      28.835174526909743      2.7539388065305963
   152   1      11.585313135452466      29.062966653277872      4.1744852384601927
   153   1      11.717801842830024       30.92473979661964      54.114396671744181
   154   1      13.439727137979958       30.78881818223207      1.3730117442584493
   155   1      13.516517760318742      32.859901303712476      2.9052681999698713
   156   1      11.626616490260833       32.84289002643586      4.2040890584617383
   157   1      11.584479317603588      34.747166601621949     0.21624196908894669
   158   1      13.460430271345675      34.671107099720025       1.529119271645643
   159   1      13.299098148241992      36.978701663489403      2.6868134687038121
   160   1      11.462878320393365      36.648605754048887      4.2535318732096368
   161   1      15.004604404782953      38.360084220487117      54.252076780593868
   162   1      16.864797158691335       38.26070313825997      1.5307251602786787
   163   1      17.272043682060428      1.8509233768561923      2.7810182775453778
   164   1      15.319248993066594      2.0974817874895222      4.1621162195547852
   165   1      14.970467608733333      3.7763621492367379     0.18535994403123354
   166   1      16.840952153394696      3.7607618045553024      1.3782610333050671
   167   1       16.95920464905512      5.7069649986299096       2.887808514048666
   168   1      15.045513262653861      5.8866488042440013      4.3095550112717103
   169   1      15.152777413444078      7.7840416971420332      54.230135516519965
   170   1      16.960118068420044      7.7532336007480467         1.8399315935264
   171   1      17.631853902435765      9.6008560405700045      2.8871811818069686
   172   1      15.634496291594036      9.6549739710622813      4.1452098086750091
   173   1      15.391525374423752      11.630258668232221     0.13289246417771197
   174   1      17.343568102798081      11.802220203877033      1.6822169950923451
   175   1       17.67265781818487      13.820736280308232      2.8154552940633386
   176   1      15.593560113990339       13.30597098902814      3.8743911703271485
   177   1      15.231125115751093      15.432665428526493     0.08372190268241865
   178   1      17.151238932325924      15.314137452788966      1.3347495766112611
   179   1      17.205598016218495      17.479851384530452      2.9569774537045057
   180   1      15.148034151815661      17.508656081794104      4.1828822864227959
   181   1       15.51797547964255      19.375588877600592     0.13413371062852067
   182   1      17.467327581246568      19.206587864050114      1.4742655701920264
   183   1      17.422134817182869      21.052178760165038      2.9485463679283375
   184   1      15.378317732562079      21.483803755423065      4.0814020706885232
   185   1      15.435535449349013      23.066065392332504      54.283329171138973
   186   1      17.296089223363438      22.570595805206253      1.2409832102484963
   187   1      17.551537479954501      24.676330314679127      2.7405659055890643
   188   1      15.436292277361094      24.939842928807415      3.9560726383259959
   189   1      15.466110664533655      26.817623128270746      54.184946404180394
   190   1      17.372057521096025      26.630014655058371      1.3657064601129478
   191   1      17.190432972009059      28.399424842529253      2.8330370720396432
   192   1      15.367418430277944      28.930795586474307      4.1707471596887418
   193   1      15.346890424727842      30.773235131991658     0.15392487364285926
   194   1       17.17638119987863      30.450446351379714      1.5033343274733866
   195   1      17.445662673330869      32.436889685564005      3.0553476863666127
   196   1      15.342574962543308      32.594249393943898      4.3046873595966861
   197   1      15.309924464712585      34.301217350688539      54.295647247018856
   198   1      17.347309090899834      34.245825434290673      1.3642353383766146
   199   1      17.420704199355061       36.33772768379972      2.6335937828746623
   200   1      15.265267509990895      36.930328971879248      3.8363431925676541
   201   1      18.863263276655605      38.219024019738967     0.18727168062465571
   202   1      20.976501466184452      38.316639947558741      1.4597408761835842
   203   1      21.151609453384872      1.8496897517148736      2.7664357221713227
   204   1        19.3357868771235      1.9468339172740154      4.1352846343018097
   205   1      18.879791789752527      3.8568879414628605     0.17762389589267963
   206   1       20.83037332536097      3.9023244006802975      1.4765356809027257
   207   1       20.99932909745166      5.8209543020321268      2.7518318305243707
   208   1       18.98465774379757      5.7258746208102735      4.1030767706772169
   209   1      18.821773579837167      7.7234213078867819     0.49458283696214939
   210   1      20.907282596968628      7.8304666470219244      1.6211557178257761
   211   1      21.133030926961052      9.8789384466869539      2.8891670064357649
   212   1      19.295562387681191      9.7059705074202629      4.2715905349790075
   213   1      18.934319228480167      11.283628151576064    0.011250542678408254
   214   1      20.883977714360796      11.566727791124013      1.2918365601544994
   215   1      21.053013326485726      13.532583227400211      2.5711395085533564
   216   1      19.458171141675464      13.653063531649554      4.2720177600520532
   217   1      19.138096486945276      15.323853020259813       54.19524133611398
   218   1      21.027312543939189      15.243916910803966      1.1719510154552049
   219   1      21.280451938357583      16.982006723946981      2.6012818014963268
   220   1      19.463154951442107      16.961400272111316       3.946849880960154
   221   1      19.179579478979242      18.987358357112043      54.256345882905187
   222   1      21.150664539868679      19.142854211010828      1.4222378212557629
   223   1       21.18021919149168      21.063811433080858       2.689380718897687
   224   1      19.327891335504788      20.930097746380635      4.0938334881469611
   225   1      19.228347940423518      23.012615665081359    0.088911821498686441
   226   1      21.165229631220807      23.004896487110305      1.4994542239857076
   227   1      21.360882146381872      24.718595430889291      2.8694061042827466
   228   1      19.425587962072768      24.565413463559931      4.2139741605439562
   229   1      19.324835378407084      26.915594559284621     0.13333994284396333
   230   1      21.231372729235208      26.590351743331794      1.4266412758380285
   231   1      21.265989682704973       28.77618306933427      2.7443605445585382
   232   1      19.226639575829985      28.630628733467731      4.0842591335235543
   233   1      18.825438817596403      30.827045890698145      54.247727600636537
   234   1      20.995645026411093      30.476308349508649      1.3077004588149743
   235   1      21.276455813419528      32.639357978286938       2.352566376796815
   236   1      19.609995218325906      32.499219944921116      4.1445103738703866
   237   1      19.203954758630044      34.428018993211523    0.044172683796386981
   238   1      21.303584767277307      34.590842205583392      1.2201061235314208
   239   1      21.186801000545717      36.315350171831547      2.7350830975777836
   240   1      19.228917838345041      36.532231447820948      4.1353258746539376
   241   1      23.144949936539636      37.933083327599938    0.074408940537523213
   242   1       24.87593140270431      38.222644983722041      1.3793448534976829
   243   1      25.078588428641467      1.8520310896730598      2.5925566012199632
   244   1      23.262037684782701      1.6652073220750994      4.1156004698430504
   245   1      22.752523095379974      3.6937558155003942      54.179871753945726
   246   1       24.68384206667514      3.8248666084533527      1.4178890292745017
   247   1      24.830909439154169      5.8272817367032443      2.5898518447184187
   248   1      23.060857402318256      5.5377726920064463      4.0333625385819829
   249   1      22.989208918538615       7.828113873401163    0.098784426051986618
   250   1      24.823154130963829       7.811837425531917      1.4762483645782798
   251   1      25.104998126191788      9.7255333658851537      2.6312743412097479
   252   1      23.057706880982085      9.7523003336992691      3.9496478795948184
   253   1      22.825310201831815      11.784999417502968    0.039709056462208972
   254   1       24.82632199815761      11.582047918410305      1.3421712602059956
   255   1       24.93867141674221      13.574694297264033      2.5627378121314899
   256   1      23.006082400513911      13.343416357510968      3.8337668723016582
   257   1      23.009768867745773       15.57938956057745      54.188237496900406
   258   1      24.978775055203077       15.42302310473478      1.0030465259185457
   259   1      25.150305755547272      17.465535301337312      2.5623962765093649
   260   1      23.184791514818748      17.319860716049305      4.0139408336447104
   261   1      23.084934871982888      19.293189667884015      54.294931128561331
   262   1      24.870557393986179      19.467938720887091       1.437710585775084
   263   1      25.072630185541492      21.390301405958194      2.5483258248162453
   264   1      23.153706129881606      21.159250242893805      3.9948401279546251
   265   1      22.986332400844208       22.98654063920667      54.176322272735149
   266   1      24.962591750855953       23.16673235907378      1.1830201104292524
   267   1      25.149705104198432      24.884985183172823      2.5969141749851263
   268   1      23.304984833491055      24.999468790110647      4.1791911074778003
   269   1      23.106882594751401      26.581318215565432   0.0024698644947875425
   270   1      24.875610053417958       26.79417963227489      1.4213410748942215
   271   1      25.228501769238214      28.850181188229726       2.842551971822886
   272   1      23.303252563997674       28.84152967871745      3.9131317704307342
   273   1      23.187025113389062      30.486020518795094     0.14335292200604505
   274   1      25.115867535625316      30.808557687378197       1.634946903794241
   275   1      24.821634512703802       32.79670307946504      2.8538163760717934
   276   1      22.887179704981975      32.591771758706443      4.0256697661721184
   277   1      23.129514723890033      34.429632291657647     0.14482687665256436
   278   1      24.964300965820577      34.406053653272323      1.3732072872689949
   279   1      24.965213392040411      36.251116383380349      2.7790839071351461
   280   1      23.002221359800284      36.166909459228371      4.1948309324895803
   281   1      26.841551292252579      38.005978655043457      54.252373491200473
   282   1      28.818115854583578    0.098321832753989147      1.2492684906152351
   283   1       28.58995930921099      2.0375509039238477      2.5628733779322599
   284   1      26.846014008539647      1.9299600512828892      4.1493204019342462
   285   1      26.629171228031485       4.019078464071157      54.228235160181192
   286   1      28.577035906506378      3.8986786102859052      1.2161969747524854
   287   1      28.782549380500864      5.8463198415016997      2.7473618943204179
   288   1      26.747159622101812      5.5993222686635207      3.8456527671407699
   289   1      26.795296666001981      8.0253886015699241    0.090153188783620136
   290   1      28.921311752421541      7.7365275004726426      1.2797706740776904
   291   1       28.75208276046617      9.7148654386040096        2.75510654259043
   292   1       26.95613686550567      9.5927355373270533       3.933527094906911
   293   1      26.896509459254649      11.667421485056416     0.15218097766710323
   294   1      28.955668979209168      11.452984860638582      1.3944412783396254
   295   1      29.052032291978502       13.41594124528314      2.7512769050112778
   296   1      26.941446529267211      13.578044135798441       3.789322271722674
   297   1      26.955048042179648      15.436848164456887      54.100631175993989
   298   1      28.781260517254299      15.200301019825311      1.2716168037907332
   299   1      29.051406096649149      17.169090168870824      2.6229918008404325
   300   1      26.960396173536473      17.185090643238464      4.0004245259011215
   301   1      26.631976177261883      19.236241639637843      54.293924140062224
   302   1      28.754400480539132      19.112250734993879      1.2626563159354312
   303   1      28.925026636896607      21.190695589026831      2.6364436539865639
   304   1      26.964630161673902      21.185440650400256      3.9172750960517537
   305   1      26.847638075895585       22.98709350673693      54.125273727653457
   306   1      28.647230894725045       22.91802231490901      1.1332199103000811
   307   1      28.685630816101359      24.725985986072676      2.7008448649176442
   308   1      26.935984188515391      24.539360285322655      4.1276648617473235
   309   1      26.812700780925091      26.771154371914857     0.17808864800507523
   310   1         28.810008642065      26.602867338399658      1.2826035135228173
   311   1      28.897548821797809      28.503845523072691      2.6718188186287293
   312   1      26.996174053338709      28.836665347817295      4.1817908444822685
   313   1      26.998111360260271       30.82836684636894     0.28144009632554795
   314   1      28.927477219366992      30.702834109106071       1.565058821370779
   315   1      28.794945539026511      32.580121057814942      2.8119740146229697
   316   1      26.813729445616922      32.575726502911479      4.0928406834714819
   317   1      27.020602380862396      34.500147167697463      54.274207621893126
   318   1       29.02300724958938      34.488527113790134      1.5020990050553569
   319   1      28.735424898089509      36.556864541764796      2.6221850989338926
   320   1       26.84730100803775       36.35714711979297      3.9760076278949765
   321   1      30.908417004488694  0.00034794975404136013     0.12171718820137559
   322   1      32.679387880255149      38.342210892064088      1.6280739061122516
   323   1      32.444205652096137        2.04780885989766      2.8747824973955423
   324   1      30.440261469016072      1.9668970070609446      4.0071565856393905
   325   1      30.559817422697357      3.7857251463205732    0.065338634278941876
   326   1      32.589257218606782      3.7520635917458778      1.3865460766149367
   327   1      32.581263590901706      5.6228092747575777      2.7472365625415684
   328   1      30.786689109775285      6.0617152096788027      4.0774503348995959
   329   1      30.870331995806563      7.6611586533095561      53.961911723656996
   330   1      32.476799099550938      7.7565876305721018      1.5037423350931807
   331   1       32.64391098451442      9.7389350979461149       2.911723889360236
   332   1      30.625802117101241      9.5719868653495475      4.3166856377955467
   333   1      30.618601951539937      11.634829321279918      54.150467093123012
   334   1      32.514470308149605      11.692430874086712      1.3811129243914126
   335   1      32.916289406992775      13.525316730614337      2.8125589558042385
   336   1      30.783170152690772      13.622818878264564      4.1568159804359439
   337   1      30.512441717991464       15.22967679893698      54.213905671487893
   338   1      32.517595768159602      15.204406510429061      1.2316767632753918
   339   1      32.858254007355349      17.130780766500298      2.6526904246515208
   340   1      30.970997236257752       17.28642460914935      3.9282946362006568
   341   1      30.686404629457957      19.151140203962736      54.170192115137141
   342   1      32.416455927350412      19.008866920992929      1.2102980953418521
   343   1      32.550447839185715      21.205595571470635      2.3479882890140393
   344   1      30.728027270755263      21.066164725389999       3.906441663832585
   345   1      30.747119963258033      23.125502931843961      54.285349915638342
   346   1      32.730224501405516      23.150221835513552      1.2116132152662864
   347   1      32.611756469589935      25.060373166494692      2.6319367287557487
   348   1      30.725561184673186      24.845469729412503      3.9314062813562702
   349   1      30.615705990505308      26.876903835108642      54.133473806779513
   350   1      32.515115625870195      27.040855513344678       1.286921810691003
   351   1      32.710182183487959      28.827986449655885      2.6879153745437097
   352   1      30.777598287160636      28.544040704894019      4.0021667484717893
   353   1       30.94855726842961      30.737675136319275     0.05003170603337137
   354   1      32.608079498969737      30.824206981933916      1.4659622010111655
   355   1      32.457367957105404      32.578584751794146      2.9054413461093644
   356   1      30.585152379865232      32.757514586036514      4.2284510672673958
   357   1      30.939320568685783      34.376932282102473     0.10243074091748666
   358   1      32.637977724177382      34.452370786615361      1.5592736244379786
   359   1      32.531263306721655      36.392167225131246      3.0908702561153376