dump/Si_1000_0/steps_71 (written by ASE) 

4000 	 atoms 
1  atom types
0.0      38.395898218429522  xlo xhi
0.0      38.395898217999999  ylo yhi
0.0      54.299999999999997  zlo zhi


Atoms 

     1   1      38.203349398789825       37.90817485113562     0.14103150550508897
     2   1      1.8113380750197943      38.151895585711316      1.5318153163487953
     3   1      1.8812653951061267      1.9985804979078969      2.6235281004714119
     4   1    0.041362937453436242      2.0903331191837506      4.1434536690615102
     5   1    0.080073198130129628      3.8748560923903481      0.2583754417290719
     6   1       1.960815321938737      3.9991992382484955      1.5216142862561133
     7   1      2.0864136645014213      5.7687468404969087      2.7970280631138049
     8   1     0.16355946272858321      5.8716475556538805      4.1150660435792936
     9   1      38.208091916392114      7.6737324139642791      54.257164583666835
    10   1      1.7643120448662706       7.662475053566471      1.3289915991484476
    11   1      1.9089530763333407      9.5078361564584171      2.7533658792516027
    12   1     0.20682553364887327      9.5191826206629102      4.3456841604920076
    13   1    0.021073004383466789      11.341002928069546    0.068341497424341716
    14   1      1.8299674909581158      11.417102838634118      1.3911838079956611
    15   1      1.9962468544618475      13.285961549774015       2.652702240357188
    16   1     0.22402301961220519      13.551312057181473      4.1052381871728807
    17   1      38.179285708752658      15.192512181811168    0.029939956102600727
    18   1      1.8221042362598023      15.189191713484202      1.4847050118770337
    19   1      1.9000474587620937      17.246501859535154      2.7384459305805735
    20   1      38.326565567053635       17.34926988085331      4.1551919714993097
    21   1      38.275203109995523      19.209355496070451      54.272298485693405
    22   1      1.6436120638103466      18.949397507993595      1.2697002833413522
    23   1      1.6957176121423987      20.873212527079051      2.5911893086837026
    24   1      38.013314765560445      20.838210012166655      4.1556841423894753
    25   1      38.238810357507255       22.96346617599248     0.11385180009617676
    26   1      1.7588033077498915      22.873397406761004        1.41078762824367
    27   1      1.7120841723505724       24.87255270180021      2.7708794240855235
    28   1      38.168361571988328      24.850287599510381      3.9353706935794865
    29   1      38.246684098254121      26.685826144150905     0.19131645710916723
    30   1       1.904232818781721      26.773281176230402      1.5876980581218292
    31   1      1.7520457022373404      28.663302582575621      2.8205270787686669
    32   1      38.300757108018182      28.761664486346774      4.1428428802300541
    33   1      38.177077784520328      30.354278672753992     0.16172736481445341
    34   1      1.6579846183479654      30.365289000134585      1.2543249768647904
    35   1        1.81296071352738      32.298058145462157      2.6724688035895632
    36   1       38.17453565830052      32.439607175110062       4.005102623521875
    37   1      38.371072592858802      34.275774213265812      54.227176547808661
    38   1      1.7611703422404472      34.342971934776777      1.5452370127568986
    39   1      1.8588885910491086      36.215405751122304      2.8954169983291087
    40   1      38.244588317168827      36.601027774072911       3.927745782136244
    41   1      3.6864805014859132    0.037205559693558675      54.249089568477025
    42   1      5.6496585642725234      38.306264779883719      1.2042141452032411
    43   1       5.836549184745115      1.8616623029678445      2.5608518655491257
    44   1      3.8251622989166787      2.0103659422572702      3.8172340885910767
    45   1      4.0097017980885603      3.9341063217587431      54.221986705123335
    46   1      5.7519256293431757      3.8313508912417249      1.3946175778460435
    47   1      5.8176109441116166      5.9392041963136801      2.4984500148973199
    48   1      4.1539213141651619      5.9107214560990968      4.1614587475760354
    49   1      3.7320157736200072      7.7958919310209307   0.0064069675514929134
    50   1      5.6364199840862721      7.8819693479273161      1.1301425692141134
    51   1      5.6791931111978275      9.7562519427177019      2.5549839908698462
    52   1       3.929066135776925      9.4607298552865515      4.0737132962498199
    53   1      3.7806870042946983      11.393833514154693      54.257447869138595
    54   1      5.6601461009715566      11.627806474687679      1.1412285768789492
    55   1      6.0330924287836325      13.411951998372011      2.4643420993033458
    56   1       3.859292550005907      13.569880176894531      3.8629782253568448
    57   1      3.7281848203142154      15.406421140009533     0.15556470659024629
    58   1      5.7821852925024162      15.552280090786596      1.2618687109443252
    59   1      5.7850425281256523      17.367604532406805      2.7350146536269557
    60   1      3.9782801579457701      17.207508413879829      4.2328434619344648
    61   1      3.4767090012397777      19.301981870741209      54.206696821128595
    62   1      5.5649455242736847      19.107714295437614      1.0796931950103508
    63   1      5.5080955425959166      21.117449670705234      2.6239970861179271
    64   1      3.7014311504746971      21.286430400750081      3.8417122754504929
    65   1      3.9889048161351615      23.113784009299852      54.245500803394364
    66   1      5.6988234233751562      23.090691178683571      1.2782489213862867
    67   1      5.7912132531015095      24.877129261031438      2.6152727088828231
    68   1       3.803821190955146      25.108544575918199      3.9093648127356357
    69   1      3.7701660352751989      26.910250817218813      54.245006131480437
    70   1      5.7155600549595595      26.741872536131176      1.4299875029887037
    71   1      5.6610805489355904       28.71557794837209      2.4486950651106443
    72   1      3.8982017389497532      28.681809622167055      4.0629772711260337
    73   1      3.6428287232101453      30.547751771034871      54.299010366565938
    74   1       5.599691306833229      30.644923634209835      1.0454765339576511
    75   1      5.5875995705204318      32.544202816704505      2.5642682357300348
    76   1       3.623230527198892      32.731495748586006      3.9962421998657098
    77   1      3.8092871264129013      34.445536388394324     0.20544100308042043
    78   1      5.8199003297649554       34.48796780624108      1.3554390119145858
    79   1       5.779626881460568      36.444225570155531      2.4168160463952848
    80   1       3.890020551282114       36.80007209791534      3.9103073707744911
    81   1      7.7516199333842035       38.24914328241249    0.019085723024113554
    82   1      9.6474851722196391      38.212503501901104      1.2318871604691937
    83   1      9.7110305008400779      1.7940358308602471      2.4445631693829331
    84   1      7.7218994297700512      1.7626924838101243      3.9596853175369118
    85   1      7.7354164686842237      3.7677543308917443      54.163643667752673
    86   1       9.700439730513839      3.9359019055627029      1.0807423041407194
    87   1      9.6909076287565199      6.0456654523310345      2.4517389494967818
    88   1      7.6933469012521005      5.8893820769389515      3.9618944644624552
    89   1      7.4382775628938234      7.8564494041550832      54.153508121045128
    90   1      9.4320039044498909      7.9331780533051361      0.8594704138209075
    91   1      9.4451552582276079       9.726650607650404      2.5165527765046152
    92   1      7.6296606801767428      9.6756942721409622      4.1045879667910734
    93   1      7.5840625507414137      11.495060944565754      53.878367388017018
    94   1      9.3165705056238224      11.703013635731265      1.4417432393078216
    95   1      9.4956175067899267       13.54932718362733      2.8952720555064291
    96   1      7.7100010065625995       13.36834326056171      4.0461405905181325
    97   1      7.6490084588237819      15.272004394403856    0.090597500563648986
    98   1       9.670561561642872      15.401645449655843      1.3933239963789914
    99   1      9.5791220575121869      17.368507858497772      2.6949879525862142
   100   1      7.7003376278064781      17.132997625316914      3.9974119442079541
   101   1      7.5528122014011609      19.009276993863221      54.184844585414091
   102   1      9.5075713936040653      19.157234305041822      1.1354547291187602
   103   1      9.2227843454624043      20.971555010684373      2.8324540386843733
   104   1      7.2646926371726037      20.755433197429586      4.3037863770774267
   105   1      7.7604199936938754      22.797751451639616      54.176294929961763
   106   1      9.3988623996744334      22.954476913121404      1.3864888673301174
   107   1      9.4070628994059433       24.80035723475309      2.6369883647257661
   108   1      7.5532316948385363      24.801098535114793      4.0493657376720398
   109   1      7.5034650737900028      26.613313311925939    0.042527942763661043
   110   1      9.5732592954543403      26.473972577044751      1.3104661196538003
   111   1      9.5213466875041721       28.61322424636262       2.675891425525843
   112   1      7.4886405888396608      28.747433466773277      4.1976815477801761
   113   1       7.506788473121345      30.579624994075044       54.16255129318742
   114   1      9.4784248106555324      30.524267792470752       1.277153771003634
   115   1      9.4642225895343497      32.561837621910712      2.6201625826842592
   116   1      7.5240317122068694      32.429542146649794      3.9468631913445633
   117   1      7.4642616329950933      34.312731938207129      54.049199436864569
   118   1      9.4279084194729865      34.523217361944909      1.0857744183806963
   119   1      9.6487700835067116      36.265910721483074      2.4582165799911864
   120   1      7.6961042038243566      36.362079606415136      3.9598550210458927
   121   1      11.617676329580055      38.283355891057226       54.21076458778996
   122   1      13.397484733890266      38.347847075639621      1.3338406503564013
   123   1      13.235966457759512      2.0076303173277039      2.6630390031614999
   124   1      11.605912295047645      1.9405711775405303      4.1848402832996365
   125   1      11.650568462421662      4.0623599413175135      54.186835118431539
   126   1       13.42409525990041      3.7767908328551689      1.2781396810965693
   127   1      13.535615072341342      5.7265840182457959      2.6505865253102656
   128   1      11.633936508651761      5.8648239453613735      3.8497630835136767
   129   1      11.671681868300244      7.7716656006278599      54.012985367691392
   130   1      13.589077184727824      7.8451733310838661      1.2602100505908658
   131   1      13.177340275484204      9.5602608630189074      2.6708758242993009
   132   1      11.393915566950479      9.5062658513122571      4.1189255850671005
   133   1      11.510974449741044      11.786654888447208     0.27141010859061238
   134   1      13.574201561678755      11.442672092236199      1.2361472555175628
   135   1      13.406863860075374      13.463067511652602      2.5595440691331861
   136   1      11.655238640221246      13.540279116741745      4.2152438131504253
   137   1        11.4997443634256      15.364341530624515      54.165477013686207
   138   1      13.306458738118449      15.418950439596639      1.3113366036807632
   139   1      13.353972499827153      17.446016031315608      2.6404711927060029
   140   1      11.455760770887471      17.230062707136092      4.0036778941506466
   141   1      11.425304324985991      19.334352804951763      54.284260608756057
   142   1      13.382985100714892      19.315020544352077      1.2677399394094888
   143   1      13.331677565444444      21.267203398450061       2.597691469943753
   144   1      11.446100033056748       21.08130551009986      3.8696968142693668
   145   1      11.380446239961573      22.832431062562531      54.203855746471199
   146   1      13.550763658726439      22.967919041679433      1.2331763919880121
   147   1      13.557871915868455      24.933365982495779      2.7829009497168049
   148   1      11.470020824433043      24.754045372653671      3.9510134656438387
   149   1      11.292050897205677      26.445055432274696      54.249872562461647
   150   1      13.427221954812646      26.768172095282104      1.2567820227380804
   151   1      13.096712123769109      28.583133626953234      2.7480957861726414
   152   1      11.245761682051221      28.663620602978064       4.146857803148329
   153   1       11.42480989078088      30.628217819050171      54.090859595361799
   154   1      13.293113584984123       30.60490330815745      1.4330773414986431
   155   1      13.394634942566295       32.72657454851867      2.6587666427457424
   156   1      11.434900687955038        32.5417989734256       3.938828634359961
   157   1      11.571844188014078      34.569564040287425      54.290432766027727
   158   1      13.443272570633331      34.622952632761425      1.4664355160615197
   159   1      13.519179688514669      36.413877641334373      2.9126969693310141
   160   1      11.510742112703259      36.379159588657906      3.9201176967446392
   161   1      15.326313606826149      38.310702133813656     0.18530255134695581
   162   1      17.437651206476001      38.333325241111375      1.3686259873566544
   163   1      17.313157381243975      1.9439445858479771      2.4467868577144474
   164   1      15.389996193451251      1.7046442304049718      4.0149126253992709
   165   1      15.613515752168063      4.0264523768995497     0.03961054862437547
   166   1      17.478422049118187      3.9306126062401221      1.2942344370127423
   167   1      17.243027126681451      6.0011085624565155      2.6229156542419694
   168   1      15.523628422806821      5.6265666387811377      3.9463678477591979
   169   1      15.252902469527521      7.6216473724442944      54.181820985916183
   170   1      17.408632620601434      7.7460907189389259      1.0487370528168201
   171   1      16.922724273743185       9.524296229276068      2.5369706985239064
   172   1      15.199771470838417      9.2519750733674364      4.0287153375567168
   173   1      15.348006307665454      11.521536612970149      54.054578558406213
   174   1      17.016321090061975      11.370929636734369      1.3541087251654196
   175   1      17.108868568833127      13.581408904020172      2.3939721671956824
   176   1      15.396651004614933      13.295118999868736      3.9837020120335302
   177   1      15.288386411552604      15.616171262153145    0.052743631034479696
   178   1       17.48047043472237      15.512619578210831      1.0085031073936086
   179   1      17.321077610094708      17.090412830382245      2.8149639749012754
   180   1      15.245887834576841      17.349897560913142      3.9713937870639802
   181   1      15.494946112422545      19.026178526490973     0.22063086951759459
   182   1      17.435475644211184      19.160352911788181      1.3666744014665833
   183   1      17.338131802243563      21.153312123187398       2.732233414211271
   184   1      15.077933543601686      21.281340622471937      4.3028939565454483
   185   1      15.421330066837465      23.088651071620681      54.166601907776915
   186   1      17.000751044452294       23.26325165259485      1.5842062372467558
   187   1      17.276884543401774      25.254623878952938      2.8000103527895339
   188   1      15.455022843665562      24.951812426946553      4.0902502459474137
   189   1      15.203761327245312      26.671230897317248      54.224186370218447
   190   1      17.275131972907445      26.967011335976181      1.1277140072046687
   191   1      17.058004762159619      28.688229180671161      2.5627405642098537
   192   1      15.259893647573772      28.824725038589573      3.9704107742676569
   193   1      15.028860817319803      30.541185909454303      54.015018194914923
   194   1      16.701989176180298      30.631253340640409      1.1554142568365258
   195   1      17.110762754906233       32.46712511473757      2.6447357122994948
   196   1      15.389338118684337       32.68553083134033      4.0455593707859077
   197   1       15.17239734489204      34.486826009139946      54.145978766970288
   198   1        17.0777398699177      34.341025517747752      1.2839781220115811
   199   1      17.412623052285934       36.38839764700667      2.5224497575218825
   200   1      15.640419819263109      36.481470091229539      3.8734392363096504
   201   1      19.462633463300048      38.265123420832097    0.088907326177877458
   202   1      21.366141642395405    0.092956162401038517      1.4992670781998623
   203   1      21.336896422859233      2.0637712648816722      2.6407726351408756
   204   1      19.203302299465737       1.858394207589418      3.7967488497291257
   205   1      19.357315935187859      4.0010984420004556      54.148569046778483
   206   1       21.24698601366909      3.8549541884422429      1.3069898737751362
   207   1       21.04982234288342       5.708547499080991      2.5537957488750962
   208   1      19.232029782866817      6.0113530991752873      3.8927894992838006
   209   1        19.1847752461758      8.0723251114762036      54.135879191730972
   210   1      21.032150167767046      7.7913244597573534      1.1790082286368704
   211   1      21.184655017913165      9.4848220052203178      2.5076559578805138
   212   1       18.93084255822032      9.6206396945911923      3.6653226081597161
   213   1      19.063889894988094      11.479208551327185    0.080466255962073782
   214   1      21.229416716475978      11.558487664708526      1.2931214348111086
   215   1      20.888573687232068      13.555863819978798      2.9114069519397368
   216   1      18.886503296199301      13.531612988953347      4.0307288521949678
   217   1      19.381026144261188      15.353702416864241      54.146304137920055
   218   1      21.073864935154184      15.283924877253151      1.3322500096638812
   219   1      21.043873427557056      17.145758674276035      2.6831041309591779
   220   1      19.266353773047978      17.423569298901288      4.1294854658477336
   221   1      19.422214891668308       19.17893088102316      54.233337378745468
   222   1       21.32878336796626      19.178395716844157      1.5016299685602372
   223   1       21.12499930035575      21.100576327095354      2.7854457098305496
   224   1      19.091311875280141      21.125532571687888      4.1406640781953685
   225   1      18.983877305255469      22.937019468671373    0.048282083178173667
   226   1      21.048306594121623      23.140045888268922        1.42867169690744
   227   1      21.151302102594702      25.082842029117401      2.8377071971391845
   228   1      19.271081972831123      25.030804987004323      4.0430957371625675
   229   1      19.248518010868573      27.121782484541743    0.064047880061252602
   230   1      21.092158747684845      27.038764368034897      1.5486131254324524
   231   1      20.925248284988729      28.935741819778347      2.9135227080198876
   232   1      18.822467448085799      28.937431635826471      4.1193741163187054
   233   1      19.049238816446714      30.785424045684294     0.21068301895477368
   234   1      21.108018081982635      30.827401362363052      1.2922986630463142
   235   1      21.164985825109909      32.679348923694917      2.9611629126673975
   236   1      19.132352113677143      32.360218160106228      3.9423268599683499
   237   1      19.151526663671181      34.444538430366435     0.19344723622798463
   238   1      21.036131349307023      34.515446689791489      1.4809250620380929
   239   1      21.207660875821269      36.396320311888864       2.916256797181108
   240   1      19.320937988009675         36.178789483631      4.3201037636640631
   241   1      22.957203729030443     0.20719470559222508       54.24069875778131
   242   1      24.807515921185619      38.275149665504181      1.3080837600540713
   243   1      25.214732612427131      1.8371061323453237      2.4561096490801551
   244   1      23.055798121353373      1.7795187838234006      3.9699596963198949
   245   1      23.045700726772104      3.9103222640287649      54.298344277189301
   246   1      24.891654034736778      3.8304186793655486      1.3058326395489515
   247   1      24.979209947341161      5.4677143319037942      2.7457867370079132
   248   1      22.947288850450541      5.4359242135230863      4.0064347816072878
   249   1       23.10522913339382       7.785371449112688      54.168102207055966
   250   1      25.083603724793857      7.6880255405205675      1.2989070893875665
   251   1      24.691645257051778      9.5067376911801365        2.67045122022299
   252   1      22.732909204054572      9.2861371593216955      4.0583163517545833
   253   1       23.11011317783877      11.799935744305117     0.10159146843626544
   254   1      24.952975464790789      11.197987238938252      1.4157788801779958
   255   1         24.893916087287      13.238549654087132      2.5922132880015605
   256   1      22.942276405599976      13.418833948502138       4.129485665612334
   257   1      22.908477993527629       15.32484039051249      54.093088429922012
   258   1      25.046331952217688      15.158239947112543      1.2178003295357838
   259   1      24.838281003803239      16.953266423741599      2.6594222576359834
   260   1      23.021165160411837      17.248340583297985      3.9893030282587816
   261   1      23.032357606228619      19.015212351167627     0.10750200828435921
   262   1      24.849383866066109      19.070487311875716      1.5771618915536016
   263   1      24.932396969343085      21.055209186779091      2.6550579309384172
   264   1      22.995511082672749      21.213866972271639      4.1550769859031647
   265   1      22.972694271352115      23.262418943985427     0.11085613923623881
   266   1      25.056998913792924      23.100714547934427      1.3437972571152279
   267   1      24.779856458331651      25.119402996994786      3.0538590222982642
   268   1      22.768395453925439       25.10763391398778      4.3136645842005361
   269   1      22.974761607213882      27.125071246935487     0.21695432977432999
   270   1      24.769063611216215      26.935249381496515      1.8283435900039204
   271   1      24.796224874889383       28.91022009838564      2.9523382672646119
   272   1      22.826107868286314      29.131114149704221      4.1901592990006415
   273   1      23.172354552762776      30.755283469348317     0.14641622214697941
   274   1      25.000309295166002      30.748629970205268      1.6865270127895291
   275   1      25.166910063611233      32.813082330910959      2.9321915832171839
   276   1      23.150496636552873      32.656081789264498      4.1588218176934468
   277   1      22.933893334500013      34.675426067309033     0.16790628838349467
   278   1      24.914626267207684       34.76622587309658      1.5498701549286946
   279   1      25.026071213266707      36.654693016225586      2.9916062738570073
   280   1      23.261222183351432      36.456847187150728      4.3040973527407456
   281   1      26.871850539165006    0.035859214549596036     0.30339375624349713
   282   1      28.867926348649814      38.138581482135578      1.4328159757068535
   283   1      29.006146334786969      1.8284387312330395      2.7962229859120153
   284   1      27.031985559416288      1.6596837109309903      3.9135782461749855
   285   1      26.655133131855536      3.9469512205449133       54.22815256457524
   286   1       28.38557010024455      3.9101849380593277      1.5333513993599375
   287   1      28.620183000813984      5.7836650877540787      2.7234333325822049
   288   1      26.901048608556632      5.6333663368447837       4.210089037359567
   289   1      26.994462588357258      7.6921203659033583      54.214262976904685
   290   1       28.84167535600286      7.6896153623756618      1.4207650685982685
   291   1       28.59561752565741      9.4234739868692383      2.8952267555252682
   292   1       26.73704139834576      9.4139843147892446      4.1354116482948919
   293   1      26.992786280730218      11.542499483834533     0.17823339950191427
   294   1      28.727785998736938      11.599668711968237      1.6079962037935611
   295   1      28.888094272491777      13.693333459384554      2.8127403263560047
   296   1      26.897500382919315      13.522389870318539      4.1123965918470535
   297   1       27.02732656741172      14.985318160065534      54.258873861209146
   298   1       28.70788196350701       15.54048309099608      1.2819947135035141
   299   1      28.998171297942619      17.415113905369669      2.9789595935231112
   300   1      26.770527040625456      17.233642788630547      3.9506630405525924
   301   1      26.905393233121448      18.752856522490472    0.077447023793024414
   302   1      28.775363243760165      19.127790284852789      1.3584685826856577
   303   1      28.693307590625217      21.072105286344328      2.8699384501117833
   304   1      26.898664431827665      21.106814322885345      4.1641385840178966
   305   1      26.892591049014577      23.048968413030483     0.16965268946659062
   306   1      28.665685883102785      23.121471898327744      1.6035862324838599
   307   1      28.632518053568614      25.024091672590885      2.7413266703110457
   308   1      26.867147169833089      24.868707876001494      4.0088589722289951
   309   1      26.541735039298334       26.86936673636631     0.35847671841017942
   310   1      28.648791282380227      26.888598803632362      1.3606433299928329
   311   1      28.735234602565988      28.496527167133351      2.9439814162544953
   312   1      26.759794079499596      28.674143083293938      4.3793090302217257
   313   1      26.771082094149545      30.673987366547919    0.013918180090036023
   314   1      28.729249722279029      30.295451313426266      1.3415776157453474
   315   1      28.648051102327933      32.246112906813728      2.6853219539341335
   316   1      26.928314842074411      32.362000814944082      4.2439721760297529
   317   1       26.72355840808785      34.679893326172156     0.16613753995071626
   318   1        28.7831747023852      34.518419106565723      1.4404106415921296
   319   1      29.031791833770061      36.282617751679332      3.1264111809095865
   320   1      26.851112698889093      36.269829408440373      4.2115775693400597
   321   1      30.622853840676388        38.3485070291404    0.049767678853629628
   322   1      32.593211122266624    0.073103453432432783        1.56671554592749
   323   1      32.619934965478613      2.1214864660535868      2.7899187928578382
   324   1      30.784342966548756      1.8274269665947325      4.2218726603044043
   325   1      30.531289135218802      3.6873945953279414     0.33340675009254717
   326   1      32.692114871142635      3.9160994482135063      1.4680116503500824
   327   1      32.556653218830157      5.6849778033925089      2.7999465444145129
   328   1      30.664996084362848      5.7320508161834098       4.071703706010589
   329   1      30.788875914070818      7.6855814371890991     0.16791638255167513
   330   1      32.791417768476535       7.409775395969854      1.5006395600598925
   331   1      32.499245330907833        9.34068261345727      2.7106578738078522
   332   1      30.697312235072818      9.7032944331438831      4.1417366099781363
   333   1      30.566776280220612      11.514367989070005     0.32290295017367032
   334   1      32.455322589523959       11.70341874920998       1.581171669539551
   335   1      32.814325341096534       13.38503796016963      3.0827303285084882
   336   1      30.676588347110222      13.497906686492872      4.1168304664541342
   337   1       30.91407884647613      15.136268572275887     0.51098665070271621
   338   1      32.799913683845041       15.15490165510135        1.66697926589668
   339   1      32.942747722525077      17.230812426215763      2.7572725253863037
   340   1      30.866914801473623      17.301911300843024      4.1165605407245627
   341   1      30.687859968290585      18.940145589470191      54.245555033377855
   342   1      32.552562865688444      19.115798577684558      1.3046054975715273
   343   1      32.421177680248427      20.963877345464613      2.8001897281522385
   344   1      30.596899390261601      20.881636786868913      4.2655280173719223
   345   1      30.502556043317121      22.918441678279279     0.12473287867865124
   346   1      32.398973147449617      22.904341808679927      1.3861046437477405
   347   1      32.483926740466835      24.909315769806998      2.6134540706055898
   348   1      30.625164404302783      24.821616260550979      3.9993917278280962
   349   1       30.53545402942401       26.84276316699891      54.213059842634983
   350   1      32.409636194487469      26.819677051080184      1.2256494883537818
   351   1      32.464020680232686      28.698135444373708      2.7577358620714465
   352   1      30.575649351016576      28.758491035594627      4.1256367661637912
   353   1        30.5676258692449      30.551135971133991      54.233253562007405
   354   1      32.666992345254677      30.648372611878056      1.2259840302024618
   355   1      32.502873163993357      32.609009322653449      2.6968913531498182
   356   1      30.595651043735931      32.570257775290472       4.265401862453043
   357   1      30.666056263071518      34.325588951980215    0.052610943578611097
   358   1      32.750172105374503      34.496905034031684      1.2792087972750765
   359   1      32.972969565094381      36.274272244164912      2.8007845980785757