dump/Si_1000_0/steps_81 (written by ASE) 

4000 	 atoms 
1  atom types
0.0      38.395898218429522  xlo xhi
0.0      38.395898217999999  ylo yhi
0.0      54.299999999999997  zlo zhi


Atoms 

     1   1      38.164549672006828   0.0012028914443036407      54.245218841588397
     2   1      1.7735698994699365      38.190143375211832      1.4027254466607935
     3   1      1.7626236344004449      1.6310460066541008      2.6942983091236767
     4   1      38.279934847838589      2.1706742742539658      4.0092935145756101
     5   1    0.044799988524125388       3.857755725480549      54.241980308817347
     6   1      1.8685887601947442      3.6572044400269772      1.4993230452340744
     7   1      1.9411487492611388      5.5772310258809004      2.7945068294115232
     8   1     0.12374770212850525      5.7328676851332387      4.0978570640947964
     9   1      38.203631291166474      7.6351598479388461      54.276495494676894
    10   1      1.9420698716147349      7.5640491828442595      1.3615437349973234
    11   1      1.8558221609435996      9.3604327873076816      2.6217469128711048
    12   1      38.292854731801071       9.518000849349626      3.9674678392304346
    13   1    0.027520907818480069      11.446138510113878    0.016249594228918349
    14   1        1.90299814316399      11.270486051033572      1.3053504641052305
    15   1      2.0295945432004783      13.181404693541397      2.5214377449863012
    16   1     0.18631616364073122      13.253130816776814      3.9720149365974979
    17   1    0.015121671629609569      15.369829533900097       54.10878561650825
    18   1      1.8375921702110585      15.222384674596197      1.3615559638873025
    19   1      1.7476216072189008      17.198509123599941      2.5588198805192057
    20   1      38.326236482795458      17.262328052761045      4.1201077640642643
    21   1      38.203330246224795      18.976928353338636      54.087375082052951
    22   1      1.6232426956571979      19.043069924389396      1.1673865651991508
    23   1      1.6950601023688949      20.863100139529593      2.7064243096527445
    24   1       37.99820592418876      21.042672044930178      4.0761253013791139
    25   1      38.141184182156074      23.142829943074915     0.10572200330776681
    26   1      1.6565948771791323      22.837500428280549       1.406972348158648
    27   1      2.2557659723188479      24.757636931384031      2.6601493992041028
    28   1    0.094046529741083545      24.861168861945664      4.1060673978951963
    29   1    0.059178627232559192       26.68829001580049      54.209016317438632
    30   1      1.7882322261444801      26.691921044066607      1.3694859414310609
    31   1       2.100224480779437      28.538838152337533       2.785902522405113
    32   1      38.376989460446502      28.519099742554232      4.0565249724557821
    33   1     0.47002616934663305      30.649689157676438     0.31023131067289594
    34   1      2.4307017073540425      30.585220927236193      1.6843005896152137
    35   1      1.8726060131079243      32.474481218221143      2.8187259031892249
    36   1     0.15385033426810993      32.579997797638597      4.2917853179652088
    37   1     0.22674090866610716      34.312543372440672     0.02685796889701348
    38   1      2.1351985885847968      34.282829053670163      1.3483599510848767
    39   1      2.0169199238254474      36.170511514062341      2.7701973433736757
    40   1    0.057442742063293889      36.372263460215279      4.1005364652584833
    41   1      3.5847932455857023      38.334467698679582   0.0063920658778442762
    42   1      5.7074807208508247     0.28746473622592028      1.2669497526029199
    43   1      5.5157672054514171      1.9294133665268722      2.8447174147975254
    44   1       3.570707648681072      1.6334010646669646      4.0463372770822401
    45   1      3.6098365088559041      3.6302141844111144      54.123745008940212
    46   1      5.5864530957387224      3.7673724544556615      1.1027618991673742
    47   1       5.720886341620977      5.6325186696335923      2.7452761914044328
    48   1      3.8117017753296416       5.575400711564547      3.9910923150480899
    49   1      3.6922370621886267      7.4296131683979754      54.200446094979966
    50   1      5.7296457601625042      7.5840025834410891      1.3282416292955217
    51   1      5.7952934705579082      9.5327556211639024      2.7698386699243343
    52   1      3.7844008291528084      9.3321229893514008      4.0933074414649111
    53   1      3.8332303990744698      11.376795242751841       54.08328446481228
    54   1       5.598424626019189      11.352736212867422      1.3540004324858752
    55   1      5.8126582961674593      13.275314745893375      2.5603767059974061
    56   1      3.9500539199119493      13.144066044425481       3.913487465603485
    57   1      3.7569484213673707        15.2365305299169      54.250728989141393
    58   1      5.5838260742658692      15.324810606340005      1.6070344398082979
    59   1      5.4856328876763421      17.253230184032439      2.7178053878975645
    60   1      3.5543324324021284      17.027182849548844        4.01458135094878
    61   1      3.5857145204692791      18.905317302986504      54.277819221094269
    62   1      5.5962857314494139      18.985279778874741      1.1287606979302276
    63   1       5.495531870814939      20.989806242727511      2.3764850096479804
    64   1      3.7487076330529767      21.004653404668229      3.8533607610328331
    65   1      3.5636443211879527      22.599470317723188    0.031714939968821916
    66   1       5.647324548482179       23.01287564973266      1.3286722143708514
    67   1      5.5485634318666941      24.953713561870394      2.6848256263352726
    68   1      3.7528318461036987      24.685878469837789      4.2918889780999825
    69   1      3.6356043918726551      26.685178157319381    0.018496062218980574
    70   1      5.6353763921516054      26.822996933391412      1.2932914090640926
    71   1      5.5691212988298826      28.735371854544027      2.7229717798640771
    72   1      3.8360871476127065      28.517550793608478      4.3154738265226671
    73   1      4.3021919062180496      30.668472876489538      54.042027059588811
    74   1      5.6970883960544176        30.8704239834215      1.6260907510385416
    75   1      5.8725017454107844      32.913906038780681      2.7691863300253061
    76   1      3.8809978476178411      32.907250718785157      4.0799356010165999
    77   1      3.8151467381764941      34.400986613462926      54.212161747371631
    78   1      5.8706067214638935       34.56394471488219      1.2668927841591426
    79   1      5.7704771279944795      36.422080136300046       2.662856536015672
    80   1      3.6368958248409617      36.265923271514104       4.422626143893897
    81   1      7.5820661553835835   0.0033826387391650654      54.195157199058087
    82   1      9.5851379800918668    0.021373940262679365      1.3119166648523914
    83   1       9.273171607226983      1.9167284919456287      2.6992048978143743
    84   1      7.3641798696624168      1.9358646512881592      4.4172087383371723
    85   1      7.5467390364244409      3.8077025890069103      54.277135520551411
    86   1      9.3794205435639846      3.5789957406601105      1.1696071778966131
    87   1      9.4330974424638487       5.672771530301679      2.4736832854884696
    88   1      7.7560718762872956      5.4807669578193066        3.91523636266994
    89   1      7.6542919052128511      7.5285981673112854      54.160791070792314
    90   1      9.7400612913303366      7.3753767553883653      1.0157867774477365
    91   1      9.6243151244183505       9.223947797788588      2.3693888845570199
    92   1      7.9208837678169646      9.4621855909643138      4.0770090981980287
    93   1      7.5873294163160896      11.343169198961343     0.04871164639831705
    94   1       9.514116075469973       11.34011299925093      1.4082677052897665
    95   1      9.8625850093923795      13.107339768414542       2.750107726960926
    96   1      7.7785615876057257      13.522658425772626      3.9807339365103407
    97   1      7.4107705412922122      14.933238616189856    0.083469414538080891
    98   1      9.2048734594906492      14.989070974389133      1.5187519569632408
    99   1      9.4344922384586027      17.018697218929876      2.7292542541665292
   100   1      7.6304687678339524      17.368555747140036      4.0273236328233768
   101   1      7.8711695841416196      19.179420360860952     0.20172139826875096
   102   1      9.6129351399232732      19.008779163040803      1.8444227775907402
   103   1      9.6113496837744385      21.087755577781657      2.5640369464309187
   104   1      7.4788468260286471      20.862960643442229      4.0278189133248592
   105   1       7.519485836967112      22.983868785025265      54.140117557493056
   106   1      9.3573015018947832      22.975851274721798      1.3298506387565707
   107   1      9.7397967945975328      24.697831694220419      2.6522963389081626
   108   1      7.6195136708060049      24.748298695660477      3.7980642681645902
   109   1      7.5560122509622785       26.76555466710807    0.015897097876325008
   110   1      9.5545070981789415      26.698258342778015      1.3368361487933946
   111   1      9.9019592628489725      28.601839312568277      2.7214257092155907
   112   1      7.7371508788746794      28.827025545940671      4.1191858917978461
   113   1      7.7799487532297391      30.979107919799596     0.25248016436554521
   114   1      9.8452422632424668      30.780287872909899      1.4073577426048012
   115   1      9.3916103096314583      32.655857111402746      2.7119700106838169
   116   1      7.7907176135951719      32.596405275266939      4.1238208164550878
   117   1       7.803685535881681      34.855882851512668      54.158814381054192
   118   1      9.5290360947997268      34.515365180666393       1.382168975761398
   119   1      9.5350872582907762      36.617069630923922      2.7793261605538166
   120   1      7.5569465544499197      36.427302869450408      4.1601973819039566
   121   1      11.577258087448511     0.15511695319191182      54.292103378869434
   122   1      13.577971173763977      38.237691182874279      1.4272076649439107
   123   1       12.97863566030493      1.9284906775010173       2.581360751057868
   124   1      11.259365257909449      2.0446758396511489      4.0775023358842448
   125   1      11.180738331356753      3.6007321534923773      54.212882779232686
   126   1      13.226989219967118       3.547313385313132     0.99788348139805017
   127   1       13.52120286448379      5.4492902128558951      2.4360728547117239
   128   1      11.545740896168692      5.5773713097218556      3.9312267190445245
   129   1      11.901974858434713       7.490784500642178      54.159307722021055
   130   1       13.71373753487174      7.5785230652332052      1.4965216429279371
   131   1       13.43216060361458      9.6835781949326751      2.9130469945164927
   132   1      11.237176222746523      9.4120703687790073      3.9603270884440938
   133   1      11.411803511895041      11.535159041054177    0.081913268981782153
   134   1      13.395566039449792      11.275216317839453      1.3381144791716006
   135   1      13.358649141609988      13.325235547366365      2.4113516570566498
   136   1      11.735553686209252      13.206835806103578      4.0566731521748931
   137   1      10.979037371167486      15.238518501440749      54.224545312763553
   138   1       12.99739337565333      15.303658271496486      1.1778347668334606
   139   1      13.085830175090686      17.345074633745689        2.42762588716838
   140   1      11.366867781324686      17.407730333700364       4.088455689984051
   141   1      11.384304520582297      19.402791452705916    0.096514323384963047
   142   1      13.456777966022852      19.270214755097236      1.2975816702646163
   143   1      13.487374724788941       21.18673012019168      2.8666551518718646
   144   1      11.377746400045348      20.846477094919639      4.0196203078485491
   145   1      11.456589912443928      22.983279299426904      54.210723534618367
   146   1      13.364243881966114      23.059560029589569      1.3465735632527664
   147   1      13.486982886787331      24.991348969396022      2.7871335145488851
   148   1      11.508865796933698      24.799658296841574      3.8592397912068916
   149   1      11.437810728986785      26.870136309983724      54.271352435548962
   150   1      13.219007072151893      26.761511491672206      1.4700263781755327
   151   1      13.308326457632282      28.638572782522015       2.707685018157314
   152   1      11.699004611435592      28.801963696183833      4.1933422703411019
   153   1      11.653804360246577      30.532720372266677      54.193785488455468
   154   1      13.567389698289746      30.573929761349227      1.2546253065812132
   155   1      13.590784157633154      32.546465234714695      2.5682031717482663
   156   1      11.585858806931569      32.673424415853916      3.8478287260424597
   157   1      11.275512542173404      34.544772525407986       54.02315479540718
   158   1        13.3017773262326      34.382141019886383       1.255877107584761
   159   1      13.337567814344469       36.25655397043699      2.6390098986039683
   160   1      11.586394702493147      36.701914987095776      4.1023795435862587
   161   1      15.095801165593098      38.141944395109888      54.151038043547331
   162   1      17.021621722192151      38.152058589423476     0.98894191678767995
   163   1      17.064284370382559      1.4809849177956456      2.3877235810994071
   164   1      15.098154078692163      1.7883769316978961      3.7304548028556632
   165   1      15.370862567071724      3.7716181682428727      54.082285783616022
   166   1      17.105944299604435      3.5971730006621687      1.1700392254636427
   167   1      17.228151941880512      5.4829195833347066      2.6142801064227004
   168   1      15.301765844043524      5.6496170532477326      3.8383763482452897
   169   1      15.483072302973641      7.4757362971893961     0.13756276376261664
   170   1      17.370729260822507      7.5519049020081273      1.6245577777560147
   171   1      17.023800631613245      9.4077851178666876      2.8684667368660453
   172   1      15.137663211317886      9.3267161993470005      4.3319726512143477
   173   1      15.372907052032637      11.455871061125263    0.094241979378887147
   174   1      17.361739785946767      11.096942058855022      1.3395057218783111
   175   1      17.205968782790602      13.381894907424574      2.5902746475304164
   176   1       15.13109640438139      13.486285941375023      3.9645758859401088
   177   1      15.109662109495279      15.041047744069639      54.296550033805673
   178   1      17.136819506836069      15.352961304429183       1.456897495828481
   179   1      17.192116774051112       17.09307248234877       3.028986485291365
   180   1      14.952900478388665      17.123676955116323      3.9853196651841016
   181   1      15.454920350705597      19.073977658464926    0.011145080482981486
   182   1      17.307829260687068      18.993673927458211      1.3899946376078993
   183   1      17.127458987444346      21.144159624050811      2.9048993362048354
   184   1      15.257304599426018      21.170120056636669      4.1209507378143595
   185   1      15.236964636911898       22.97904816962351      54.222888540052828
   186   1      17.153759892244935      22.984436345234904      1.4786721918024999
   187   1      17.152890186697874      24.910581062918197      2.7673466128789084
   188   1      15.348341801762073      25.049668273787624      4.1698468957911468
   189   1      15.207285053782408       26.89497273318413    0.041986910230275482
   190   1      17.099608352858681      26.773956609788765      1.4795283484173045
   191   1      17.251410281416895      28.841604321736778      2.7285294474860633
   192   1      15.312941686105988      28.821671672681251      4.0742962782811434
   193   1      15.394796275414445      30.576561736167918      54.177368198570946
   194   1      17.279154700434638      30.760970143864704      1.2015810703329548
   195   1      17.149951038390956      32.641539357333492      2.9021323811926569
   196   1      15.235581369329543      32.684571764886073      4.0772540602728089
   197   1      15.362257422883594      34.201654712600487      54.221599058226374
   198   1      17.214595284746224      34.394319851741677      1.4151150026880939
   199   1      17.405394212974578      36.464415889220071      2.4272923146286525
   200   1      15.355962579162592        36.4634642973502      3.8356029015132918
   201   1      19.054535960689542      38.330216832305496      54.081375787586538
   202   1      20.921370666039195      38.244371271716275      1.2677656106976569
   203   1      21.279298374229754      1.9434035983614062       2.378244994100351
   204   1      19.054991837819241      1.8207160652000378      3.5081916553569634
   205   1      18.848638911712396       3.868276205175694      54.039871135323267
   206   1      21.076660876839671      3.8738485610732996     0.89248070679715219
   207   1      21.118704784903972      5.4962500104008072      2.6738769443936228
   208   1      19.156200194956458      5.6891100114794408      4.0823621411132205
   209   1      19.150325737512084      7.6498664190928913      54.200961603755303
   210   1      21.150880538494025      7.4535614494578937      1.1432953516855253
   211   1      20.878808642079722      9.2911982887919962      2.5170341247648613
   212   1      19.002154571061926      9.5752646587020322        4.11240482269179
   213   1      19.124559053106029      11.350340539530242      54.147050544752808
   214   1      21.085538048078622        11.2841932594024      1.2937740842156238
   215   1      20.739378744483151      13.171261822114422      2.8696421455470964
   216   1      19.025355521232406      13.369152414300567      4.2668941043572204
   217   1      19.228860862306913      15.114640742205363     0.19891644599875913
   218   1      21.142001377328786      15.053922590780992      1.4386777000995703
   219   1      21.348003928877041      17.058348720067041        2.75199664668378
   220   1      19.315250594874168      17.125293149301122      4.0563480071146953
   221   1      19.358206940232652       18.80112387714604       54.14255762777379
   222   1      21.306251619341484      18.918457378306467      1.2140564002975234
   223   1      20.963117084869896      20.912905820164205      2.5949844664299895
   224   1      19.182492246444511       21.09530562373628      4.0165242987422385
   225   1      19.086710582310957      23.060266148230749      54.220577679901012
   226   1      20.873327463760003      22.950373562284966      1.2653943215075498
   227   1      20.900866834074453      24.864526071672511      2.7597748720556186
   228   1      19.050178474337656      24.810730814486845      4.1518968867035477
   229   1      19.031881413463665      26.987677289095636     0.25119510414886026
   230   1      21.083356676946014       26.81318624287842      1.4069132958478594
   231   1      21.186224897561715      28.536014112921713      2.9530255256761033
   232   1      19.145463162934973      28.537118911365312      4.1478037855079934
   233   1       19.30567997111077      30.755635306506235      0.0273738470670878
   234   1      21.059586886624466      30.480240300995384      1.6121427475012848
   235   1      21.021390721263941      32.630195192772803      2.9737579802982852
   236   1      19.070785897078348      32.518125513208027      4.1360234373074496
   237   1      19.039820308700218      34.534490436282802      54.282354367235499
   238   1         20.990629499733       34.47789975429292      1.2990865521256771
   239   1       21.03892461058031      36.413211087475631      2.6593950011885545
   240   1      19.120970783624383      36.518183503943028      3.9693090178746524
   241   1      22.802234638081885    0.021583933153835447      54.129285614819601
   242   1      24.797470064385436      38.262177585164103      1.3026532781819815
   243   1      24.994756844375853      1.7882986249777382      2.6977903493879354
   244   1      22.982151239024141       1.760143167772531      4.1260507806976863
   245   1      23.200631674976961      3.7208618652769365      54.102737130543183
   246   1      24.948601692896624      3.7909725589024954      1.4474930222798448
   247   1      25.075435991411293      5.7321509775295301       2.590542365262364
   248   1      23.088401535083651      5.7133709841049045      3.9043601930000111
   249   1      23.048420885573154      7.5600576177507124    0.012272623818967088
   250   1      24.860764917245202      7.7067971655132164      1.2272781573738007
   251   1      24.907988716633607      9.6246402706344441      2.5165268978958601
   252   1      22.836794409681211      9.2279977339783166      3.9969044594784129
   253   1      22.968413804794817      11.364016861296696      54.286408881966452
   254   1      24.977122957431089      11.654663792376638      1.0900200340143202
   255   1       24.70691475016514       13.27447102474007      2.8918612223792022
   256   1      22.760022095793726      13.232174877935691      4.2654269840058179
   257   1      22.995885447490888      15.057200667817538      0.1330628571276633
   258   1      24.957888227304757      15.189810487470425      1.5065040690451945
   259   1      25.145004553377618      17.231123182078473      2.5829384926612855
   260   1      23.226005579081129      17.019957728061367      4.2145846350054414
   261   1      23.053534182076799      19.081483646439118      54.076027556729549
   262   1      25.197916801118414      19.145944236970838      1.2137785093990168
   263   1      24.920987042383608      21.025201729460903      2.6878495785170906
   264   1      22.936303784317918      21.170058333364317      3.8029443734462474
   265   1      22.961696439896976      22.969719684665673    0.067393085436992586
   266   1      24.578425753631496      22.987462288088349      1.5850212374895836
   267   1       24.66482198747752      25.125414041740523      2.5568497726357253
   268   1      22.891608555262039      24.936539704530645      4.0474554375132596
   269   1      22.887823584058911      26.725769859515403      54.203328858586346
   270   1      24.760695335205444      26.999028235310352       1.115837004433591
   271   1      24.610148507566805      28.799754650112185       2.681088231053832
   272   1      23.059759221099352      28.833240454271525      4.4662532674762021
   273   1       22.87479446484047       30.73689747667057    0.079514996730381537
   274   1       24.87966233248352      30.885083269767453      1.3376455573065396
   275   1      25.027470017788357      32.769367883361454      2.9589685568782653
   276   1       22.96012703536864      32.643346235951093      4.1003468614729526
   277   1        22.8783993169362      34.339659634239581    0.020554376050267817
   278   1      24.822454546021028      34.615465155836297      1.2068019033691835
   279   1      24.877516977108286      36.573240545923781      2.7270848902313474
   280   1       23.01753546458183      36.578656616327315      4.0035163489883976
   281   1      26.753833829977573      38.031075111605446    0.018596003917230056
   282   1      28.644325144372075       38.37472855225591      1.3006982325739971
   283   1      28.951488561963107      1.6214775245438631       2.760549513534158
   284   1      26.966729079945029      1.8338896652803549       3.973921783859748
   285   1       26.60366722081525      3.8606587368677729      54.204413952985114
   286   1      28.588031987583705      3.7218566091752301      1.5398359730446267
   287   1      28.721493381085825      5.6803568294162012       2.666598457107332
   288   1      26.955615361286895      5.7385986678293062      4.1665659892816631
   289   1      26.649618663378238      7.7683869121706115      54.216031866864149
   290   1      28.702752389802832      7.7042565286727243      1.3354214821687842
   291   1      29.025442484832439      9.6326779819648891      2.6565378079818154
   292   1      26.800281506327014      9.6809582782104382      3.9541425100985284
   293   1      27.057189900004328      11.653790280717068      0.1176375049396369
   294   1      29.126938190733764      11.536754571423241      1.3490662939728193
   295   1      28.836351972356656      13.413460222808999      2.7922876117759436
   296   1      26.866844148754531      13.431656644702128      4.0240166111791593
   297   1      27.055808232343306      15.239402612469247     0.33126736090342762
   298   1      29.141165963099045      15.162858933166181      1.4222395850734642
   299   1      28.797803695739962      17.151938890638458      2.8289851008194873
   300   1      26.858468064473044      17.222329112373618       4.417510784158674
   301   1      27.177223533981067      19.180786222377726      54.179055179627611
   302   1       28.98008723128164      19.223641967613254      1.2077277490991718
   303   1      28.517852151589917      21.076468817484972       2.464089939875489
   304   1      26.780519794259973       21.24271754339204      4.0412278690357066
   305   1      26.762518837815222      23.076136160495469      54.299236082142592
   306   1      28.615044031738101      23.278229670157437      1.2875412857082571
   307   1       28.60966777355312      24.747862284294499      2.7692638781057806
   308   1      26.581424768294863      24.994225162016448      3.8426326263329291
   309   1      26.657392012831615      27.107132478826273      54.191637441304394
   310   1      28.465333843824965      26.781186346470282      1.5940701143958327
   311   1        28.8104523959883      28.727818194013523      2.8045444220724085
   312   1      26.763348155128359      28.872206007277967      3.9441706432997177
   313   1      27.042639353690529      30.703997605540081     0.37289008577409954
   314   1      29.074051551533497      30.438990655701637      1.5418414426513118
   315   1      29.008605967672011       32.55865423579678      2.5198450762694984
   316   1      27.149800987477761      32.796988442925574      4.1413706726286685
   317   1      26.941448057229728      34.852207828023282      54.243125855632293
   318   1      28.769439862169435      34.529926467586478      1.3433553909638043
   319   1      28.879144107227319      36.432728143287441      2.8362940122110811
   320   1      26.829618515817817      36.396313613634625      4.0991471009686746
   321   1      30.691919690673316    0.055726811278621974      0.1205557421954154
   322   1      32.682418732057002      38.366265346424591      1.5004671514629093
   323   1      32.674605210128234      1.8055939347409757      2.8858201700154034
   324   1      30.786830368205276      2.0964785974778004      4.1283734460360533
   325   1      30.382661400127205      3.7787050927821353    0.013445369482337821
   326   1      32.377666204509403      3.6896132270682043      1.3637369938775588
   327   1      32.543296664871193      5.6783596390849143      2.5966357222517686
   328   1       30.73552472943026      5.7710273255548188      3.9800748010159599
   329   1      30.499716858075637      7.5982171677622041    0.082241739048424647
   330   1      32.468238278916431      7.5552048105879113      1.3703727304841535
   331   1       32.66610321977749      9.4381838366430024      2.8652819650391042
   332   1       30.64882431185039      9.4149759002174243      4.1940586014837091
   333   1      30.863928070854637      11.446134534120098      53.995519254115791
   334   1      32.666769671047476      11.362041073540757      1.5129618381912247
   335   1      32.597991665983457      13.439654193941774      2.9246539437049504
   336   1      30.787065633065225      13.219558268797844      4.2558960980234559
   337   1      30.804317745721779      15.182913396696044      54.162181455585383
   338   1      32.610154994218398      15.304611099019398      1.5778244981554408
   339   1        32.8419880114932      17.344420227634018      2.7439437047815671
   340   1      30.752292660957906      17.275079208346366       3.957608666093209
   341   1      30.974025369657895      19.259782457105867      54.203996829660937
   342   1      32.831424565011631       19.23761729955239       1.160997895782486
   343   1      32.477411949015817      21.253034368966116      2.5085813844505411
   344   1      30.437825086989243      21.011234142092473      3.9284461627114204
   345   1      30.509410588848123      23.094133200647821      54.218580979839871
   346   1      32.452493262683028      23.040653922818542      1.3002082936087629
   347   1      32.490448358488827      25.127433704596317      2.5519415541226969
   348   1      30.622920155937823       24.70362446568728      4.1944641204168622
   349   1      30.466469275102217      26.847660892321628      0.3542712787895651
   350   1      32.616203100802316      27.004183704892583      1.2832600801283984
   351   1      32.524904025006414      28.764460900821426      2.9377520076955861
   352   1      30.596417689443918      28.603903508027042      4.2940586162114647
   353   1      30.753644309241327      30.593471454451851      54.190180590285593
   354   1      32.560488249666498      30.693763627036013      1.4312866736173857
   355   1      32.371227729537971      32.571738099880534      2.7390545123897723
   356   1      30.616010153509279      32.753833439352235      4.2345051422212325
   357   1      30.641315624628479      34.872757779704877     0.12882426259004653
   358   1      32.697447769720824       34.39439776975766       1.334171895595327
   359   1      32.529941224966414      36.331421501963305      2.6768876281564169