dump/Si_1000_0/steps_91 (written by ASE) 

4000 	 atoms 
1  atom types
0.0      38.395898218429522  xlo xhi
0.0      38.395898217999999  ylo yhi
0.0      54.299999999999997  zlo zhi


Atoms 

     1   1      38.185172014277214     0.16097860591854135    0.088221815935037418
     2   1      1.6703497628711661     0.12061652522653607      1.6075142337937818
     3   1      1.8317107652429381      1.9655452628106227      2.9960805268653057
     4   1      38.342882378515945      1.8241672262823054      4.3389320413260428
     5   1      38.315644765461172      4.1569177985370995     0.11471017412890189
     6   1      1.9420415468114316      3.8498154443484482      1.4725450589035196
     7   1      1.7316811274313837      5.8275872992045681      2.7917843442832804
     8   1    0.041581098527213534      5.8403184456312847      4.0929885708280596
     9   1     0.18057419783460063      7.7461900031208861      54.090149317456941
    10   1      1.9597906362788085      7.6694104816417505      1.4116431856449263
    11   1      1.4911315572138273      9.6213889393276677       2.484319093533939
    12   1        38.2567314144977      9.7139492285250029      4.2700865842333435
    13   1      38.366653585153593      11.434191372848517      53.942567841103042
    14   1      1.7662462437958359      11.486576323028849      1.1969566286317344
    15   1      1.8440276628445007      13.312641732640435      2.6888656543177132
    16   1      38.341057488553744      13.117971509987159      4.1012711720836013
    17   1      38.323544625073339      15.348258281285295    0.069303729837838612
    18   1       1.803637394880206      15.041540313954494      1.2555886727822789
    19   1      1.9310860159877696      17.129117581082753      2.7057144907619981
    20   1       38.30803257147636      17.080883926904917      4.0219356263869495
    21   1    0.084568621147547263      19.275052472364532      54.008809371233738
    22   1      1.7810540897218041      19.356451114015279      1.3023175927735688
    23   1      1.7922255810634113      21.093126430609377      2.7860522777952861
    24   1      38.301171952325006       20.98785199892404      4.0139621054817889
    25   1      38.187714752589962      23.020620210410968      54.262735293904711
    26   1      1.8155494391896736       23.13178067875851       1.309734845835183
    27   1       2.055299813842197      24.902032111157151      2.8919793183397933
    28   1      38.241784139401474      25.091034976775031      4.2362057733084262
    29   1      38.237091217755349       26.74251498488875    0.079427632232307241
    30   1      2.0055633411602392      26.756657913186071      1.2267749624347066
    31   1      1.7268612352057799      28.663711687915306      2.4961815846353281
    32   1       38.30299296363534      28.868668609505605      3.9471226022644275
    33   1      38.218811588168542      30.819332301078358      54.296066313522914
    34   1       1.729914829378731      30.897889917433041      1.2811015655098592
    35   1      1.9287690833017652      32.684083882372313      2.7326975883767752
    36   1      38.254929071932523      32.674939182217521      4.2689480390040186
    37   1      38.259747555568254      34.574035561565296      54.295963558285969
    38   1      1.7951757059588322      34.473833179960579      1.2843898972744459
    39   1      1.8901210034131224      36.330859165112066      2.7245365403921955
    40   1     0.17279753591008157      36.519885765530255      4.4134739121852826
    41   1      3.6557186038389697      38.362676085118366     0.34422279179092335
    42   1      5.8011646418222211      38.320620570225124      1.2398361400587177
    43   1      5.7249165130021886      1.8805021376221498      2.9152016199911399
    44   1      3.7305986823154309      1.6851449622739638      4.5707080447185842
    45   1      3.8720361218225388      3.6316366068311083     0.15507055820339694
    46   1      5.9155557754795431      3.6210903817013418      1.3528553750478964
    47   1      5.8905336316026933      5.5543134773344027      2.6961293540048352
    48   1      3.8182824306986594      5.6847100600144751      3.9923794574218179
    49   1      3.7567874638542618      7.4967285621950808  0.00035111998314505397
    50   1      5.5567616252234426      7.5932509214320651       1.472103797058528
    51   1       5.533158687022282      9.5465334639815094      2.8151706564179699
    52   1      3.5859226862614357      9.4623330868633317       4.013541278042899
    53   1      3.7253476280545903      11.478316651732049      54.207475741437072
    54   1      5.5316947396374054       11.42706231243003      1.1877848410553038
    55   1      5.4475885664082897      13.299902455182542      2.5677920366272384
    56   1      3.6569139570512541      13.425643689710807      4.0713852755966418
    57   1      3.7885346884467226      15.245933636958972   0.0048149584035627434
    58   1      5.7447973333118085      15.148425634930376      1.2370389022395112
    59   1      5.8105963097546169      17.094395148722935      2.8848253450568246
    60   1      3.7372540737154987      17.263034180289612      4.1050614458879187
    61   1      3.8450443701440928      19.097624116022434      54.283723532901327
    62   1      5.7515612337556945       18.83442172445848      1.2696666266114809
    63   1      5.7995025441765371      20.800269572670572      2.6077865423680104
    64   1      3.9467969512642633      21.035048176998171      3.9393421779386926
    65   1      3.8344592510135826      22.838788532111749    0.038919618569173073
    66   1      5.9002994403695865      22.670741941374093       1.236979710476239
    67   1      5.8205875054776355      24.533170595409491      2.3886062719163093
    68   1      4.1119938231712077      24.745921887391404      4.0437986475070042
    69   1      3.9944881385423057      26.766489912428931      54.109463949501027
    70   1      5.9028432749268696      26.749208655821782      1.2123433181100136
    71   1      5.7706814510421633      28.630980250279102      2.5355179512416166
    72   1      3.7053241683693612      28.786141006415633      3.8827032757337299
    73   1      3.7282259663003789      30.822005079911897      54.229662592748333
    74   1       5.521840099367993      30.800822247458257      1.3016060634323936
    75   1      5.8629658500994104      32.724753999115379      2.7359688799494064
    76   1      3.9419467735073077       32.58132383698868       4.069946331393818
    77   1      3.6590795140601817      34.607669976398078      54.026019931651952
    78   1      5.6664179777104309      34.602538284302547      1.1707159720285607
    79   1      5.8338507415282246      36.373078138426429      2.4764439200808259
    80   1      3.7956483807508983      36.252639276623917      3.9657876334500526
    81   1      7.5339809598114194      38.254733396615904      54.081102930709648
    82   1      9.5557866981550372      38.060181110481331      1.0983129060963723
    83   1      9.4708893973206472      1.5616985497877602      2.4000655512175064
    84   1      7.5497341365317521      1.6073746067763617      4.2049784404605735
    85   1      7.7313317345979087      3.7608000364825003      54.232577452858862
    86   1      9.5950558580292888      3.6183988373721983      1.3308359665628589
    87   1       9.587744231157405      5.4788487483598605      2.6914535833577022
    88   1      7.7836207676841953      5.3243630349299176      4.0728887216712462
    89   1      7.6343171531428089      7.6954792293601981     0.28382632701258237
    90   1       9.785985261032554      7.2933348040890209      1.3265765339106925
    91   1       9.320165580828693      9.3098945701130482      2.6798394960541509
    92   1      7.4927016562562381      9.1458025685536288      4.0784966310036452
    93   1      7.6738156211586306      11.389028706219827    0.071666457608591902
    94   1      9.6171510227135339       11.34455551927338      1.4347124155544724
    95   1      9.6267829657104773       13.30479505892378      2.7472163403946177
    96   1      7.5757367967560203      13.180290039888101      3.9391845520023252
    97   1      7.7644439692229419      15.159848892157672   0.0092149847450400564
    98   1      9.5477393756288027      15.354467086714685      1.4287005358596518
    99   1      9.8245523843795262      17.135720799412489      2.7740767709643683
   100   1      7.7185256639427262      17.267550022344849      4.1389863558358906
   101   1      7.4985253254696929      19.007519950040848      54.072578311808272
   102   1      9.3403900035762817      18.907236496502868      1.3199681951917701
   103   1      9.6444897527435742      20.900720784800392      2.8320169263995245
   104   1       7.721105135850526      20.881918188915119      3.9358560888631002
   105   1      7.7639746236783189      22.895491918603728      54.236533717374847
   106   1      9.6792691637391535      22.870986798917428      1.1407934719505284
   107   1      9.5634642295101173      24.639912014144642      2.8000327446232616
   108   1      7.5618771145010886      24.608389491051334      3.9065776413607884
   109   1      7.9246669795933391      26.593763630928407      54.188517511152767
   110   1       9.734345060220658      26.571302818774488      1.3630302424166891
   111   1      9.8023727581812565       28.63783565280303      2.5984680737144008
   112   1      7.6423047078909994      28.663569864526842      3.8421440169196313
   113   1      7.4822372764433771      30.543920657577683      53.980274230799125
   114   1      9.4517388596169134      30.726332328041398      1.3058821371917915
   115   1      9.6808118259643265      32.590362411208659      2.8215386383275232
   116   1      7.7191150770759425      32.444899366085529      4.0440066752494293
   117   1      7.6676637796410709      34.593655255153863      54.227046429488524
   118   1      9.4811021491938767      34.239390831222707      1.3154234258230744
   119   1       9.716888724734936      36.059770727838327      2.5194856528880423
   120   1      7.7233111558153027      36.283720702756732      4.0001827530965652
   121   1      11.577905981211579      38.252507271931613      54.124395599244572
   122   1      13.530841164182704      38.087963895033191      1.0838232583114642
   123   1      13.505000061791758      1.6579656592281662      2.7222320317916218
   124   1      11.421918622909827      1.9876095400410045      3.9791038653230877
   125   1      11.418479085167954       3.745217532862771      54.217317720666685
   126   1      13.363084748387967      3.6820358861571623      1.3123826135584415
   127   1      13.507355035379097      5.5814383398588534      2.5780706004353622
   128   1      11.588728632622583       5.652638996173498      3.9992714086282604
   129   1      11.681209267679188      7.5359747576534541    0.063109226661015191
   130   1      13.619465313917749      7.5611231883414884      1.4589842407860034
   131   1      13.498867209184784      9.6987874611282798      2.9372529766260973
   132   1      11.624532821661269      9.5291986688153454      4.2619611558201562
   133   1      11.484999533315442      11.808053408826508     0.29838814701875005
   134   1      13.371372105135082      11.564192808294747      1.5961087509819447
   135   1      13.392934635491192      13.362292541582766      2.8509721606809078
   136   1      11.527585466487508      13.314796784200086      4.3005054860997038
   137   1      11.598122344480821      15.091885886114827      0.1489603512058352
   138   1       13.50268055543358      15.304542751319934      1.5367100689931492
   139   1      13.317643379296266      17.265576818052054      2.8213652609833488
   140   1      11.536511931745915      17.084853953742481      4.4054236472953763
   141   1      11.410831555991965      18.950019401146481      54.272513550523499
   142   1      13.461059408190545      18.851221920399787      1.3061225540601751
   143   1      13.629680208430537      20.881812842287491      2.9834228075680369
   144   1      11.524173952312783      21.056064347165641      4.0785536531542217
   145   1      11.688108778404169      22.638195973411626    0.012058100547858422
   146   1      13.509351827835182      22.856845169322735       1.516759209182353
   147   1      13.764694733359242      24.840765368878007      2.7183712916359686
   148   1      11.783632565247171      24.879133696957922      4.0194838825291077
   149   1      11.484378962209778      26.645457444322247      53.896936227884119
   150   1      13.396966972302193      26.711380807588199      1.2611961369285256
   151   1      13.312715292668198      28.745618978859671      2.4734869024912416
   152   1      11.478495531403665      28.903816903698925      4.0367283560160363
   153   1      11.383091755538151      30.733340881994629      54.277677822262874
   154   1       13.30777194734592      30.619103556297603      1.2505272356054098
   155   1      13.470957618622059      32.681066568085093       2.440574085879804
   156   1      11.653031721258058      32.582693293211342      3.8369340103221798
   157   1      11.353229220044851      34.454510032977929      54.258712028048819
   158   1      13.442976032181388       34.79270004449581       1.189248368137884
   159   1      13.730797289648272      36.502927118189248      2.7614398680890408
   160   1      11.556307526730444      36.234984409825486      3.9041597073527567
   161   1      15.392491140110067      38.053993857544782      54.101881043302754
   162   1      17.236217778437215      38.372849205254809      1.1351477913918619
   163   1      17.363823025464949      1.7736287467184675      2.7243994041243704
   164   1      15.516326986144858      1.7147022850548084      3.9531356459522597
   165   1      15.367855558372904      3.7203773089887844       54.13813191359381
   166   1      17.307046817530097      3.8744463591647698      1.3877255051325947
   167   1      17.406263587000435      5.7348739654052272      2.6924551312593055
   168   1      15.596899741371137      5.6188014423897465      4.0729791318757185
   169   1      15.652529999563848       7.778390306629384      54.195309384248787
   170   1      17.094229524545963      7.6617483253765961      1.5108931611762506
   171   1      17.208820471024723      9.5045326000536683      2.6901620132102715
   172   1      15.359272850417751      9.2430825388332369      4.1340435025242739
   173   1      15.349836455287029      11.449214866850909     0.12544732201492942
   174   1      17.343415224480491       11.48587601259632      1.3047571083402303
   175   1      17.525360785374211      13.412291207511869       2.558211433186901
   176   1      15.528352559782942      13.010927369148455      3.7896766288244859
   177   1      15.334477231166458      15.340943192310831     0.10986767669372723
   178   1      17.384681974089091      15.384645019533563       1.184638293227638
   179   1      17.402258639048039      17.119020153710874      2.6221275009538334
   180   1      15.417433950492942      17.080058846108301      3.9887494397671821
   181   1      15.422538873658215      18.759596887794036    0.093560634530433479
   182   1      17.276450940070628      19.287034975557958      1.3942118737787617
   183   1      17.185698987370536      20.868654237628615      2.9510758279442348
   184   1       15.38635304150722      20.840801444911918      4.2893403453371217
   185   1      15.394584749226599      22.766590895780432    0.050520767287525803
   186   1      17.214352194975763      22.788889064891457      1.6481740912143565
   187   1      17.485521488174058      24.858177064710596      2.8808037939602507
   188   1      15.536463242396712      24.713003486625169      4.1788947805167567
   189   1      15.498285795833858      26.634641880589975    0.047662978348921553
   190   1      17.534791281327411      26.517597858977634      1.2955757376003842
   191   1      17.270969666491141      28.647896845123231       2.532141330876311
   192   1      15.320962370546043      28.723732316020094      3.9359861852930966
   193   1      15.174950382533632      30.590920643364697    0.095059886283058906
   194   1      17.350225168321906      30.605615674054278      1.4880886145459848
   195   1       17.27894373917912      32.588046156786305      2.7710720932637738
   196   1      15.266249329152911      32.602436720813166      4.0862677048707265
   197   1      15.299729776853349      34.230201743975798       54.25936770120785
   198   1      17.191446214345618      34.498904813505142      1.1946549775044886
   199   1      17.393498931200259      36.341026679443345      2.4103071066458037
   200   1      15.604902974514374      36.360809759544459      3.9960816346858667
   201   1       19.30114429392064      38.385130958354829      54.090032041302869
   202   1      21.058430935598725    0.086607404599545273      1.4270682301238595
   203   1      20.572555338995251      2.0585395699545481      2.6186394495676182
   204   1      19.161678799459938      1.7928800471578292      4.3245524584030566
   205   1      19.129778975702926      3.9431015347437977      54.216500902572179
   206   1      21.000802952772322      4.1062559488616754      1.3263103589404954
   207   1      21.257406050180631      5.8610304715167461      2.5629239394574013
   208   1      19.316845890177802      5.7073457895464852      3.9473421239038564
   209   1      18.892137138326447      7.4627726066135445      54.144042638995799
   210   1      20.890027642264275      7.5506961498690606      1.0867264988757734
   211   1       20.95156040673816       9.240319966532109       2.576901393074686
   212   1      19.014107624402289      9.3893482116969196        3.99209483608603
   213   1      19.313740311900137      11.442916641026631     0.13595914876678969
   214   1      20.899714322505172      11.369494134525048      1.7135554734076219
   215   1       21.36023775008324      13.371591078174601      2.6154463503348078
   216   1      19.429493351483003      13.375791618739864      3.9587342385007904
   217   1      19.236699708769116      15.601488983673342   0.0077134110376050804
   218   1      21.316865442214738      15.154476634402412      1.1813294709981621
   219   1      21.329017889518177      17.093134393229082      2.6843166314631373
   220   1       19.39226641842934      17.281525370910675      4.0182048997984881
   221   1      19.266835410680724      19.225634547303347     0.20615764829668698
   222   1      21.222531150752783      19.084094527583702      1.5398143634596861
   223   1      21.246008391218215      20.903654265638448       2.933448896692755
   224   1      19.309123291930497      20.807826159665687      4.2137514987852818
   225   1      19.053967049819356      22.919022038492223     0.28675158999426464
   226   1      21.041617895518225      22.733763470024947      1.5818778163421132
   227   1      21.088098728265265      24.800445419713228      2.8617139742432407
   228   1      19.156046439784639      24.802467145344579      4.4287579311413783
   229   1      19.463547701607279      26.863583863249467     0.07496418618018208
   230   1      21.390521659699001      26.835094439809708      1.5403957391762131
   231   1      21.294428884932927      28.572814295261367      2.9283012839690525
   232   1      19.237593045061065      28.945963510537592      3.9210899145978257
   233   1      19.253317964231304      30.739937195975902     0.26218536964142891
   234   1      21.077678690055713      30.299878744247287      1.4450374643256416
   235   1       21.11098360611129      32.275791806205433      2.6526101561796973
   236   1      19.155775699707384      32.891072458207304      3.9615950707505907
   237   1      19.105653881170753      34.715580189507882      54.092748654975431
   238   1      20.837879873640549      34.566715222208046      1.3659694605545056
   239   1      20.936302009913337      36.578266030906612      2.7966932977584187
   240   1      19.072180498952385      36.575252861259131      4.2425109819766949
   241   1      23.073980488122011      38.322920570953031    0.098530595682143285
   242   1      25.000676065010076      38.151974592206336      1.3995935770679695
   243   1      24.610456923308032      1.8242200993107509      2.5630186381250821
   244   1      22.704168376369164      2.1305173676660649      3.8234278235322683
   245   1      22.885055783580306      4.0973303346466921      54.265655174483591
   246   1      24.997329434921852      3.7126197659547513      1.0170414159049408
   247   1       24.87361318519671      5.6320697196731446       2.267496229898176
   248   1      23.134591903941974      5.8068764775608406      3.9057375508324168
   249   1      22.855766987792716      7.7640802280704291       54.05818226249184
   250   1      24.856613186587001      7.6678774649831931      1.0351802748827728
   251   1      24.787214728864559      9.3957998269012428      2.6380665020414784
   252   1      22.838485745214815       9.773375048812067      3.7711202281033001
   253   1      22.851575082328186       11.45106880435606     0.22175490726265257
   254   1      24.883794547314583      11.485100459190924      1.4169559401579117
   255   1      25.037872804099248       13.39987286867092       2.799189153325234
   256   1      23.047575042086759          13.44695816578      3.9193652939181538
   257   1      23.185571159771087      15.398353435025088      54.259263673132111
   258   1      25.128164069525457      15.330498157182413      1.4134045893581058
   259   1      24.816071044384778      17.434212245174251      2.6277103079938255
   260   1      23.298261933208117      17.290157854749442      4.3264598009716346
   261   1      23.166008212925643      19.316354880301894   0.0066867361014260373
   262   1      25.050466716049343      19.248477999931364      1.3565394724983413
   263   1      25.042840502273158      21.160995671342093      2.9146893055264496
   264   1      23.050521356146628      21.101980157393104      4.3623993107500256
   265   1      23.131212686910718      22.873102472150237     0.28947727276976165
   266   1       25.25974144366695      22.778079895772116      1.3645475200538864
   267   1      25.071701728278242      24.747616444584398      2.6056198427468784
   268   1       23.28719844226174      24.963566613458504      4.1481349344080432
   269   1      23.015328172624532      26.583432934096674       54.16346163677396
   270   1      24.751654740791441      27.028536269925354      1.4511782086757663
   271   1      25.307491795185665      28.984319068680986      2.8258997319560448
   272   1      23.394522890819637      28.758899898365236      4.0175021942559876
   273   1      22.872104871989702      30.444556184281865     0.11326646985544367
   274   1        24.9136559074894      30.814549113336973      1.5376566842781789
   275   1      24.929648502518177      32.789286333619046      2.7806004547487855
   276   1      23.135116862816524      32.482749701733013      4.0188740283811519
   277   1      22.946394101107568      34.496022410736856      54.275026869331356
   278   1      24.914120768474589      34.608150782595558      1.4327255804044736
   279   1      25.061150575168149      36.354715463654948      2.8491083591464395
   280   1      22.978180964038909      36.587168539027829      4.1335206682372467
   281   1      26.938616655657217      38.283223809551473     0.13088750358184589
   282   1      28.813967289362175    0.045426453385335699      1.4314325904776846
   283   1      28.890621459613104      2.0505397800175222      2.6509410816396088
   284   1      26.668021181784177      2.0807631592486535      3.8797683749188066
   285   1      26.944866686391194      3.9714125974901844      54.101094004359709
   286   1      28.698581061476066      4.0807605169401331      1.4308894389209383
   287   1      28.719843498505902      5.9206681686494846      2.5845494815882724
   288   1       26.66379368729962      5.6852163517393155      3.8240670333227071
   289   1       26.91378763493368      7.7501419761762831      54.056080561021083
   290   1       28.68162250815924      7.6928024329465083      1.1448346788527688
   291   1      28.942000950999823      9.6324667069934264      2.5871411768206261
   292   1      26.929491948278667       9.538402506858672      3.9200711071768088
   293   1      27.020203632986068      11.478879407978523     0.21964620458901429
   294   1      28.910608859213305      11.557169937179355      1.4406755611442907
   295   1       28.84014080174363      13.918421243266572      2.7565039361207733
   296   1       27.02644504714479      13.232622878602978      4.0904025811838007
   297   1      26.990224196227153      15.162117277729157     0.13961030905352331
   298   1      28.878859555476115      15.737390458101798      1.3370479112634126
   299   1      28.752459347591444      17.351022519940969      2.9470546467887395
   300   1       26.74183512957843       17.34456193367091      4.2412428917565661
   301   1      27.057608585198295      19.191859874187259    0.077218329433583366
   302   1      28.915767056647773      19.222265811922842      1.3776084621211084
   303   1      28.634317275886783      21.275517330827345      2.7126895348499582
   304   1      26.737135893536959      20.957020241500068      4.2678516358825025
   305   1       27.20611388704835      23.052493824844191      54.295102576874577
   306   1      28.947023486046923      23.180436026737443      1.6870262354996926
   307   1      28.810209334953338      25.066817991694624      2.8740628355486226
   308   1      26.730059163712284      24.827016134268376      4.1656669696841728
   309   1      26.884428231966115      26.924993452862353      54.284548359472815
   310   1      28.935393626635257      27.041441406096627      1.1753966076103994
   311   1      28.907564276465841      28.762814854892337      2.6048800722842413
   312   1      27.159160093054567       28.64967899260456      4.2395312664122793
   313   1      26.849703272430862      30.700239906730168    0.032721257484820424
   314   1      28.740566996891271      30.676423693377892      1.2803147137473503
   315   1      28.715467274040716      32.409005582353601      2.7175772331186092
   316   1      26.765856418069333      32.593075151879269      4.2939367850356005
   317   1       26.90372045346658       34.77584700068217   0.0061620697581929382
   318   1      28.818442968292207      34.257242907129715      1.3686849312908276
   319   1      28.788006377801469      36.374508661435321      2.6292186007181284
   320   1      26.949586791744586      36.389436511184186      4.1092906970351901
   321   1      30.711687968932647      0.0414761393941167     0.18311267706302481
   322   1      32.596854294656815     0.12235644468120552      1.2109184324458286
   323   1      32.494625560199715      2.1417041929911589      2.7392240409442241
   324   1      30.604176757629375       2.072828471391631      4.1766334792026676
   325   1      30.708034815277184      4.1850667377321464      54.257448602477162
   326   1      32.573135956481707      4.2623599034677229      1.4272470643133954
   327   1      32.647743293583559       5.886350621407745      2.8709220466763195
   328   1      30.486933959759135      5.9360406190260653      4.0470847729469055
   329   1      30.995739196529819      7.8167580127424374      54.176987113681811
   330   1      32.630333845061266       7.954443523120303       1.523699434572233
   331   1      32.767377638022062      9.8799719803514421      2.7689209798557375
   332   1       30.68109889132532      9.6942195773750708      4.1374074419056477
   333   1      30.728319041518144      11.573579817402544      54.173759620525409
   334   1      32.714019946868994      11.698266464925815      1.2779940671055756
   335   1      32.714237333424158      13.692934366354763      2.4749636344459738
   336   1      30.757222126466882      13.428669735724853      3.8442841999446271
   337   1       30.75747898134869      15.818993824534251    0.014789832955966656
   338   1      32.871716961443369      15.726331440509743      1.3655258386660891
   339   1      32.558962897038001      17.615824027758027      2.6060076389857714
   340   1      30.889551630711985       17.19584584495307      4.1747635230233682
   341   1      30.741033915873423      19.302974103698276      54.282054274579039
   342   1      32.677116576268318       19.36323531871647      1.1957921295856184
   343   1      32.664193419576826      21.212096927275571      2.8135772821234593
   344   1      30.749534494137869      21.194073814558624      4.2265122771209578
   345   1      30.597731530699779      23.172773767940296     0.10826625529963377
   346   1      32.442487412986068      23.098816974223038      1.4286819544677554
   347   1      32.728359163341935      25.166810512945947      2.6275379037304227
   348   1      30.786860147183244      25.050100715546012      3.8839756482870809
   349   1      30.811839666934841      26.741016702090544      54.119816444844766
   350   1      32.712179220817873      26.853101998834067      1.1732813023463551
   351   1      32.686172423422555      28.667092669113718      2.3161318160301678
   352   1      30.878975058952349      28.525444962553351      3.9458019010553604
   353   1      30.707694234319156       30.76502625189843      54.266352531122138
   354   1       32.81365481712821      30.791601558743874      1.2701308005053666
   355   1      32.766489831536518       32.62634787008848      2.8614750205703006
   356   1      30.728294754439965      32.595459581583697       4.001890617440143
   357   1      30.588894505487978      34.412179529999747      54.255892071324553
   358   1      32.749759205594657      34.395735239283354      1.3692235982310883
   359   1      32.728080987202368      36.549567255517665      2.7042659888169713