dump/Cu_560_5/steps_21 (written by ASE) 

1995 	 atoms 
1  atom types
0.0      25.526554800834361  xlo xhi
0.0              25.5265548  ylo yhi
0.0      36.100000000000001  zlo zhi


Atoms 

     1   1   0.0012392258999306108      25.307162603167225      36.028343075687523
     2   1      1.1638505220886408      1.0603991309233438      1.9633912778829987
     3   1      25.454329916140633      2.3920119795942849      35.878458475398524
     4   1      1.1380208240770315      3.7681618406906501      1.7342273134321791
     5   1      25.393078843642769      5.0966690624920608      35.987402990596543
     6   1      1.3080256580603693      6.2554598667006127      1.7242069168929206
     7   1      25.431245940207084      7.4473016229736455     0.15446550616486557
     8   1      1.2497786089382179      8.8191721189060051      2.0161085140105581
     9   1    0.039373770824020722      9.9823606990723892     0.17994151230720962
    10   1      1.0935203438643377       11.41727246704837      1.7661184330083401
    11   1      25.467492824795674       12.79059097989709    0.062807544112536223
    12   1      1.3666418445463291      14.083500686906804      1.8736800479383762
    13   1      25.359353824806316      15.190938407644742      35.978379229087402
    14   1       0.926782817551567      16.497175537787374      1.8829888576146103
    15   1      25.311445508796119      17.868842769753403     0.13930946660881333
    16   1      1.1601915513267456      19.076066365076972      1.8572283664772733
    17   1      1.1714895949233755      21.488402944796082      1.8701454780176949
    18   1   0.0055185992768143803      22.744217146205148      35.946142724109393
    19   1      1.1691415581345619       24.16132657540339       1.690145269352364
    20   1      2.5458962049266627      25.465567560985573      35.929175042923788
    21   1       3.743121257926056      1.1701498278444167      1.8846690210097126
    22   1      2.5834393447790234      2.3012282734008078     0.11759231211120764
    23   1        3.91427382678705      3.7184294817990331      1.7535365810397141
    24   1      2.6539803717209867      5.0245696412420839    0.081756338419995536
    25   1      3.7357555398537996       6.593620607934656      1.8594367874918825
    26   1      2.3902397428053193      7.5961962004766566    0.030780853856549585
    27   1      3.8374677226805516      9.0544237374401071      1.8032640855282818
    28   1       2.552597567975325      10.328805948576109    0.083208935768618597
    29   1      3.8878370553734949      11.554601635806561      1.8747374350184727
    30   1      2.4463069708020129      12.718779935961919   0.0094552910224251583
    31   1      3.7142923038307241      13.976729133370906      1.7254611455137598
    32   1      2.5314383831459981      15.414436797369154       36.02361956131714
    33   1      3.6985626940596803       16.55066655192454      1.7220000195891867
    34   1      2.4013980927024456      18.118879434209134   0.0027931361387345545
    35   1      3.9984828733787814      19.102273861181047      1.9566759106968783
    36   1      2.5836331477627956      20.539975637566066      36.073507329285157
    37   1      3.7344675946421519      21.698432624053904      1.8062333667171304
    38   1      2.4024849194296549      22.932278794342395      35.888667985847569
    39   1      3.7071615939787517      24.222439718546045      1.8233178145085258
    40   1      5.0528464890596041      25.300870333607051      0.1161788104685457
    41   1      6.1519532567526314     0.98785683328033358      1.8152539492518605
    42   1      4.9810389179040833      2.4185410666100826      35.952709003953757
    43   1      6.4572564380983017       3.724307815131894      1.8375413016435904
    44   1      5.2064091890750444      5.0473913931320809    0.042420580323891857
    45   1      6.4360294229855741      6.3588887948248871      1.7463670190784446
    46   1      5.1249585346384947      7.5305530753752885    0.044144372992798227
    47   1      6.5068661784206272      8.8300823418133039      2.0332802378576407
    48   1        5.14204350143428      10.084482442264688    0.023802068716577193
    49   1      6.4241086822290923      11.425931799189945      2.0663737499578145
    50   1      5.0162616313825366      12.570998193019816    0.025439934407336284
    51   1      6.4165121438840123      14.044438643942307      1.7651995929961473
    52   1      5.0434995830769136      15.272827858160634    0.051880000078040361
    53   1      6.3244483169613224      16.519206366981486      1.7476052749479427
    54   1      5.3825734312618598      17.891385241262689    0.028559414558708345
    55   1      6.3493815916077638      19.072434733520556      1.8664495852686049
    56   1      5.0932012871569432      20.345018428174498      36.036824855412185
    57   1      6.3341852232892437      21.598437871550466      1.9145173411476339
    58   1      5.0741149566156603      22.813634523898546   0.0023072629923376561
    59   1      6.4506032963144095      24.056000198781501      1.7959108849486249
    60   1      7.7110799650159585      25.426535821028072      0.1829060260481585
    61   1      8.6578626107493566        1.29587417797866      1.7877012414839204
    62   1      7.3415847414087807      2.3366967804702794    0.060334662626007569
    63   1       8.985631892068886      3.6443407908735472      1.8305370164572663
    64   1      7.6538683894703237      4.9712596438286747      36.064073354447054
    65   1      8.9813891037725124       6.392373704065899      1.8629644660134999
    66   1      7.5931805079309127      7.6403579963705424    0.030134103877833246
    67   1      8.8527055801904986      8.9842552091268963      1.8416476646379794
    68   1      7.5081405191398343      10.298484633492565    0.047507837950388355
    69   1      8.9113634309508178      11.398334603846113      1.9473522416158402
    70   1       7.689893291105764      12.801113506859306      36.027295492865235
    71   1      8.7442302885449639      14.065230144609044      2.0087853540097509
    72   1      7.7772469841285332      15.172981362879653    0.036691907721854024
    73   1      9.1290579711826538      16.747413010320219      1.7480142733786477
    74   1      7.7847542017746818       17.75535592563805      35.956721663319733
    75   1      8.8578791697011816       19.08498333304513      1.7635388813115018
    76   1      7.5252374484737894      20.219991283102715    0.054628534551568506
    77   1      8.8843960291224402      21.599543617424938      1.7840687631029242
    78   1      7.4524178215456258      22.764894764933135      36.011296706203133
    79   1      9.0715641705398902      24.233656960475269      1.8136173184709248
    80   1      10.151669711472126     0.20244869360590473      0.1427217927238984
    81   1      11.514231319899155      1.2958695291215658      2.0092431780359683
    82   1      10.135772817268291      2.8012997638770529    0.042722641523664492
    83   1      11.317947280164857      3.6554674276145711      1.9420489537285459
    84   1      10.329300509036766      5.1140391803420586    0.085104488853289695
    85   1       11.43795571867763      6.4462310454235627      1.9206732937764532
    86   1      10.152090838977138      7.6385195654415741      36.052097897502023
    87   1      11.511640197544722      8.8209690646045011      1.7509038909716088
    88   1      10.070718941124438      10.242911651202844     0.15149038935945788
    89   1      11.510831511848362      11.302994711035572      1.7683586778556319
    90   1      10.181059608233678      12.797302380141327    0.051729105656124715
    91   1      11.485740462325944      13.863003048323932      1.7982024338625138
    92   1       10.08370148610175      15.259198036942415    0.063305026741841006
    93   1      11.474458512343819      16.416926384480526      1.8303529601692503
    94   1      10.355209607381576      17.773916498504146    0.037223461282474203
    95   1      11.409655394460124      19.010918659332678       1.848621769521549
    96   1      10.221870262030235      20.295154090766591     0.17293949453068069
    97   1      11.484186297186412      21.720956122174002      1.6932747941116999
    98   1      10.258163760991485       23.02482420728807    0.061687910308057703
    99   1       11.47671026980186       24.10045472017346      1.7789036607948554
   100   1      12.590379099585936      25.392198460375713      36.010799602917366
   101   1      13.955106755644406      1.1670566264135078       1.737616161904451
   102   1      12.580247476908431      2.5855177894072749    0.097348989606394015
   103   1      13.964243540121258      3.8183853381877451       1.724573379364269
   104   1      12.645758456532969      5.2101695867633637    0.014383171165570733
   105   1      14.139235446293439      6.4291100439445463       1.939417049430437
   106   1      12.694639691552879      7.7531286931556629    0.085872790088012782
   107   1      14.007364116179103      8.8093338069973726      1.7218549071351064
   108   1       12.83588735117104      10.253401162727688      36.016468753195781
   109   1      14.068121728366471      11.338669227212046      1.6982975464155055
   110   1      12.864621717095519      12.825641282621653      35.984071342008342
   111   1      14.325410714746853          13.82502267181      1.8503606028649187
   112   1      12.778901900425755      15.455060688011345      36.053588406106627
   113   1      14.033096895312752      16.614142268625312      1.7611959146065499
   114   1      12.768041908533771      17.864649055472839      35.967146756929473
   115   1      14.157705375441685      19.238377121606518      1.8103164281056463
   116   1      12.727249005488185      20.294389797705698      36.053569286706782
   117   1      14.054163810542009      21.554239041585063      1.7706719927667454
   118   1      12.612727424909039      22.883341408926618      36.085377701959096
   119   1      13.992846678851336      24.186572105424386      1.8547814250165857
   120   1      15.376463409825442     0.06665798626667413    0.016676807376950376
   121   1      16.578339433598849       1.165347028170612      2.0130949235117011
   122   1      15.179715348891516      2.4596305795384734    0.056910600396167764
   123   1        16.4865078376796      3.7433445814106219      1.7685119877220459
   124   1      15.238007498687193      5.0026181711287636     0.15830159116162593
   125   1      16.612167455130074      6.4145696374242132      1.6720371681335684
   126   1      15.364494399270624        7.66891158708916      35.941732353960717
   127   1      16.433988087192891       8.810972864684139      1.7260043426869405
   128   1      15.358821271230706      10.250108518423165      35.952262824170077
   129   1      16.570823310433823      11.654983102633588      1.9962307187031239
   130   1      15.431484167132673      12.671965056905782      36.022032230585602
   131   1      16.762078670013068      13.902331903381995      1.6138765487933466
   132   1      15.383048642289078      15.238644364665799     0.11709327053737295
   133   1      16.539874231242202       16.48316521605026      1.9110389710723905
   134   1      15.383765982758437      17.712792851539088    0.074725584206419129
   135   1      16.653238139705522      18.959266566266315      1.7414893057531116
   136   1       15.31809045211758      20.486512509278668      35.945068908897859
   137   1      16.439980904761356      21.628163755696317      1.7443403982898742
   138   1      15.245424348769415      22.980984064313674     0.16374843634245051
   139   1      16.563477793348561      24.307121046458747      1.8106468008455279
   140   1      17.902081228795833    0.045783128799986465     0.10380140867954407
   141   1      19.096802082369557      1.4360954700767319      1.9098952950370869
   142   1      17.856312657881851      2.6555650215277802     0.11524560039919168
   143   1      19.057841326338121      3.8684216674485605      2.0630746568987881
   144   1      17.719815743768908      4.9903515385277215     0.14899129307793824
   145   1      18.960775006239533      6.5827773367027786       1.845899280659911
   146   1      17.558855568736686      7.8380244426301191      35.797382220538672
   147   1      18.855551152962715      9.1163733954318342      1.8587158328312867
   148   1      17.648064070278565      10.368486344701923    0.023928026695170967
   149   1      19.191655982669207      11.608637499918256      1.7643994254677742
   150   1      17.967512157625418      12.763714000676373      36.072798322699398
   151   1      19.228641291157189      14.133358505938755      1.5756149493989491
   152   1      17.995690600127286      15.258868290858588      35.975623356246054
   153   1      19.100292552633551       16.53013197645188      1.5857640342684924
   154   1      17.837886690399724      17.891170569548585      36.083461213151999
   155   1      19.209402718254548      19.217154686030689      1.9689842879884054
   156   1      17.896790038335634      20.344114263972198    0.034928324380086896
   157   1      19.207965569153959      21.710860462334978      1.9023403858952403
   158   1      17.923208318823018      22.980688157055326     0.10808095969088079
   159   1      19.063236131598654       24.48092800083348       1.894999212624078
   160   1      20.491709525667094    0.067129490382354051    0.063956084583708231
   161   1      21.639531922039289      1.2181467809316122      1.6762162428468401
   162   1      20.393375888143005      2.5051946049031848      35.996221417534656
   163   1      21.630852506703953      3.5997869773701621      1.9014929963684397
   164   1      20.308734843871154      4.9521578281051157    0.094622195352269317
   165   1      21.832088206049299      6.2349671039209857       1.785017189005409
   166   1      20.133928926142598      7.8647596701860101   0.0063529760425240153
   167   1      21.551772399133071      8.9576494108890223      1.7924476824136266
   168   1      20.117298347653229      10.346069272065229       35.88206840703161
   169   1      21.798367069352764      11.529947961406656      1.8984332095008645
   170   1      20.417217378939569      12.763518713592807      36.002196942872075
   171   1      21.627601981059513       14.11166366883409      1.9148789080207174
   172   1      20.581398451342139      15.299803396189574      35.943714700777583
   173   1      21.633341368758884       16.70647647610059      1.8040978373613372
   174   1       20.39431203079338      17.910525103524957      36.092359186427906
   175   1      21.719507336989729      19.180306001733793      1.8099851319403242
   176   1      20.393780596056811      20.517139717993047      0.1572600034184462
   177   1       21.63920086023159      21.820712206700069      1.9142597686888949
   178   1      20.359792964003315      23.052289167358225     0.12642802188519237
   179   1      21.587384724502201      24.374310582402778      1.8221754523417297
   180   1       23.18497771256586     0.25490127671026047      36.049424791377035
   181   1      24.164010427992245      1.5086811866794885      1.6959036775866925
   182   1      22.806911305549953      2.5898786937929414       35.79561183035451
   183   1      24.035480437172289      3.9893308642231569      1.7782394248932409
   184   1      22.794748045603161      5.1094392070050683      36.013665227097711
   185   1      24.128020101535498      6.4824204378221362      1.8150532028003119
   186   1      22.815261510270126      7.6211360443998988      36.054334169010936
   187   1      24.334525747508369      8.9110063167011777      1.8316169988736519
   188   1      23.004381492377131      10.245197461177522    0.055960798599994553
   189   1      24.127160704087149      11.526557193456652      1.7751691712007418
   190   1      22.932461726580161      12.885946221048057      36.076239338052389
   191   1      24.379783025407487      14.060722378414553      1.8016726537019974
   192   1      23.094266098372877      15.319272159846625    0.013028827497305428
   193   1      24.026039939556661       16.65694902623645      2.1271302463289978
   194   1       23.02119009505995      17.836973001335526    0.028908515949615306
   195   1      24.190606941323477      19.141797064218903      2.0811128416115139
   196   1      23.040043670586343      20.275489326854185    0.079268511974703471
   197   1      24.324547612205151      21.960910472281252      1.8081884796861007
   198   1      22.932657692074969      22.978107679057278      35.985676026398068
   199   1      24.080015586218117      24.256745108757094      1.6255875891535994
   200   1      25.394677979171941      25.445916641050314      3.5901286963987546
   201   1      1.2050919668969897      1.0617617557537888      5.3342163590329124
   202   1      25.407755452471786      2.6410687596293494      3.5526503140382495
   203   1      1.4747538699258256      3.9119502829181809       5.300305806838411
   204   1      25.457601924180825       4.970796764207682      3.5454074247520784
   205   1     0.94959849335363955      6.4378384645286424      5.3612263780552141
   206   1      25.406708697763218      7.5368295197953143      3.5776569685030162
   207   1      1.1016166093824413      8.8807900055400104      5.3690498873176251
   208   1      25.452788548142291      10.294152512552632      3.4850714310655109
   209   1      1.4377724491061232      11.397711309859915      5.4587454889306537
   210   1      25.481159114243024      12.679413986972115      3.5477784347863368
   211   1      1.2139364258252792      14.100473845771022      5.3699353826550018
   212   1    0.003680364089911741      15.117796267654223      3.6308235397798669
   213   1      1.2211895675980924      16.718299602697979       5.511470488655374
   214   1      25.404230549701769      18.020785946408999      3.8940709581732733
   215   1      1.4155207653891189      19.243426014075041      5.5635140944153427
   216   1        25.5226691758266      20.440783866684825      3.7957775130519167
   217   1      1.2493302321154303      21.783317486794232      5.4079642175306724
   218   1       25.24331628763235      23.047909627873352      3.6118852736576392
   219   1      1.1796796370935598      24.201379023880964      5.2311944185921133
   220   1      2.5048312199939278       25.52029770312107      3.6546019607963394
   221   1      3.7262943725786015      1.2025813501251492      5.3023916920246696
   222   1      2.5080023676130918      2.5429438674062914      3.5002504314972733
   223   1      3.9621322119243598      3.6300013958251793      5.2809592537303578
   224   1      2.5743653757937244      5.1197853582825843      3.5126448860219623
   225   1      3.7142635655260996      6.4121011010683535      5.4898224487237073
   226   1      2.4795752683758869      7.6832832984489743      3.6163918018188936
   227   1      3.9535138595107431      8.9863564978766206      5.5787287583560259
   228   1       2.455242162509311      10.234860695165628      3.6685675058825082
   229   1      3.9154970061144532       11.38209225281264      5.4828779967708465
   230   1      2.5454292040063025      12.771296764505683      3.5434284494470725
   231   1      3.9672090137289771      13.997870703789008      5.2527159641030226
   232   1      2.4066326255246002      15.373542755469721      3.4961689555041762
   233   1      3.8329254886041104      16.485976623196681      5.3628967983578901
   234   1      2.5596958822265039      17.816054768340919       3.555318333660956
   235   1      3.8611826291906537       19.03346706406936      5.3654779551539304
   236   1      2.5794187115829876      20.271538359976869      3.6078061294675887
   237   1      3.7174273314579325      21.670464635289374      5.3522090047133757
   238   1      2.3485691156663964      22.903969243975748      3.3924064684964494
   239   1      3.9810662227796367      24.177054142020584      5.2740090643267354
   240   1       4.945960043427247      25.434556296606218      3.6074000260818031
   241   1       6.437893647877222      1.1880535989222043      5.4053993292188727
   242   1      5.1281545569925164      2.5104295036338375      3.5972507165541048
   243   1      6.3811626408496007      3.9058393016990181      5.3908835812162552
   244   1      5.2245600473240454      5.3238389836342019      3.5966284029183373
   245   1      6.3335186901039329      6.2621024981584075      5.4557120651184805
   246   1      5.0632161941073646       7.616897761597432      3.5106697360698846
   247   1      6.5609304144134963      8.7073812815521414      5.4785211579994968
   248   1      5.0079253115044873      10.098311425140759      3.7583802566419675
   249   1      6.3403280240935134      11.418532482763631      5.4147317237779156
   250   1      5.1006435776702501      12.979664657604479      3.6587447461467777
   251   1       6.550422482188444      13.988006492080631      5.5659867895472441
   252   1      5.0697016308319718       15.38581430938236      3.5832928122131547
   253   1      6.4421441201686234      16.523284419497621      5.5692318852931129
   254   1      5.1140185493770334      17.796504657080526      3.5856468106757937
   255   1      6.3889811568298409      19.091708844983465      5.3767704668991732
   256   1      4.9656508553962029      20.431890487853664      3.5811433089766878
   257   1      6.3783687243767009      21.599474476298891      5.4759792913983976
   258   1      5.0772728059981009      22.755167090890478      3.5429086532686274
   259   1      6.5768776703928076      24.136063310528801      5.6041145866875706
   260   1      7.6339804011012058      25.426350154448937      3.6555144119764242
   261   1      8.9355853907473275      1.1435874053375963      5.5583135079390962
   262   1      7.6226106285135584      2.4372509016931376      3.5699735885355972
   263   1      8.8039143278523699       3.687472333255295      5.5082458055404304
   264   1      7.7315466978228962      5.1080686986241544      3.7037961093289429
   265   1      9.0307414884769912      6.3639825313662666       5.356344072629458
   266   1      7.5822744755245202      7.6947180185964799      3.7053807840585749
   267   1      9.0417037903280679      8.9070240279289692      5.3966047675553339
   268   1      7.6560763623472514      10.308229041915746      3.8101209574002608
   269   1      9.0177654556507818      11.488729972838042      5.5189901184069692
   270   1      7.5131483894235638      12.770316321568401      3.5942829502605367
   271   1      9.1044932090922455      14.101643603796228      5.4295316730881735
   272   1      7.4599878685375822      15.370369076496994      3.6644035101759465
   273   1      9.0135013177803778      16.621311751594934      5.3313461265204127
   274   1      7.6429339546058035      17.664464364584962      3.5403546657528295
   275   1      9.0644949046088374      18.962135742497647      5.4120664393579432
   276   1      7.9186502561435415       20.36159266442117      3.6994618939454074
   277   1      8.9790559382501876      21.472609710865051      5.5205770511808785
   278   1      7.6819494526227921       22.81737325918127      3.8043929185648486
   279   1      8.9751592424453808      24.070387422046153      5.4392889031232476
   280   1      10.226977820367226      25.518215817284688      3.6095968126031517
   281   1      11.394637958317405      1.1933503063913005      5.6659686813254497
   282   1       9.937336531433127      2.3862851721920131      3.6997523848481442
   283   1      11.257223626189717      3.7363134771392641      5.4828140803159782
   284   1      10.219122079869532      4.8477372289867677       3.555087555294302
   285   1      11.433215871285407      6.3518512073269777      5.4591889197238661
   286   1      10.241215779296926      7.7317924108747134       3.755444070352691
   287   1      11.609808157091368      8.9717000131529652      5.3375947909225827
   288   1      10.115234930238373      10.182653735341827       3.602845206711025
   289   1      11.614544630382326      11.510433822201289      5.2872328828530568
   290   1      10.167581010574066      12.737509650794307      3.6626253047445774
   291   1      11.517040471507062       14.07471839868494      5.4281287604821573
   292   1      10.022240395282742      15.440688209792139       3.724719819031276
   293   1      11.427295029894447      16.460971764513708      5.4568773716419914
   294   1      10.322505435499478      17.874600789774533      3.5408106279317955
   295   1      11.639133454870406      19.188102373957697      5.3758612743991607
   296   1      10.260373648873747      20.404022272369321      3.4653645491871665
   297   1      11.551352832539614         21.676879595372       5.437597656529749
   298   1      10.197237063668362      22.748878493555981      3.5894052580179396
   299   1      11.312639057650955      24.219507596037253      5.6355055359037287
   300   1      12.590594125249472      25.470228202411008      3.8396774741294579
   301   1      14.071669183777466      1.0924147079353868      5.5285482739495135
   302   1      12.485804192302046      2.3212378729544541      3.9166686951399954
   303   1      13.798803874249261      3.8196054086190472      5.4793099196901256
   304   1      12.742383176210323       5.046150738175232      3.6997546230983605
   305   1      13.804441919875678      6.5770824133656882      5.5014873586803894
   306   1      12.787474298222252      7.6199807774834998      3.5953077142724164
   307   1      14.126784158793582      9.0064554288841521      5.4265782905389139
   308   1      12.687673120062607      10.055036108626604      3.7049569657126771
   309   1      13.989862825910034      11.388987108347608      5.5748836189298441
   310   1      12.735761483769924      12.620955339016643      3.6728728326573861
   311   1      14.049334394652023      14.045838701505296      5.5435614570601102
   312   1       12.79895798826661      15.192142871257353      3.5447607871804157
   313   1      14.088059227475304      16.702880413509682      5.3823185579738295
   314   1      12.795436920513289      17.729818865985976      3.4562817261703822
   315   1      14.080021749017325      18.970071282067657      5.2619812172382439
   316   1      12.702061573618632      20.559784351329018      3.5742071364359376
   317   1      13.965778322879327      21.639081165732829       5.402182984873579
   318   1      12.682466494571084      22.899160424875468      3.5538983799543757
   319   1      13.946296904174151      24.169194613789283      5.6096355078622588
   320   1      15.198700247112427      25.478706563173105      3.7485522551686201
   321   1      16.613270963208972      1.4247140441658277      5.4971462906568407
   322   1      15.047685853653169      2.4939495622176122      3.6318437831599861
   323   1      16.499086192738613      3.8733795585839093       5.581954137837335
   324   1       15.16456696275374      5.0467076747760098      3.8872846496475533
   325   1      16.338293886219809      6.3339727069896927      5.6132610360982014
   326   1      15.421528266108645      7.6217239086978887      3.7519709409193021
   327   1      16.543319282987447      8.8640402447198507      5.5690785476789033
   328   1      15.258657079136798      10.254572281466981      3.7633004467866362
   329   1      16.697293201764804      11.571640507668418      5.5291162613945772
   330   1      15.421763468910276       12.64754828424484      3.8421004352737134
   331   1      16.652792892391915      14.030748193145653       5.579705715355356
   332   1      15.312775755103525      15.227125984371684      3.5873721647681016
   333   1       16.49885395542616      16.554973618992904      5.6458327093708549
   334   1      15.362408691691382       17.71092604907895      3.6206397131318462
   335   1      16.552010358982745      19.085715753701191      5.3699309859423217
   336   1      15.277275209646271      20.517684031294557      3.5176613814156683
   337   1      16.539669993733657      21.611421130056069      5.5023012188686513
   338   1      15.189736259350029      22.904254057622708      3.7545045196168809
   339   1      16.586321817970486      24.183006199672285      5.5166709142387917
   340   1      17.682533219199769    0.037959733587878193       3.768955144454047
   341   1      19.069587486488693      1.2739251458054688      5.4436097466640163
   342   1      17.703698492878022      2.6001175597784325       3.572703825940609
   343   1      19.281533233522548      3.8958582147264411      5.4459037290927315
   344   1       17.83783350165492      5.2111486106034484      3.8261763129438808
   345   1      19.031439022562612      6.6143090161235198      5.4738807734388573
   346   1      17.758144451203872      7.8087805180367971      3.5968625551628621
   347   1      19.091760348668522      8.9936380773467128      5.5366684918921996
   348   1      17.657357051987411      10.257113682771269      3.5584537347987175
   349   1      19.207493640560759      11.463372192909285      5.2980018498504196
   350   1      17.970047234342907      12.775408401974527      3.6177923289402667
   351   1      19.108679994259926      13.964346090591349      5.5678217405250425
   352   1       17.83971560533233      15.246418094546888      3.5763563678417865
   353   1       18.91505496642591      16.534884111418556      5.4574854321462709
   354   1      17.912357490986285      17.805385501072216      3.5764287637957199
   355   1       19.25863879566629      19.242597460498683      5.3698516673530685
   356   1      17.881192988027337       20.52567953248785       3.695841737895766
   357   1      19.034456030627776      21.779564303584927      5.5494925454296293
   358   1      17.772923391749977      23.101865812290519      3.5396550178576613
   359   1       19.19442861766716       24.33497971553626      5.2922284386993228