dump/Cu_560_5/steps_91 (written by ASE) 

1995 	 atoms 
1  atom types
0.0      25.526554800834361  xlo xhi
0.0              25.5265548  ylo yhi
0.0      36.100000000000001  zlo zhi


Atoms 

     1   1      25.364597965443778      25.432288841050415   0.0004292608230116457
     2   1      1.1837189180619518       1.130386118434628      1.7787677106299047
     3   1      25.410311518356913      2.6182708900078131    0.052291995047926233
     4   1      1.1854690725858334      3.8619843728649963        1.81639284087704
     5   1     0.16392114553679313      5.1912703130818292      36.094161337606955
     6   1      1.2948018086345652      6.3970107685864201      1.7518838982532663
     7   1    0.043874939562271488      7.8038950121582529     0.04815732367768541
     8   1       1.118501712535886      8.9518253740041605      1.7727158686680253
     9   1     0.14701822806044193      10.409998681591404      35.934864537748233
    10   1      1.4455119860529677      11.571894337086574      1.6983161173831034
    11   1     0.07060801056006337      12.792669748270622      36.086683778398047
    12   1      1.3437518620395839      14.077368017800326      1.7423501718633136
    13   1      25.448486982574376      15.286497090444854      35.951359701759699
    14   1      1.1971059283895209      16.686307266265526      1.8638037363971636
    15   1      25.518597382572462      17.943874569863265      36.026129132777477
    16   1       1.190883742978158      19.409080592687015      1.5920995634344748
    17   1       1.232568762484211      21.772151185831198      1.7941153833676817
    18   1      25.521993272151363      22.927097644620169   0.0072915407859795783
    19   1      1.1754186396991015      24.290374938395967      1.7034328137188355
    20   1      2.3321714456775453    0.044289163929589717       35.91106528083732
    21   1       3.593774874105939      1.2886648913211209      1.7809223965132339
    22   1      2.4803548047555477      2.4594418691849356   0.0059532500220257313
    23   1      3.7949871807181021      3.8453362244363691      1.8090327188809738
    24   1      2.4897560534881702      4.9883710184971237      36.043070188202499
    25   1      3.8588518830702587      6.5223136627025919       1.702241459506751
    26   1      2.4516141749286064      7.6499631203941263      36.063712050843449
    27   1      3.8907489736799166       8.953559340716378       1.755902030107539
    28   1      2.6026302771631036      10.100878826684177      35.980334876943054
    29   1      3.7094049947213974      11.451209544238504      1.7592886314442453
    30   1      2.6323425429731193       12.80756017960144      36.014019882082039
    31   1       3.865807940284955      13.956769772114148        1.70417140228368
    32   1      2.5811104936979876      15.392598560871635      35.947230954465674
    33   1      3.8718287992928029      16.519361817293969      1.6718537004589407
    34   1      2.3115234222558674      17.966550110737064      35.970787546451376
    35   1      3.7127383646551095       19.24845188343075      1.6864563005067676
    36   1      2.5083749385146952      20.485152532280797      35.984309726317484
    37   1      3.7082023669147297      21.807883091831627      1.7979951146866582
    38   1      2.5076521279128281      23.003119645197074        35.9281805899424
    39   1      3.6574365732713536      24.358304067687694      1.5732120167382397
    40   1      5.0883382899882346     0.15626363164803489    0.034393444586032731
    41   1      6.3437521546918765      1.2592178145884059      1.9622485790983446
    42   1      5.2934844908188712      2.7069097817289198      35.964944707487227
    43   1      6.1783287903215536      3.9010724169624145      1.9960243189389091
    44   1      4.9204691997311807      5.0715247287052456      36.092041729592559
    45   1      6.3012485419129751      6.2494157383135853      1.7079230112598791
    46   1      5.1494787985377926      7.5726748336815444      36.000479339137151
    47   1      6.3692491907436688      8.8414768079701886      1.5570675641274065
    48   1      5.1132852952395709      10.007310090098974      35.949403356310526
    49   1      6.2506360879390996      11.446080417514301      1.7413902713959388
    50   1      5.0429742790772538       12.58004873167582       36.03068443963879
    51   1      6.2587262504811756      13.921275599528965      1.8795485293671279
    52   1      5.1794710489794484      15.116833433099956      36.062885634587431
    53   1      6.2899019473109643      16.522779750782941      1.7669192632741555
    54   1      5.1549682666094876      17.791296797592373     0.11104875944923824
    55   1      6.3919784180355785       19.06375082123246      1.7598979756724493
    56   1       5.031101328996348      20.470362040838808    0.055889238990823757
    57   1      6.3875916397709664      21.686716300546713        1.88553029006405
    58   1      4.9814616698860874      22.871176750354003      35.986159342299374
    59   1      6.1010669541801814      24.095442012159765      1.8023108091684774
    60   1      7.5783927858813991      25.364282683488035      36.085903818269166
    61   1      8.9974832288911681      1.1837075034295907      1.8184918931610008
    62   1      7.6819009640865827       2.453736001160121    0.049540019130813455
    63   1      8.8637085845153383      3.6562848882818577      1.9108791373286078
    64   1       7.660008184664842       4.946176501709358     0.11777703029122233
    65   1      8.7606197296210606      6.3851149857635798        1.93320414729401
    66   1      7.6559129714448444      7.3865813322945515      35.976883011229269
    67   1      8.8718257031450527      8.8278245797060233      1.7875918708735994
    68   1      7.6198134742247259       10.18972061535438      35.914660577134811
    69   1      8.8365958023313596      11.431230727585111      1.7935589192195365
    70   1      7.6268282513580914      12.899764054846191    0.073726767714458699
    71   1      8.8854756473991952        13.9282889048553      1.8434125010748179
    72   1      7.5880531022457935      15.225539130235861    0.095190585934358349
    73   1      8.8912597759518928       16.51557203214043      1.8347324719961309
    74   1      7.6432420165343595       17.70507601042269    0.061527974154796716
    75   1      8.9701661126334766      19.101041030442587      1.8724222080834476
    76   1      7.7946276260722458      20.447897967883705      35.969539382744927
    77   1      8.9335138150080766      21.576468169793142      1.8338452619186578
    78   1      7.7033311122694563      22.835543569802383     0.03159006958431973
    79   1      8.9827289176201202      24.113308925734454      1.6903660128377638
    80   1      10.216548926937158       25.51920949506523      36.062173053733162
    81   1      11.497408409858465      1.2430699797553724       1.771210567879588
    82   1      10.239707110383875      2.6498635628697742    0.068475814784926717
    83   1       11.39601533083709      3.7593979892836411      1.9521617611494309
    84   1       10.18687109874948      4.9869630268244576     0.11493595221784289
    85   1      11.494855118308459      6.4317330431960498      1.8419764089017565
    86   1      10.371281121304918      7.4116443235043565    0.014441290360730365
    87   1      11.317553100047199      9.1227268566174136      1.8101654533994278
    88   1       10.11408713439188      10.099559261736191      35.915898230672987
    89   1      11.329531164130429       11.44591578464032      1.8684333498840258
    90   1      10.012926726040687      12.571432079920722      35.981710136164168
    91   1      11.417402015148337      13.881532141685721      1.8099253474594321
    92   1      10.071297955570342      15.189292803171121    0.027791341987733621
    93   1      11.293196843398652      16.537700151791739      1.7812508364953161
    94   1      10.203030643307695      17.865279139706175      35.905701191782235
    95   1      11.419586458072349      18.992234031786747       1.699727709981427
    96   1      10.228207479403903      20.190305189698847       36.09818119033077
    97   1      11.536790975242143      21.538063372689031      1.8627559837207519
    98   1      10.082298032117944      22.829525560135814      36.085671525526401
    99   1      11.498905902399958      24.310313780774099      1.7986427349345835
   100   1      12.732631314262536    0.052048588266565818     0.15479723665833958
   101   1      13.981298773513901      1.1611572249080566      1.7677056851218353
   102   1      12.847313932792904      2.6880873028741408     0.19963548862949668
   103   1       14.05900486574167       3.847146734766659      1.9239167839183207
   104   1       12.64406058073137      5.0668760555204937     0.22820236986234474
   105   1      13.896116732323193      6.3728735505106018      1.9978143863822639
   106   1      12.819950815886004      7.6126957832459921    0.097135627840373315
   107   1      13.945324754917156      8.9472475432885634      1.7877018748935025
   108   1      12.642962845583165      10.266575627704025      35.961304780239757
   109   1      14.066070619594301       11.50573274027445      1.8462256059742905
   110   1      12.602404472023919      12.750129643326975   0.0057083061586127035
   111   1      13.901889401901421      13.895418626566768      2.0308903009445776
   112   1      12.731638425502718      15.280242654113776     0.14346652446206479
   113   1      13.973760184609253      16.541489103826663       1.933074423833022
   114   1      12.771382864217102      17.895784800200779      36.055546478682032
   115   1      14.012926951445403      19.121195601902269      1.8888191452245575
   116   1       12.82865340562295      20.207219101774442      36.059089880817965
   117   1       14.06411082719424      21.631753059602598      1.7197242497133638
   118   1      12.655565816672347      22.990479505684224    0.081702419470411819
   119   1      14.330711215121408      24.193171932311895      1.7492186371404514
   120   1      15.555836596438533      25.484328243984031      36.026458458121574
   121   1      16.346633843697926      1.3981208097645281       1.756748525187914
   122   1       15.29445604766858      2.5319626380765494      36.011259710611753
   123   1      16.547382797001795      3.8763701878976469      1.8947036947304585
   124   1      15.058837997496951      4.9768570387360045     0.20862327717277385
   125   1      16.590239366846269      6.5040004918167593      1.7646151101514762
   126   1      15.182637961327011      7.6100129793653837     0.10166848777972758
   127   1      16.509415685918778      8.8490963629272859      1.9327286154775261
   128   1      15.379503609829207      10.101444310568152    0.008346233133818267
   129   1      16.720888170480443      11.463366727663795      1.9320926464306354
   130   1       15.37207833645898      12.985270171643538       0.227547602924244
   131   1      16.612437828323209      14.065516336585413      2.1159035810425522
   132   1       15.29214664362339      15.313575585812711     0.33779241659487985
   133   1      16.657041846159569      16.636214054401027      2.0359167891443568
   134   1      15.436042480345369      17.800758088662224    0.088939953643341632
   135   1      16.560243982028741      19.251121771295612      1.8657962758012894
   136   1      15.436488947476443      20.225378797274331     0.21268097960140706
   137   1      16.378918841924051      21.821948671466188      1.6506867003345296
   138   1      15.327590295515982      22.978610546056196      35.958021610898399
   139   1      16.693486864832316      24.317788356604883      1.7035943246132876
   140   1       18.00260894191079    0.076978221487251433      35.954085948925666
   141   1       19.16153734736881      1.1506101824391732      1.7944508042057801
   142   1      17.906363996385078      2.6924185477250511      35.985201235040314
   143   1      19.049318391548695      3.5814245936296052      2.0935994018332411
   144   1      17.692558671621864       5.151135359498821      0.1292308054211731
   145   1      19.190550750704165      6.1703419235694215      1.8481263722156649
   146   1      17.882404513465186      7.5752512541349999      35.883340485838389
   147   1      19.231040372691812       8.868749148813361      1.5835622525712321
   148   1      17.794093168112806      10.099612194806042      36.016218258416863
   149   1      19.449321093543197      11.436654960159562      1.7493996890586696
   150   1      17.916429961206443      12.723711836101149    0.039959249849232541
   151   1      19.178025959544485       14.10213208891307      1.7576895355532758
   152   1      17.689976896739882      15.401054093244444     0.25892055572969619
   153   1      19.355616392809321      16.567586150444406      2.0408147460201018
   154   1      18.279725704028539      18.207088695029473    0.073428932414958667
   155   1      19.230643129585381      19.352366117131627      2.0826302791277151
   156   1      17.673876959161959      20.574210963554908      36.015077417176322
   157   1      19.137544635877536      21.799876355610888      1.7170008133968071
   158   1      17.804110870202283      22.974163434203248      36.018781268692827
   159   1      19.186247912229007      24.302479152899686      1.7620623912072919
   160   1      20.586382557113193    0.031157572084067723       35.97879783853255
   161   1      21.591874692242225      1.2609609476629928      1.6739701955563888
   162   1      20.300161754848055      2.5273081080546342      35.918019445705227
   163   1      21.630978623649895      3.8546985818713209       1.705488098174748
   164   1      20.241324320257455      5.0932504104277108      36.075363907365293
   165   1      21.673009731361184      6.4490919288103328      1.7110559204487112
   166   1      20.480262054634984      7.5183710881611692      36.055843020729945
   167   1      21.739580974165907      9.0639501380732934      1.7698850190332212
   168   1      20.450234011048668      10.268651165853345    0.034187026977213028
   169   1      21.997581222428316      11.636702945710894      1.6572100904937552
   170   1      20.469182108750768      12.818544034975323      35.844698531993281
   171   1      21.871782735151111      14.147507190854039      1.7216322500046775
   172   1      20.553550615684589      15.467901266105727    0.084609540038786582
   173   1      21.824322997045563      16.816067606610282      1.7462697270572782
   174   1      20.652829700259502      17.922743409514535     0.11561623218765353
   175   1      21.733497338844003      19.332703053955829      1.7068185178347446
   176   1      20.511719456758382      20.469598160005937     0.16270560577675047
   177   1      21.940557451961453       21.85389053404954      1.7384125872042318
   178   1      20.496908760208019      22.959150700332952      35.972909458679041
   179   1      21.673507387791254      24.159977625098939      1.7121695855490411
   180   1      23.050105214438606     0.24155353358667123    0.060250988853385951
   181   1      24.186043601307382       1.333948595606959      1.8299696478727692
   182   1      22.879255198860758      2.8147462540435111      36.079936861694897
   183   1       24.03855141545047       3.916929134168941      1.6302121738027604
   184   1      22.949632838597502      5.2615114536140872       36.04313644713104
   185   1      24.214468462699649      6.4470172117594267       1.481962370269104
   186   1      22.989222879407283       7.658799020767435      35.990632974831257
   187   1      24.164424178348703      8.8598594416028114      1.7662119003455463
   188   1      23.171268669608061        10.2224833499277      35.955797049580724
   189   1      24.345080326378142       11.68255478790333      1.7131683132858482
   190   1       23.12056988281358      12.757480820064696      35.896315953817329
   191   1      24.317328878688976      14.101421176685445      1.8833405249923192
   192   1      23.153596654151059      15.282260893928632     0.13552387741821134
   193   1      24.191713194310875      16.842058100609439      1.6905195720607726
   194   1      22.988671834395493      18.009365099100808    0.015291913938892778
   195   1      24.323708397980425      19.256276187565486      1.8787171285812176
   196   1      23.108455254650281      20.372501769108283      36.029676210097499
   197   1      24.369284639708265      21.717471343403954      1.6206612815354349
   198   1      22.945639858728718      23.185892103448946      35.998591071348201
   199   1      24.161807279980721      24.206014861360874      1.8986831581930239
   200   1      25.430524767885721      25.409340862572769      3.8359390347667977
   201   1      1.2359895529090001      1.2309202247430486        5.44396350713009
   202   1     0.01161631462872873      2.5380321401943253      3.6312553881607772
   203   1      1.2498607104056476       3.791106484177746      5.2068887308405438
   204   1      25.174643429802213      5.1376422036938703       3.415409481167933
   205   1      1.1246076080696028       6.244086169801097       5.360717273815407
   206   1     0.20255496964702591       7.678205062668634      3.7413720648288069
   207   1      1.2556901272251138      9.0062778820984004      5.5899729735399921
   208   1     0.03695893312042426      10.361321714236684       3.562781482847027
   209   1      1.1571718325564464      11.615091264086363       5.508613020366254
   210   1    0.057271540149300984      12.855452978977837      3.6320008783274598
   211   1      1.3923817866207495      14.154115587715761      5.4608585291723086
   212   1      25.520038590108573      15.492273416713875      3.6128233327601835
   213   1      1.0091815849424992      16.681272290903941      5.5349833178651853
   214   1     0.11152486389932993      17.898185950211797      3.5306596831316153
   215   1      1.3351462807779808      19.288236740769708      5.4146389428259409
   216   1    0.034252109127584231      20.376889541908284      3.6542927719001552
   217   1      1.3207680149491474      21.692530584275154      5.4747254545585298
   218   1      25.341706429281274      22.902261973398609      3.7007330977468498
   219   1      1.1131403067097811      24.316727362562144      5.7166802409972792
   220   1      2.3548289294015321        25.4496218270057      3.4601359853713674
   221   1      3.7801907843720683      1.2287401721718012      5.4413114478438231
   222   1      2.4448115430049731      2.4436088885996416      3.5974240802181034
   223   1      3.8728727643899576      3.7891475758966866      5.1601997937194852
   224   1      2.2826246786041642      5.2240596115968598      3.4087938039188872
   225   1      3.7124946738704323      6.6658227281003644      5.1503210468453329
   226   1      2.5612062924611125      7.7954982432288249      3.3527173379025617
   227   1      3.8020011379313048      8.9558993877692643       5.235814824911543
   228   1      2.3805465549269855      10.203646535994849      3.6376976320747008
   229   1      3.7868325706796222      11.493815776189649      5.4047703286336448
   230   1      2.7459215677768745      12.868417571416671       3.485050821027643
   231   1      3.7985667163078869      14.223266545989723      5.2295059972164566
   232   1      2.4967930193765699      15.501390014710687      3.4108067044680519
   233   1      3.7086759615130069      16.695484310240747      5.5452935208508984
   234   1      2.5437860720214571      18.020951476710678      3.5280931094814596
   235   1      3.7253927736982351      19.151036620156173      5.3730088694795421
   236   1      2.5866149362498692      20.271045914997906      3.7210494685350581
   237   1      3.7615197060939352      21.407905124181784      5.5358458717187293
   238   1      2.6296613306893737      23.030213114482098      3.5775367877602311
   239   1      3.7066998778815754      24.273785384245407      5.4761501358827642
   240   1      4.8809572608791321      25.500684909472376      3.5908745272422484
   241   1      6.3144261939404283      1.1946691013166728      5.2984420416017439
   242   1      5.0544584873899279      2.5526784155793667      3.7163025878310578
   243   1      6.1981207947926835      3.9722567502024728      5.5032140911083047
   244   1      4.9652252121997185      5.2465796843919126      3.4597142939562007
   245   1      6.2728133596163138      6.6769220332306354      5.1958889855791179
   246   1       5.100237213351285      7.9082009113272242      3.5114675365615526
   247   1      6.4892418058647632      9.1045041245694254      5.3789059684538287
   248   1      5.0817100702104012      10.221258075741513      3.6397443693181071
   249   1      6.3007846449522908      11.652200372021996      5.4205582269363486
   250   1      5.2337121981339214      12.854914045718111      3.7872355507758741
   251   1      6.3425804063883664      14.301680520876516       5.547237429821517
   252   1      4.9422835464098647      15.352177822278881       3.485862036824471
   253   1      6.1741484818095085      16.656312425121687      5.5001279654569473
   254   1      4.8846470162505682      17.797473433144589      3.5015925290431253
   255   1      6.3448292202037457      19.196741069012102      5.3190404552350925
   256   1      5.1280316860927035      20.310815867691208      3.4171581906256492
   257   1      6.3293869641917127      21.584287086372715      5.3721957198537522
   258   1      5.0694843346727483      23.026310734615706      3.6891879734194539
   259   1      6.2472841877653602      24.262687436715311       5.370284647257578
   260   1      7.5088057312731689      25.276527516163757      3.6481920436431969
   261   1      8.7254622312848511      1.4346962793133728      5.1448193243964706
   262   1      7.4449614678689455      2.6495923483278596      3.6425396835902424
   263   1       8.880713412015778      3.7959908914799811       5.498555985025102
   264   1      7.5692449403162856      5.3070046876724817      3.6729081515906019
   265   1      8.8767609349956729       6.476965821008446      5.2428035823822761
   266   1      7.5899080076405809      7.7192293005336303      3.4977520582095183
   267   1      8.8958923518512325      9.0913791510720241       5.380421003810504
   268   1      7.5407479896861878      10.317598972717335      3.4356522559648748
   269   1      8.8216113144352502      11.468682080055451      5.4945414814820532
   270   1      7.6719832425985475      12.753834982974048      3.6799152215242916
   271   1      8.7530612789829227       14.04004607906119       5.404176564304616
   272   1       7.470614682629054      15.333251611590573      3.5203224268227817
   273   1      8.8320840577276876      16.695358395418538      5.3192664861982557
   274   1      7.5965308152859494      17.797851042779822      3.6312517239222961
   275   1      8.9649613091661209        19.1116071369689      5.5322819837696953
   276   1      7.6568483792104098      20.336413892356155      3.6517637130134766
   277   1      8.8670321113557353      21.653276914886717      5.4560495648242675
   278   1      7.6473783506839164      22.723996137983615      3.5365079455647561
   279   1      8.7892901201490332      24.292886301043829      5.3903351898391048
   280   1      10.190950441936348      25.461653763957219      3.6859564523530848
   281   1      11.374970373697639      1.2162414868102105      5.4736152671737797
   282   1      10.333442409695376       2.612893558476137      3.6930979413493525
   283   1      11.458479079478339      3.6970128171223058      5.4538056987042571
   284   1      10.115579413358004      5.0191097979157684      3.8038027044502152
   285   1      11.425196860322574      6.2787015811875229      5.2687016145384353
   286   1      10.181225190116077      7.5768549448842109      3.5549877790316944
   287   1       11.59364865722446      8.9311942123890837      5.4201268602160777
   288   1      10.076424522213813      10.168415812380401      3.6042872179204779
   289   1      11.455149729522406      11.402674975333436       5.514404803485597
   290   1      10.010590413463493      12.663949352310988      3.6808999104741815
   291   1      11.259998240203158       13.89208112215567      5.5521951993527781
   292   1      10.192127826229388       15.32940516000582      3.6309976289739287
   293   1      11.356195863374735      16.463955822178853       5.286591555955499
   294   1      10.080806279011865      17.637345216780211      3.6505440396810189
   295   1      11.623894257386864      19.096504974098671      5.4407474919537284
   296   1      10.215204908574382      20.195560442388491       3.563399631290292
   297   1      11.313451962659943      21.681023608742624      5.4249668116950192
   298   1      9.9944588056276622      23.021751840848477      3.5770000622398119
   299   1      11.473128174360431       24.38508428265655      5.4512460671264478
   300   1       12.67354336133446      0.0539733314088136      3.5866089636386853
   301   1       13.70398600506971     0.93623534825222599      5.4279010826934879
   302   1      12.739699364882966      2.4837488480275662      3.6222908724331622
   303   1      13.856604508511756      3.6665991533234612       5.425900954493792
   304   1       12.61952132964371      5.0273252857375503       3.604629272153717
   305   1      14.001420458137552      6.1995245483974264      5.3330327390737313
   306   1      12.469358991253543      7.6209043398340253      3.6363621903159431
   307   1      14.019363424669621      8.8351839922313928      5.2410769679060181
   308   1      12.826127366382716      10.205861883704442      3.5042794488023552
   309   1      14.084266088641998      11.525965338839674      5.2671893893745292
   310   1      12.481532070023913      12.780299994673436      3.5915238851557207
   311   1      13.909231564212977      13.919746925179586      5.3418734200269702
   312   1      12.796265788060657      15.424958878390447      3.6425999216597971
   313   1      13.970037461393757      16.578659847632437      5.4555020243942236
   314   1      12.778353114081012      17.696377197519855      3.6034219069565427
   315   1      14.036076013525795       19.22402610335471       5.461160587306324
   316   1       12.75619747082262       20.54298356119315      3.5356082951057477
   317   1      13.880690782218082      21.574042119338174      5.5270740603169601
   318   1      12.595624022578221      23.088225076678928      3.4462578109402684
   319   1      13.885615226386772      24.062058663352293       5.392757462989306
   320   1      15.436269826379396    0.066639093760047008      3.5180207306821449
   321   1      16.484039913635261       1.073279003509096      5.4565303133269785
   322   1       15.34999665601719      2.5035584558808646      3.6008351842938073
   323   1      16.621122020309581       3.813249945323594      5.3378513567658459
   324   1      15.241265739706375      5.0356317202413958      3.6587040804726683
   325   1       16.58535039831078      6.3405000689363726      5.3467856114180341
   326   1      15.320723031863279      7.4601240931493304      3.5475416811038389
   327   1      16.738862727490584      8.8642882885979919      5.2811812633864745
   328   1      15.395679614589676      10.180054591401793       3.441598877606963
   329   1      16.724427048665071         11.484932216748      5.2584947667625137
   330   1      15.315514183190786      12.797666072373628      3.5274603716951445
   331   1      16.633706688382187      13.959207669086906      5.3197329813601293
   332   1      15.310654223458467      15.287723779555106      3.7299562389546508
   333   1      16.718524295534426      16.530322051083203      5.5634882347558845
   334   1      15.217320913023903      17.763895325449699       3.693647678258122
   335   1       16.58175137342862      19.020472441192663      5.4675564350395751
   336   1      15.221841321320058      20.139493734725271      3.7188839442010044
   337   1       16.54340852508772      21.732447893524622      5.4028095411050998
   338   1      15.099008015418006      22.758344625667156      3.7377382935183929
   339   1      16.225194489318326      24.084223904609143      5.6509608163707554
   340   1      18.023219885539429    0.052575129098308228      3.6900281553800269
   341   1      19.166654286429768      1.2733056860669212      5.4501189584970735
   342   1      17.784596415925432      2.4755504493657225      3.7642226354980868
   343   1      19.301800208977003      3.8289790889202147      5.5963868646594355
   344   1       17.83304553635389      5.0637676280553645      3.4977019286897195
   345   1      18.958367036885527      6.4191327039032204      5.2834114451573537
   346   1      17.849957967940348      7.6497872592398961      3.6316368852366403
   347   1      19.217465221227105       9.023522501895874      5.3487234139059714
   348   1      17.970996542850848      10.146822989523447      3.4398180269263894
   349   1      19.222282492905816      11.459266448434059      5.2470122330949591
   350   1      17.972375405164136      12.769657594289672      3.4956972021061916
   351   1      19.093916253177046      14.250497708858076      5.3510737121454124
   352   1      17.995430551349976      15.514587967911604      3.6032806081423017
   353   1      19.267288240334025      16.881106413732287      5.2577088492177868
   354   1      17.862080321365603      18.099543102415314      3.6975951485899903
   355   1      19.110330652810319      19.294528723105493      5.3017583385338591
   356   1      17.725614898489905      20.578743328497964      3.5676200116168491
   357   1      19.166309422261534      21.592751375268261      5.4426404614943102
   358   1      17.725371503715525      22.924738485159097      3.5866673753080587
   359   1      19.066874225568352      24.111788128432067      5.6142677073474845