dump/Cu_560_5/steps_31 (written by ASE) 

1995 	 atoms 
1  atom types
0.0      25.526554800834361  xlo xhi
0.0              25.5265548  ylo yhi
0.0      36.100000000000001  zlo zhi


Atoms 

     1   1      25.465013273131007      25.486640016745632      36.092124384016778
     2   1      1.2813812165262126      1.4429917732155459      1.9808752725388454
     3   1    0.011885440963274646      2.5898134245887476    0.053143621974675044
     4   1      1.1819515710019157      3.8982502533192909      1.7621232777894988
     5   1      25.432739961681687      4.9759787085501674      36.090914587853426
     6   1      1.1333419799465216      6.4789950566913159      1.5246645406169466
     7   1    0.034440705489260988      7.6692910401423973      36.023944114206344
     8   1      1.2959774689515242      8.8784988275815024      1.5467260924288899
     9   1      25.462220536394135      10.381939297972195      36.027286510928498
    10   1      1.3410913727257741      11.486966007645133      1.6952445858519471
    11   1    0.066588409779779728      12.860588313032252    0.078460786784410333
    12   1      1.5514693930993015      14.110084662501455       1.744102387793999
    13   1     0.02865838083465443      15.368486527839265      35.963234477312731
    14   1      1.4503276177984497      16.819931910940852      1.8540850494721901
    15   1      25.508020354639633      17.915885036371659     0.16579588330283754
    16   1      1.1101778001444886      19.299592012532159      1.7165017010355439
    17   1      1.2621225911133021      21.754056285804708      1.7927198335037262
    18   1      25.473825010542747      23.123796562957001      35.835390477058034
    19   1      1.2499896341169168      24.188818319218107      1.8440508301280938
    20   1      2.5460157704366604      25.321992521408635      36.054066230566939
    21   1      3.7667795886296207      1.3697855611995025      1.6970155971251994
    22   1      2.4098451094709299      2.4116412584476925     0.16307874281141041
    23   1      3.7256561701102342      3.8673958186831561      1.8122668455181483
    24   1      2.6049294871401951      5.1912725917583717       36.05354622230734
    25   1      3.7065421098137588      6.5094766066289909      1.6352007626853731
    26   1      2.4819212422427261      7.6379787586291394      35.910317263377237
    27   1      4.0059435091710176      8.9128902470546745       1.576455740206107
    28   1      2.7145381315201238      10.481118870490208    0.057819196907757907
    29   1      3.9094455102888701      11.521082171222242      1.9638068276269449
    30   1      2.6615165128243858      12.737922627610876    0.088048561776406756
    31   1      4.0043719280039456       14.01016951480268      1.9879324048411384
    32   1      2.4757539945997036      15.519498935098465      36.033306237909102
    33   1      3.7226161440833687      16.390755204011903      1.7999673391332291
    34   1      2.4697312523608717       17.95173837838475    0.046237669033393991
    35   1      3.6965654358758138       19.14286279933955      1.8863315236720968
    36   1      2.5196022986039188       20.60816019095482    0.023432993377355178
    37   1      3.7254338519707964      21.675500705898628      1.8835991318471192
    38   1      2.5789212872517364       22.80429112100699      35.956145160522219
    39   1      3.7236508271431163      24.346353816848616      1.8302053950629427
    40   1      5.1149935076832493    0.018053914546457411    0.013560300572521547
    41   1      6.3287615489497346      1.2763990055206209      1.7346619776613124
    42   1      5.2025275928309549      2.6418516829314251    0.012688039003853664
    43   1      6.4165024557767065      3.8800829229354723      1.6750895269137005
    44   1      5.2414485149672032      5.2607362690568245    0.025527130158195643
    45   1      6.3975661874355518      6.4661740107842309      1.7377451799454107
    46   1      5.0792962381309898       7.699832339451536      36.038623030312266
    47   1      6.4362996987545724      9.0829672263607684      1.6787587689349497
    48   1       5.172117207179542      10.207079834110468    0.075868935669382298
    49   1      6.3141826432339982      11.345922067414042      1.9007335871148483
    50   1      5.2554181577781396      12.820472434583738      36.017216583722551
    51   1      6.6424521374862913       13.71481227709498      1.7978611680135834
    52   1      5.0335360816596264      15.153930485649758      36.043877651450991
    53   1      6.2197368725949893      16.460015636497452        1.63359529668926
    54   1      5.0945620165098777      17.814474047452215     0.18253620007819787
    55   1      6.2961361605272268      19.181077240170016      1.9343808018162465
    56   1      5.0988455897296641      20.444439971909279      36.064345929301361
    57   1      6.4833632479114307       21.67774754327548      1.6726469256564309
    58   1      5.0877371004704042      22.814285778351557     0.13129114072504552
    59   1      6.4278546898390685      24.032628166986303       1.725271283232543
    60   1      7.4397857730869283      25.395365557667539      36.088314523170297
    61   1      8.9764657319921834      1.0905880281256572      1.6730229750429757
    62   1      7.5987104108479562        2.54264017127052      36.004218493388002
    63   1      8.9456011320983286      3.7689149862145763      1.6900159624446913
    64   1      7.8339798950380137      5.1598965283155938      35.960146565819898
    65   1       8.888480371810374      6.4240556690765906      1.6834208932307217
    66   1      7.6889625892251301      7.5905567225837949    0.010400882464637115
    67   1      9.0841230776779227      9.0573695211632259      1.6866974009099862
    68   1       7.834873900980428      10.371368506322082      36.006737928209212
    69   1      8.9616053209009952      11.539602221108259      1.8445762934746301
    70   1      7.7064424475459452      12.634836150469027    0.037832101071524078
    71   1      9.0550119955555761      13.821172562261616       1.789774081743154
    72   1      7.6879476275711056      15.083845090131456    0.020659381755717732
    73   1      8.9457370646088563      16.437724502697304      1.6302984387531168
    74   1      7.5924502766064634      17.846404444612791      35.944649841913851
    75   1      8.9638297320582101      18.923388498682893      1.7518616310024193
    76   1      7.4903249402147871      20.274580272421048      35.840586214919689
    77   1      8.9885028058782162      21.503187202296193      1.7941506379199488
    78   1      7.6891633830271928      22.839471286874549       35.75807332444716
    79   1      9.0214622899607573      24.260201192480206      1.7390582086881972
    80   1      10.467716040773018      25.338713408674902      35.859328902431692
    81   1      11.537729429179208      1.0388414578737974      1.7194795026946517
    82   1      10.257611231418453      2.5500555789926107    0.070837789477911736
    83   1      11.547866330669775      3.7285667389189521      1.9921877999792634
    84   1      10.466913153771575      4.9221409374487015     0.08221287188075628
    85   1      11.426037834528925      6.1820427595750118      1.7947674067717356
    86   1      10.117892057375386      7.5898190170465218     0.13168779514246576
    87   1      11.616727121787601      8.8548280317634962      1.9219909940051916
    88   1      10.190410825938441      10.241682752023005      35.947465853760114
    89   1      11.426126837135996      11.393386777176978      1.7851657136613983
    90   1      10.220081432596194      12.613890727958847      35.967184637497091
    91   1       11.51332281840493      13.967971916641771      1.7429276000028848
    92   1      10.186582129164478      14.985077415047764      36.046665734683558
    93   1      11.481344322203485      16.453976103204472      1.6512837681890358
    94   1       10.33200452424736      17.582847716536893       35.92531183516877
    95   1      11.381935844629496      19.052450019941343      1.7047057936165746
    96   1      10.119264242481524      20.318302787309005    0.020143982688068725
    97   1      11.490397275148343      21.524411775625804       1.861608773530361
    98   1      10.417370853142199      22.702344053923628      36.098372316683459
    99   1      11.467772534865771      24.012224336572963      1.8573749318137625
   100   1      12.893086672944946      25.442766937980149   0.0093375005783514278
   101   1      14.156822511652946      1.3854311997225452      1.6601832236341678
   102   1      12.677873573871317      2.7005620375198949     0.14603514548507532
   103   1      14.115877146631743      3.7801258868731256      1.8448249292299115
   104   1      12.945966197527243      5.1507189756400393    0.040566215364583609
   105   1      14.014141631074214      6.2714655820651437      1.9851980742253446
   106   1      12.847134985117323      7.7377188785970388    0.085614235970831454
   107   1      14.249368069355091      8.9869605674390307      1.7748147913077319
   108   1       12.55586999139593      10.040008072192556      35.916742621056557
   109   1      14.038123676322066       11.61331142560714      1.9457329510131893
   110   1      12.669682044690576      12.653310414874229      36.058653669414845
   111   1      14.023488141176029      14.027123022966363      1.7518310341299308
   112   1      12.790248877094971      15.133018818165935     0.14404810878564844
   113   1      14.045007771082966       16.39137402785402      1.6917974229445114
   114   1      12.840342649294389      17.697773608393597      36.032477613900411
   115   1       14.05038967647759       18.84422077953915      1.8326671615114956
   116   1      12.901965885944872      20.306576686445375      36.099528999210932
   117   1      14.089435470036079      21.608177735508505      1.8225836438663456
   118   1      12.762222130916578      22.801495393755378     0.03118500784653408
   119   1       14.22560005065877      24.076640541190748      1.8973406831730455
   120   1      15.421021107748327    0.011127007574441261   0.0041284103314183128
   121   1      16.522900701192839      1.2039778872982863      1.7298236320859688
   122   1      15.425435945421684      2.5358845174359415      35.920339053857944
   123   1      16.834909042378282      3.7902321310660048      1.7013467450220916
   124   1      15.414362631734111      5.0669708396888797    0.031588572952261987
   125   1      16.565118284694965      6.5144279986985101      1.8468587992453671
   126   1      15.284050995776948      7.4950907547878414    0.018918242945278503
   127   1      16.576361345132561      8.8673224307580636      1.6417403968930204
   128   1      15.184872697091611      10.095316433287444      35.989438389411951
   129   1      16.476990840855745      11.481025938707987      1.8109819168971273
   130   1       15.19468317073834      12.631852662571674    0.068528118793710666
   131   1      16.438801515113969      14.075100835568186      1.9272198745093665
   132   1      15.255185288973827      15.178716338675677    0.037658197517953268
   133   1      16.565854127005014      16.558230097824786       1.852543081144985
   134   1      15.360611327418058      17.650671334537932      36.091381787230802
   135   1      16.597003660095126      19.117027768453735      2.1204652578674197
   136   1      15.528423067527763      20.061995502964994     0.15270563301102139
   137   1      16.697382013496426      21.700161773605601      1.6921847484301342
   138   1      15.276946163321039      22.825783211270231     0.02148578848613171
   139   1      16.671204417362681       24.40147515426623      1.7556508432510098
   140   1      17.947024086481107     0.11276911314265121      36.028805870975098
   141   1      19.105867450482705      1.2649551616764487      1.9617785175970424
   142   1       17.90665851707222      2.8140183520709168      35.955951688632126
   143   1      19.199047525668764      3.8943732392466059      1.8467980174078658
   144   1      17.854673904609637      5.1403217837840369      36.018203145434505
   145   1      19.037689960887448      6.2528445562585961      2.0414523901286783
   146   1      17.988899048201613      7.6262453580286822      36.018370591285134
   147   1      19.373973350322817      8.8902164737832283      1.9387662127705523
   148   1      17.942553624548903      10.168468275497881     0.15845615270719676
   149   1      19.014812992528686      11.368164932251617        1.71128103852984
   150   1      17.759162388269122      12.815706262978281     0.14437011948153888
   151   1      19.191407698627508      13.983710611776001      1.7608788902545587
   152   1       17.85295655915084      15.249636359767125    0.018610914886721737
   153   1      19.087400335555166      16.510292429792429      1.7718470214641224
   154   1      17.943125961897948      17.957684635153367     0.25248013177251766
   155   1      19.023003228920341      19.163631873838803       2.107020999464341
   156   1      18.008180485386763      20.321347972741787        0.11971585241688
   157   1      19.229241441204429      21.809953600246487      1.9751939758428996
   158   1      17.861036905899059       23.06343771193454     0.23679954367266889
   159   1      19.103289000675026      24.367022865930334      1.9012089619907446
   160   1      20.447154869960244     0.18810347822795187      36.093799782765025
   161   1      21.742944559121312      1.3367726050448283      1.6704588008026227
   162   1      20.435712063073137      2.5821681677331583    0.048097284065738634
   163   1      21.801989117463794      3.8607145873037476      1.8303788976505537
   164   1      20.346628107307641      5.0222295522171088      36.011380449347271
   165   1      21.661510117012753      6.4607629281787471      1.8527916223131908
   166   1      20.407553325357004      7.7069161937470074     0.13893668721729013
   167   1      21.772808003238943      9.0125526344762914      1.6096597479433987
   168   1       20.32048683632798      10.273595742622463       36.01115302213001
   169   1      21.749691416385353      11.462332547793457        1.87963225611951
   170   1      20.426336872858261      12.934253824346662       36.04289964167949
   171   1      21.935522786159584      13.995820144873852       1.912418149985204
   172   1      20.486391832741884      15.343156499018885     0.16912616895602908
   173   1      21.662906068967711      16.507565525397968      1.9882026045203236
   174   1      20.463994653740038      17.942457338116604     0.12227231464851218
   175   1      21.435298531940841      19.158138317554016      1.9633802417052024
   176   1      20.401687229924477      20.603022827894478      36.075710731180564
   177   1      21.489059125505861      21.594014389494891      2.0601591786490769
   178   1      20.093933071935876      22.941221156834349     0.14291574103373267
   179   1      21.725896822858896       24.25000332163566      1.9161978759427925
   180   1       22.98573809239533     0.16094193509767007      35.955985201866206
   181   1      24.254030780959965       1.447548749812509       1.975876988618656
   182   1      23.090589187357249      2.5956375396340583    0.091211109059611217
   183   1      24.317085603057592      3.7893226938459881      1.9846560887410178
   184   1      22.939855291908046      5.0166153594559351    0.098871274415660154
   185   1       24.15022638636313      6.2054215223346079      1.7940156656581947
   186   1      23.170607283767897      7.5752485594287595      35.872540094303915
   187   1      24.234304090558453      8.8377678933373325       1.697059875272815
   188   1       22.83214957640245      10.335703285741289   0.0060146099376993164
   189   1      24.177190298841804      11.574351942504531      1.8638206328325044
   190   1      22.961532156680601      12.846475248297549    0.016522514308951509
   191   1      24.378609016318457      13.983501253998247      1.7009619580176258
   192   1      22.934872024575039      15.305556236464335      35.995510534456187
   193   1      24.447078407208227      16.459048928674815       1.910666136899408
   194   1      22.925697675920976      17.563724933573461     0.13255143884249482
   195   1      24.170789725162422      19.256934201747882      1.6793119291759369
   196   1      22.981639256311784      20.465698398417839    0.099913159488198761
   197   1      24.259405291956334      21.844876167654053      1.7712467477985332
   198   1      22.676763611425926      22.963079458654647     0.18579029548021717
   199   1       24.17527949563673      24.321392179015202      1.6743736556506414
   200   1      25.493668939109153      25.420747999278344      3.5335410780597516
   201   1      1.1532010515098352      1.3920307622899659      5.4620511087604191
   202   1      25.431329523320663      2.4769667049322397      3.6294254975442328
   203   1      1.3046006597946815      3.9450826823521279      5.3995190853598922
   204   1     0.03307118602548241       5.276988418582266      3.5413646398011895
   205   1      1.3647178565391986      6.4056571029300686      5.4770750500907868
   206   1      25.481000337801362      7.7158308193825196      3.4290412033740632
   207   1      1.1345746262956238      8.9488201759057873      5.3706437049609388
   208   1      25.424851736783872      10.187235386067675      3.5796955389095628
   209   1      1.3650381261987288      11.389336777914394      5.2343573914165811
   210   1    0.018127737868741865       12.74416166151344      3.6165125547504569
   211   1      1.1344594657384293      14.243257400355558       5.398243374556408
   212   1    0.036686576979533099      15.230242187219817      3.5820966156821674
   213   1      1.2861275138528261      16.744251698104094      5.4644886837450546
   214   1      0.1701403521967082      17.967086938670306      3.6588755153393233
   215   1      1.3692669034609311      19.369299703962728      5.5386117993749107
   216   1      25.451422025525588      20.416284689502906      3.5658786626275067
   217   1       1.203531168951427      21.789167499497584      5.5147636413367458
   218   1      25.411898703993511      22.870908123224318      3.5994012543672187
   219   1      1.4692601592875003      24.416285638839998       5.529907480436643
   220   1      2.4071993750027216      25.439772329608758      3.4846887705772693
   221   1      3.7193731589197347       1.323786378606554      5.2811951539868565
   222   1      2.4459499889732101      2.5156297751117047      3.6246326981545858
   223   1      3.9044256989304111      3.8090114231846361      5.2431327457028551
   224   1      2.6255101670423171      5.2249855060184087      3.4739677853447679
   225   1       3.869251176640049      6.2620214201133404      5.4333878486018543
   226   1      2.3798162930934574      7.6733645165089666      3.5292526677563969
   227   1      3.7663036406680828      8.8073994075279636      5.3928864755964288
   228   1      2.7523703612641901      10.154166789713328      3.4395424478787633
   229   1      3.7274406526843866      11.545191338691151      5.3385289155607456
   230   1      2.5130463764472926      12.763267116572463      3.6934012355587735
   231   1      3.8924623229314932      14.002743748528117      5.2932736792551722
   232   1      2.4339332153846747      15.516088206606526      3.8197127772855155
   233   1      3.9990688581400984      16.617892735087423      5.3450762180644062
   234   1       2.555842649744835      18.006329782821602      3.6478940979476491
   235   1      3.9541584271160928      19.113058062607688      5.3097008772911618
   236   1      2.5299742197458785      20.444995641964038       3.615511619199423
   237   1      3.7590736599127026      21.574394712204352       5.520416388344267
   238   1      2.4528313741433605      23.009160706332214      3.6001631175863404
   239   1       3.780746028480928      24.421149093662077      5.4488692022151115
   240   1      5.1488982278678481      25.428546624697486      3.4493421891296197
   241   1       6.161659106126792      1.2156253193094517      5.4326026346836729
   242   1      5.1696355296739052      2.4455214468063819      3.4306155472022732
   243   1      6.4678912701566045      3.8408062534241116      5.3035978357652285
   244   1      5.3084317262219267      5.0729077110641914      3.4401108821243147
   245   1      6.3232607039063486      6.2026395163026944      5.3376809513498591
   246   1      4.8983404914742357      7.5384191693350413      3.5721915936541002
   247   1      6.3008131298484749      8.9682601403706421       5.246373107896547
   248   1      5.1260916638263616      10.198116986507918      3.6603614465936225
   249   1      6.3971505222478839      11.613849401134933      5.4685577180515184
   250   1      5.2405934747912521      12.721855263319954      3.6503157949486029
   251   1      6.5688797175151032      14.047473119995818      5.3270576277943258
   252   1      5.2132348777750757      15.174322697935354      3.7132660734385015
   253   1      6.3543969667527236      16.569013823738786      5.4863637213799406
   254   1      5.1258202545144753      17.733267512323042      3.5925245486052741
   255   1       6.568184714332669      19.380051136781553      5.4646765899161851
   256   1      5.2714169177906802      20.441609242865557      3.3791449108686265
   257   1      6.3236302005708822      21.847676036234844       5.497259605343328
   258   1      4.8795460520616363      22.813699429826215      3.5412142216266504
   259   1      6.3108305754446548      24.393807931076164      5.3071385552082928
   260   1      7.6853600614727231      25.525002774890975      3.4346781207564501
   261   1      8.9864889891480022      1.2264973563253203      5.2168555244372952
   262   1      7.4715199640329608      2.5902675141714271      3.5117835473498658
   263   1      9.0602983399481207      3.7934403879134395      5.2981826449549239
   264   1      7.7429338170736717      5.3062960377655397      3.4995697350192927
   265   1      8.9697194251829409       6.414065518406896      5.5384143617061952
   266   1      7.6168104280187556      7.7748948718240918      3.4613831515590969
   267   1      8.8904750052008943      8.8490348739870957      5.3475130383429113
   268   1       7.689901223773135      10.295891409889068      3.5799023673382746
   269   1      8.9255533952384258      11.460650767469529      5.3141810239080378
   270   1      7.5771922194557089      12.840219810271632      3.7132498005259813
   271   1      9.0385534779410861      13.979444836073583      5.3992571383957202
   272   1      7.9331194796357503      15.215362468007788      3.4737204729877043
   273   1       8.743033223753276      16.516298155340717      5.2727386726805303
   274   1      7.6633840458130722       17.88518255188243      3.7737999389290282
   275   1      8.9875006422838712      19.219912545085169      5.5767240620771306
   276   1      7.7269465048047348      20.322577201937939      3.5209848407648461
   277   1      8.7713246905704789      21.743687482625063      5.4498669702216418
   278   1      7.6094719927566308      22.820851935477354      3.5213963714590029
   279   1      8.6840446131360594      24.371566562312193       5.270616213184133
   280   1      10.274058944490214      25.478753599663907         3.4346820549746
   281   1      11.427948501730201      1.4004218245537687      5.5145373627694223
   282   1      10.331254263562149      2.2951569502194147      3.5051914245271401
   283   1       11.34691939221843      3.7752373749901702      5.3748785331705848
   284   1      10.173183736769225      5.0202395842746625      3.6415170596627324
   285   1      11.511369695672526       6.345520243742417      5.3937567690751447
   286   1      10.116949322300766      7.5756965438240762      3.4639366797938478
   287   1      11.592143820751078      8.8968407765153241      5.3266117794511869
   288   1      10.247063987437842      9.9643517997549083       3.612441807242972
   289   1      11.609523238831905      11.420299428614589      5.3039679328311893
   290   1      10.353668781513534      12.796063683569409       3.812301639937715
   291   1      11.515922177661409      13.974491626225548      5.4653769029619745
   292   1      10.461448769294062       15.30989498749979      3.4946550902413733
   293   1      11.432014150860384      16.551232657949289      5.4623322134300221
   294   1      10.178023673722612      17.817625717102654      3.7292539486913916
   295   1      11.549695279631626      19.020715098377536      5.4805094638574143
   296   1      10.131404241490966      20.195392195014616      3.5636199903615418
   297   1      11.474886878837383      21.511611903142271      5.4249419524948603
   298   1      10.204221939719112       22.79037144553055      3.4833990966171071
   299   1      11.481342231567112      24.137791511196859      5.3339075526301256
   300   1      13.002837875107788      25.269840576277367      3.4061648129248172
   301   1      13.884280132896558      1.0731761017876911      5.3547773545542148
   302   1       12.79993483403207      2.2744527268197161      3.4990523633430821
   303   1      14.064378610781187      3.7607258627007139      5.1929784485446735
   304   1      12.630085602691848       5.113535057584004      3.7650306833359251
   305   1      14.037887138440034      6.4894589306557382       5.253103307363495
   306   1      12.769026158651462      7.6562341828453961      3.5524572277853284
   307   1      14.350009595906297       9.082747044840433      5.4629444616993164
   308   1      13.045955211562022      10.150454127798056      3.6102497042243531
   309   1      14.071009482564744      11.474006030672603      5.7231213143330715
   310   1      12.883207626044923       12.67788976396743      3.5513734226877776
   311   1      14.129353107588058      14.011031465898119      5.4548046037667115
   312   1      12.849590128850808      15.349971986244576      3.5455264252844136
   313   1      14.106747455798024      16.557230189592079      5.4780498099096073
   314   1      12.695530780322096      17.762765878492289      3.6482828960029976
   315   1      13.924719482639324      19.083548734544536      5.5136548558451004
   316   1      12.744563783975428      20.223684735441033      3.5641369192387513
   317   1      13.936257417870173      21.514353609067363       5.374801934713842
   318   1      12.842247515229555      22.779312945167803      3.7214004928749511
   319   1      13.934615875389913      24.192803895152441      5.2823323838517151
   320   1      15.458623881799141      25.420599249325434      3.4357199497506388
   321   1      16.381457420931401      1.2059753581198678      5.3153493600743751
   322   1      15.409344820689146      2.3698163042876796      3.5080440568300011
   323   1      16.568168542911057      3.7817636351189496      5.3684737670094425
   324   1      15.373296626815014      5.3298613913525585      3.5694202424406756
   325   1      16.541677378452423      6.4813876994932986      5.4644922310045185
   326   1      15.445650324683031      7.8181374893211784      3.5660197106076805
   327   1      16.805376353314717      9.1863089321506006      5.2852050947778393
   328   1      15.475708488542564      10.397708263934216      3.7835178994128031
   329   1      16.653042195645128      11.712790346692916      5.6201296505919967
   330   1      15.343816125788097      12.868018502034587       3.722388038102471
   331   1      16.512289574675002      14.198108421914812      5.3375351957307444
   332   1      15.185070433807608      15.229229780765481      3.7179306934753766
   333   1      16.616900558498699      16.752417263271521      5.5142013515039272
   334   1      15.250364285518291      17.697875475888374      3.5642627082804901
   335   1      16.295968512405132      19.125403885782966      5.4726068738791218
   336   1      15.293681930853518      20.363249899153057      3.6298568610017496
   337   1       16.49408089947498      21.562783441460777      5.4237020161093374
   338   1      15.333360244394484      22.832108028005852      3.6609421861713454
   339   1      16.671141427842031      24.158233861650469      5.3893551604979413
   340   1       17.87678773507054    0.032362003774286587      3.6182974200196791
   341   1      19.156239826477012      1.3919087039130564      5.4562462517801613
   342   1      17.991543404581261      2.5683139268158892      3.4657261833386785
   343   1      19.114941626931479      3.7461917518224155      5.5142521806200531
   344   1      17.909328600748971      5.0963242001579285      3.6902182958696481
   345   1      19.298027414676902      6.3451120859146579       5.332914223501759
   346   1      18.017370556720319      7.7464706217518531      3.8240817801301987
   347   1      19.163961606529305      8.8729147998661055      5.7299872224923556
   348   1      18.002895685496973      10.320044591501535       3.494238241247706
   349   1      19.332016513461568      11.295582169477626      5.5217761960361402
   350   1      17.975585086860693       12.89734897393777      3.6874904950452243
   351   1      19.168732378510629      13.957178030285519      5.4497584275139417
   352   1      17.820599168996107      15.270579699171703      3.7133346319406364
   353   1      19.060206326486622      16.484310388560175      5.5531320770957118
   354   1      17.911053483772012      17.693605432983979      3.6824814445329097
   355   1      19.196581037356051      19.126675991101919      5.4492416792210063
   356   1      17.902419249392054      20.502644312940241      3.7219002977817248
   357   1      19.068724824923223      21.949996401492552      5.4638787073672059
   358   1      17.781589352309989      22.938102719664368      3.6492952316747593
   359   1      19.156432594169122      24.343083681645869       5.346293660357551