dump/Cu_560_5/steps_51 (written by ASE) 

1995 	 atoms 
1  atom types
0.0      25.526554800834361  xlo xhi
0.0              25.5265548  ylo yhi
0.0      36.100000000000001  zlo zhi


Atoms 

     1   1    0.088389523932465228      25.427953401340861     0.07813141504146881
     2   1      1.0704345661279691      1.5072139982782715      1.6585240253057698
     3   1      25.439650795894892       2.598462324146996      36.026872199381756
     4   1      1.1347177353690863      3.9971972520253884      1.8832959223010901
     5   1      25.461281012870639      5.2025602381064644   0.0092587155173191518
     6   1      1.3429712187344602      6.6756686507509233      1.7327320165390816
     7   1    0.030261368670826534      8.0011949644523135      35.926449901602069
     8   1      1.4626844105264745      9.0846642849264967      1.7178286684787054
     9   1      25.277928266303395       10.36959354562106       36.02624477460477
    10   1      1.1760143284418545      11.529124755952632      1.6376868452638278
    11   1      25.350852466968167       12.98660128415928     0.23522743067856031
    12   1      1.2447867196526863      14.234872346879376      1.7183314753297301
    13   1      25.242417104307286      15.630376904103212      36.045901060766873
    14   1      1.3841495745346528      16.669651645635138      1.8961834697029316
    15   1  0.00015883612053175182      17.970034294030192     0.13107851686706926
    16   1      1.2827563615873314      19.378968621712623       1.677378954966809
    17   1       1.278658253124787      21.794871759462222      1.8212517439578377
    18   1     0.01479756107998618      23.077678212537069    0.076096393002490076
    19   1      1.3159762571433085      24.350544332484901      1.9531748173442918
    20   1      2.5217171399536626    0.037520746235783782    0.025410128824853467
    21   1       3.674172156812022      1.3548850405871884      1.8432202939723665
    22   1      2.6813717177214422      2.8102341671886926      35.944047114506404
    23   1      3.8912088150751791      3.9034802642568409      1.8936672068873805
    24   1      2.5392856703225304      5.3462756957957005      36.092112918673784
    25   1      3.9083969420329634      6.4317641889462527      1.9400952966995313
    26   1      2.6454673338924182      7.7454529366411649     0.13514958352540146
    27   1      3.9238478478222127      9.1294447707046515      1.7505729156233765
    28   1       2.566719322173038      10.284989991086231    0.010688654835496445
    29   1      3.9024513373597278      11.654997767420381       1.778419929752034
    30   1      2.5405431054917775      12.844302064331233    0.085493932343240264
    31   1      3.7968564507800964      14.138820904252887      1.7298478397323385
    32   1      2.4477747013089037      15.382111320042712      35.872334789107946
    33   1      3.8975784233657595      16.639622407213064      1.8076800827336799
    34   1      2.4733789253794694      17.910378764282409      36.006886561633976
    35   1      3.8209672572166302      19.108452015660369      1.8081382519799378
    36   1      2.5840707069140372      20.617719131707144    0.021244329389128326
    37   1      3.6988231537997391      21.790203672170993      1.7049743203189578
    38   1      2.5767535070483985      23.173770898085873      35.871413780912711
    39   1      3.6927854081677705      24.194745972429754      1.8954883114207535
    40   1      5.0946750271682486   0.0070063108224728693   0.0069787896667890068
    41   1        6.29891719269781      1.1519383470288471      1.9036260187337912
    42   1       5.222383190364436      2.5848213954021544      36.073451851674228
    43   1       6.245380809386365      3.6600793466782773      1.7621397240918202
    44   1      4.9945783580266276      5.1116371919336325    0.003069543068477289
    45   1      6.5505560492748733      6.2247326783482659      1.6266178467960219
    46   1      5.0383582343087632      7.6204391166789573      36.096160824435138
    47   1      6.4959084770758873      8.9677294678241264      1.4707935898873545
    48   1      5.1147344137474562       10.32443440730105      36.045479883104349
    49   1      6.4131833073413018      11.573345717787412      1.7849006061337833
    50   1      5.1579442368477411      12.764445574551061      35.899767368761964
    51   1      6.3308576417627398      13.943138441017345      1.7912875820780525
    52   1      5.0588988254765246      15.231147414825795      36.098489768556135
    53   1      6.3897578887454856      16.487194630401309       1.989549402662478
    54   1       5.309154988368558      17.767978213266954   0.0083839517805245189
    55   1      6.4599356520245221       19.16016415050996      1.5495944617726072
    56   1      5.0043554891565281      20.393626182426971     0.19868211864708199
    57   1      6.2964426505346172      21.663035724510841      1.7884531602596228
    58   1       5.001302345132423      23.085211744227642     0.07440885617418197
    59   1      6.4111157118568114      24.267726290693719      1.7816129941118106
    60   1      7.5827056654062659    0.076141584723756248      35.860502188745862
    61   1      8.7516356060716518        1.32199189445913      1.7950080428130373
    62   1      7.7499578184939883      2.4990806667500531      36.062009727256921
    63   1      8.8331648653998673      3.6478778779869403      1.7512892893712881
    64   1      7.6378034388870368      4.9110074562389467      36.037094453983066
    65   1      9.0077056985978299      6.4266024954158159      1.8696320397880655
    66   1      7.7671332248937741      7.6118560901074623    0.014191181703267828
    67   1      8.9413337301746729       8.963583295036031      1.8716922640351301
    68   1      7.7227699301038788      10.031042859766597      36.007356552546895
    69   1      9.0605061655451529       11.51145303072855        1.70499635838894
    70   1      7.6417552405140183      12.733285454879335      35.932263268201353
    71   1      9.1083276373065214      14.028305846157291      1.8046587498270688
    72   1      7.6926377451606935      15.308145943369361     0.16246799439999221
    73   1      8.9425187548190959       16.75396479617087      1.8560523758005827
    74   1      7.7767680640031642      17.865174175358785      35.981512456979722
    75   1      8.9598943316206388      19.266792658854833      1.7491804836731042
    76   1      7.9062683842092145      20.500947866851526      35.854966624723026
    77   1      8.9316180636456028      21.717891135703752      1.7295448422654094
    78   1      7.6955717275507789      22.902550947844524    0.012834473386885759
    79   1      8.9446473496272283        24.2326851440322      1.8284735646145811
    80   1      10.217831348996143     0.23259399508562223     0.32695545192402731
    81   1      11.591368973386864       1.270406436749459      1.8563961578946875
    82   1      10.164060393381719      2.6388850252629634     0.02911708063617198
    83   1      11.463546134302071      3.7832524370573539      1.7566677225333371
    84   1      10.141677046898337      5.1029731929597659      36.020872216622756
    85   1      11.551547259724611         6.2849960191426      1.8966548915680284
    86   1      10.386919519951908      7.5709928768124115   0.0039407265078466322
    87   1       11.57626057493753      8.8766779695929969      1.7839994673370942
    88   1      10.203907854100986      10.124495353089515      36.079010530031034
    89   1      11.719973635874082      11.625728085879915      1.7544600416429819
    90   1      10.177540365011902      12.807475912303051      36.067464573421937
    91   1      11.577549916929714      14.017862026493683      1.6935721612406858
    92   1      10.125948937121569       15.19952518931675      36.014519491521007
    93   1      11.276400562177479      16.487584498033662      1.8504845868682869
    94   1      10.228780995976733      17.766697772373902     0.03142023328723554
    95   1      11.468330354874487      19.112946282658122       1.833009520018219
    96   1      10.523619439779253      20.397173419686204      35.940449555980528
    97   1      11.391497595554474       21.64742187126777      1.7450993600165485
    98   1      10.123538741823845      22.947566818753238      36.059953198472286
    99   1      11.467526047684718      24.210643182133424      1.6896121732307636
   100   1      12.709544091133646    0.014344578166896908    0.047870094430424955
   101   1      14.036813278461889      1.1588690818872505      1.8142882620230685
   102   1      12.775549490573731      2.5253457619233641    0.078861991978146834
   103   1      14.025327922395052       4.017737301005619      1.8032868360239847
   104   1      12.670443517239217      5.0670056409040649     0.12263850689394086
   105   1      14.090347756962874      6.5448626959993641       1.906833719888162
   106   1      12.752114661714163      7.5793418950592262    0.083192160408180074
   107   1      13.975034733982987      8.8546307972298344      1.7619094698714339
   108   1      12.826714429646973      10.168645836126327     0.15840949189858972
   109   1      14.113641456614738      11.496923335076229      1.7901836629389094
   110   1      12.773193829641404         12.813239662415      36.008385518417263
   111   1      14.114019236645792      14.006440044342485      1.5386663916998591
   112   1      12.641042850811566      15.284927428885807      36.099738659764682
   113   1      13.808460674066101      16.534069266432248      1.7881957415690073
   114   1      12.756440545691351      17.831697458778308    0.082668978068306698
   115   1      13.913239332997245      19.298500591123041      1.9247866775925324
   116   1      12.902258969661228      20.355931381169629      35.988823142155375
   117   1      14.214944938779713      21.584097014094962      1.6866158185553679
   118   1      12.744273489789236      22.852860943060879    0.007805430511189133
   119   1      13.932175141725963      24.180632692410594      1.7086068932952356
   120   1      15.383739550690946      25.507799275319289      36.069307444804132
   121   1      16.555122054773044      1.3160471676250478      1.6467311792829957
   122   1       15.27950426053949      2.6391415205759441    0.016628395117140843
   123   1      16.551992192709957      3.8754344029577608       1.865022026637349
   124   1      15.155869194765417      5.0385801966828492      35.952796335057663
   125   1      16.573566218978993      6.3525378896689668      1.9551605611799696
   126   1      15.237327868088776       7.815970220479362      36.084426785882698
   127   1      16.731731005731518      8.6799603273750847      1.9043023251928513
   128   1      15.424691129334017      10.305499581999475       36.03296908615669
   129   1      16.597316483598647      11.391349388867118      1.8659273148627107
   130   1      15.379380032887935      12.828974635984638    0.082416792513129222
   131   1      16.525459107686817      14.028856339306786      1.8446773958154259
   132   1      15.392590637924235      15.383526685512091    0.060045520460141798
   133   1      16.437717502900529       16.71194354340906      2.0373497489532153
   134   1      15.261617846702167      18.039835059098184    0.077631908375190212
   135   1       16.49482908462598      19.247268888323351      1.8126145985948821
   136   1      15.460070791900346      20.466145907123462       36.02405331378467
   137   1      16.636085106691038      21.778930164880261      1.9794042284617841
   138   1      15.375659083000524       23.05201297607007      35.981177838436757
   139   1      16.544614887132177      24.416779078746259      1.8485232424263929
   140   1      17.836114160737729      25.501056800503019      36.044037347245883
   141   1      19.116245293249722      1.3172063859383722      1.6678326983443741
   142   1      17.799740918968538       2.713007799225835    0.049421600940809052
   143   1      18.951476312499189      4.0048640157945661      1.9098337682858546
   144   1       17.63765157416077      5.1985527901827551      36.009932615007969
   145   1      19.181722580479576      6.4432316367887381      1.7501634262362242
   146   1      17.756525634668211      7.7676830112168371      36.041283331958901
   147   1      19.078119379387658      9.0665101508483925      2.0161759649898601
   148   1      17.892731075731003      10.208050834234784    0.083059523647261851
   149   1      19.039880217292232      11.730774053619005      1.8156709704984904
   150   1      17.919139068043162      12.878385239964798     0.11586943907556126
   151   1      19.088273728479884      14.062720385084981      1.7785211253255522
   152   1      17.889275005812749      15.485035753948699      35.977368063839883
   153   1      19.011478421687176      16.634425026055883      2.0099292828572963
   154   1      17.857281275312086      17.973218742013181      36.075711960597054
   155   1      19.148159704369405      19.132276845148784      1.8273346476343031
   156   1      17.821752238742526      20.383255232253447     0.13039874254226352
   157   1      19.207465455450418      21.580915205749218      1.9306398513713474
   158   1      17.835582467035344      22.976693144535808    0.014767400173195697
   159   1      19.022361168018801      24.252926255526376      1.8040438591322059
   160   1       20.36468948284007      25.441841150470943   0.0036908975280312041
   161   1      21.769224543435573      1.2349749762737721      1.5896955983189387
   162   1      20.435917865955872      2.6587318533009729     0.12106571917843226
   163   1      21.779600856166468      3.9421755061742574      1.8327402889218314
   164   1      20.328472358853929      5.0454844345698078    0.099658790029241079
   165   1      21.675568388030744      6.6018329666303268      1.8104145881592908
   166   1      20.265047539311073      7.6879449142959491    0.013996196908385612
   167   1      21.587874482874518      9.0458527125116799      1.6600743352016376
   168   1      20.244234862207822      10.563760152985585    0.055553948330509598
   169   1      21.650115219752657      11.668743573068536      1.7772015851449059
   170   1      20.343854290369553      12.973899228320905      36.068552345972599
   171   1      21.630844416824733      14.145975550829775      1.9590498277394899
   172   1       20.45816728969994      15.367277921945611       35.95433931255922
   173   1      21.442339998862572      16.623652166547252       1.887658890283626
   174   1      20.343200831259214      17.906537328844788   0.0021821982658821056
   175   1      21.516456308133723      19.105657476295132      1.7223153360590442
   176   1      20.314261782993832      20.499219447364322    0.017039227351813211
   177   1       21.76227572435624      21.702972941888589      1.8204752597571998
   178   1      20.391905292075588      22.976155865855855    0.084787366302623471
   179   1      21.652222987770593      24.266293775115916      2.0482867958469471
   180   1      23.029935347196567     0.13354347595332944      35.997418201049705
   181   1      24.300277834787689      1.2179085574412754      1.7911672353779877
   182   1      22.836462074498584      2.6202596296907847      36.085925816203158
   183   1      24.290492618537897      3.7684449220355871      1.8970286361113269
   184   1      23.049076300388872      5.1959307592381698    0.072912225914024159
   185   1      24.218297199466527      6.4507653093556234      1.8513390928175668
   186   1      22.961933520915185      7.7250338302814967    0.031081890017594573
   187   1      24.289610630240375      8.8762454429041231      1.9475405458266997
   188   1      22.949721812233562      10.199219334533797    0.070966672371025552
   189   1      24.173311128151962      11.623050596008257      1.8964563796812062
   190   1      22.821539408835385      12.733885687974059    0.011115637631417047
   191   1      24.085190084018755      14.049188511051232      1.8697469366729038
   192   1      22.866795677183873      15.366049721790155    0.095315666371288979
   193   1      24.225159055850536      16.654811926149208      1.8786643585032159
   194   1      22.919332709003147      17.912262495530289    0.035362608217087671
   195   1      24.182809555796357        18.9905386879425      2.0292222690978754
   196   1      23.175860357370237      20.350238314649218     0.15795555161015495
   197   1      24.348785023648674      21.846389115655754      1.5478928496801692
   198   1      22.766846140207367      23.171297013456769   0.0016970245475363287
   199   1      24.150088934983511      24.252771744633993      1.8287491545585806
   200   1      25.344840609054781      25.482704492099696      3.5744463070568275
   201   1      1.1573270470206831       1.368702075557142       5.437586751223308
   202   1      25.514242067002151      2.6242306748600184      3.6331302393579579
   203   1      1.4313556258714697      3.8779375179457487      5.6408636256791747
   204   1      0.1290531545555664      5.2931182548771201      3.6128021980055807
   205   1      1.2816398205349502       6.517170415137107      5.5801178012678925
   206   1      0.2507185556882276      7.7874375436583652      3.6780273556350003
   207   1      1.3843634778571061      8.9152120233150978      5.5863498917180534
   208   1      25.385437060803735       10.32764319809649      3.3410494207976411
   209   1      1.1388357908820212      11.496782118795943        5.39608263871198
   210   1    0.055496769461743686      12.753097180520463      3.4374289752214411
   211   1      1.1499015698783683      14.196348306193627      5.3578396217807347
   212   1      25.434849583096266      15.390202271508096       3.488440229540593
   213   1      1.4066293751556775      16.777041129230422      5.3827977526621078
   214   1     0.19032783090663466      17.896544872413859       3.536543055948381
   215   1      1.2629925151215451      19.165208195448201      5.4118335374874844
   216   1      25.364593207603733      20.573628981986019      3.7571183208921872
   217   1        1.41739942045558      21.760693118645921      5.6050506196067147
   218   1      25.345431519498145      23.083347430240746      3.7773815394824095
   219   1      1.1460463335978466      24.416810416895469      5.3362930505829302
   220   1      2.3877779533372365      25.425467488914094      3.6566864477338994
   221   1       3.699518741579384      1.0517914272744868      5.3732987736486209
   222   1      2.4710182472552749      2.7148667992038069      3.7829475287527039
   223   1      3.8165274481561946      4.0368140037577112       5.411742502442082
   224   1       2.528166829574364      5.3021880699294064      3.6082340250100957
   225   1      3.7423745334641962      6.5536182813447095      5.6671832511913776
   226   1      2.7512278114871576      7.8331942632008333      3.4812007487913763
   227   1      3.6493353857306663      9.0895477903058115      5.3283967819654618
   228   1      2.4661892574853694      10.268134715327514      3.5128957854235847
   229   1      3.9086691326244476      11.404259691869282      5.0816782461803021
   230   1      2.4582794699955435      12.740807582896601      3.4625873134158507
   231   1      3.7948191210622468      14.194219118253498      5.2184324322413147
   232   1      2.4592412617477031      15.376219100637263      3.6020758807946325
   233   1      3.7923954399606683      16.743846153934562         5.2848111641825
   234   1      2.4593217448150098      17.975756363355259      3.4811256653981659
   235   1      3.9365286162136535      19.121340674204159        5.41393335284579
   236   1      2.5214856477846856      20.488726243321327      3.6940363364747042
   237   1      3.9018349982733334      21.733260873617901      5.3781982857136486
   238   1      2.4989289580556409      22.832477684856801      3.6704879046566505
   239   1      3.8037931879606304       24.23917503154701      5.3575558414834612
   240   1      5.0714074969324248     0.18561090147180673       3.657810865144083
   241   1      6.2249379106712368      1.4688148679368547      5.4604390463101335
   242   1      5.0744627093343375      2.6561339242507582      3.6343277097425162
   243   1      6.3789766476739178      4.0811491884185758      5.4067264848224683
   244   1      5.1563387789836375      5.1456638455121375      3.7736572390794314
   245   1      6.4160483787743123      6.5379288869735799      5.3235164150185881
   246   1      5.1908164605240756      7.6772810488604115      3.6249322798654569
   247   1      6.3290294491461978      8.9494656241098927      5.2470421719045657
   248   1      5.2871968019511719      10.202011455440255      3.2779821329590959
   249   1      6.3019732487237166      11.503726833662865      5.3432232816173819
   250   1      5.1947245433329146      12.857257289706004      3.4954884670545536
   251   1      6.3716626040016475      13.932774686890996      5.4705551246617832
   252   1      5.1097062919203955      15.314187789658341      3.5477586009477124
   253   1      6.4692768014555861      16.650665416826797       5.374049968334738
   254   1      5.2356311963791979       18.00948097204623      3.4751839440124872
   255   1      6.2847970585224617      19.193237431593449      5.4427743017153736
   256   1      4.9770621409664937      20.657818577177398      3.6262845376398278
   257   1      6.4478026140439839      21.822623917350572      5.3021531760848735
   258   1      5.1873943771273803      23.044650408935812      3.7199738177978587
   259   1      6.4815106343713209      24.370017287380321      5.2983572982978755
   260   1      7.7947294048982974      25.524334290903766      3.7470818763078424
   261   1      9.0002102350455466      1.3983544331664381      5.3173752272813717
   262   1      7.4741539273694757      2.5046252409745802      3.6560257026194112
   263   1      8.9117000187116222      3.9287267087694433      5.5787177184640209
   264   1      7.5811718308788638      4.9428590900394127      3.6141273897013093
   265   1      8.9835576582702874      6.5207144197866453      5.3594902122134505
   266   1      7.6272964053984795      7.5957932951753522      3.5559501160837601
   267   1      8.8299153137271524      8.8628198627813877      5.4115137603877272
   268   1      7.8717035464368745      10.179933041623647      3.5544410990005084
   269   1      8.8639730786852873      11.478265377979511      5.4462188840295331
   270   1      7.6762169781703413      12.756630950389239      3.5098950229954755
   271   1      8.9119807730147329      13.899343331017853      5.3578747287538482
   272   1      7.8512999692484611      15.191962723518449      3.5278955306072488
   273   1      8.9715504588088049      16.490248192799857      5.2893313011282226
   274   1      7.6616036761398423      17.927759039457865      3.5634061981005956
   275   1      8.8577066959220971      19.087571915447086      5.4542416792315249
   276   1      7.6063104361862788      20.385804597839869      3.5059350498834179
   277   1      8.7995175329354449      21.652439972100918      5.4795125295648957
   278   1      7.7381163721203787      22.947875136130349      3.4533158565185773
   279   1      9.1262551277100119      24.192571237770672      5.4173559739678669
   280   1      10.221192902911298    0.086457566445739778       3.523056362542571
   281   1      11.404126130863913       1.310124330566913      5.2585935947986302
   282   1      10.067600250354385        2.74185360926985        3.53892319962929
   283   1      11.406140823337802      3.9317154001924242      5.5295565488410441
   284   1      10.102218147690408      5.0787011934068786      3.7410616516400728
   285   1      11.494224107014782      6.4356912591638995      5.5028622732334469
   286   1      10.251913683769565      7.4927527449739362       3.619727426620396
   287   1      11.491331528705613      9.0267077832644844      5.5376214554256142
   288   1      10.362816210956108      10.218860756472493      3.6537784309584271
   289   1      11.590107989358824      11.534665715244882      5.5518112122774301
   290   1      10.340878359222403      12.825747424747634      3.5871941166204824
   291   1      11.409977031279128      14.203433885655027      5.4256045621735174
   292   1      10.308204543621356      15.382492545625965      3.4952742125494067
   293   1      11.419316777643877      16.522911495978654       5.422623680436371
   294   1      10.040644575117275      18.062650323652367      3.6827140075939311
   295   1      11.530246074491423      19.142118317688016      5.4813942283376171
   296   1      10.204486497878877       20.59910063010658      3.6890215187036066
   297   1      11.165773350314899      21.697183640630065      5.4385917322914548
   298   1      10.190360082475932      23.092123557353052      3.5740225896059883
   299   1      11.423911898276375      24.314607571400018       5.354802505214872
   300   1       12.77905867741147    0.094544668802160489      3.6654733946803981
   301   1      14.089962529249336      1.2421123497163251       5.411342913490147
   302   1      12.573008896656482      2.6979075215599879      3.6481305427682793
   303   1      14.083081914008954      3.7621171432903475      5.3429341637354373
   304   1       12.79016302674321      5.1707367487037201      3.7335609682412252
   305   1      14.132946678769009      6.4446742825928087      5.4886581728574386
   306   1      12.647454511032986      7.6169212898033374      3.6025347672355683
   307   1      13.929207307999731      9.0946092252867761      5.4654639011663555
   308   1      12.872803790380932      10.282456586218608      3.4636881436490503
   309   1      14.128387367814026      11.408747683083611      5.5563270813790622
   310   1      12.956685134381688      12.761936185959108      3.8092703654769795
   311   1      14.177030506208883      13.984930684151662      5.3568466723304002
   312   1      12.739305389779432      15.256880059606061      3.5978321695630702
   313   1      14.008639428993613      16.472565578012183      5.4490684452956542
   314   1      12.696322878408239      17.912291003532467       3.760510258245779
   315   1      13.983666931341599      19.112658593171599      5.4044932960879759
   316   1       12.66958528863989      20.638198174384346       3.496527109260136
   317   1      13.977608144113841      21.734711523032459      5.3979068054828812
   318   1       12.81192285368564      23.016197269566185      3.5153645773642905
   319   1      14.044901538584758      24.140061120881199      5.3667243349888878
   320   1      15.280831756683567      25.493927178098282       3.665220499034715
   321   1       16.53455556458325      1.3225039670181584      5.3924130621741675
   322   1       15.21499993655506       2.589237931005735      3.5331719314406089
   323   1      16.508718636045419      3.8128740750597325      5.4243240853585428
   324   1      15.309727400125018      5.2465171935508623      3.7576961399631958
   325   1      16.656163205377762      6.5032945240328432      5.4962342387846679
   326   1      15.308953600119132      7.7109547930856985      3.8746335366788633
   327   1       16.55806987203805      9.0068942193187578      5.5767566776019919
   328   1       15.40408048198557      10.134791523968062      3.3628905316903679
   329   1      16.551758763613691      11.536961599697769      5.5349048129045189
   330   1      15.363848339283042      12.613393351978397      3.6187358673829029
   331   1      16.556578093280898      14.093973090269218      5.5333288590193908
   332   1      15.274271106670691      15.123838288233495      3.6439428265672893
   333   1      16.518408541680554      16.663951746097418      5.3951468301021359
   334   1      15.234973513590894      17.820560866220315      3.7664743681500736
   335   1      16.469042631330222      19.162764057972041      5.6127900124246795
   336   1      15.242869468507102      20.349681682924441      3.6886999951063193
   337   1       16.58150363746492      21.683692080908589      5.3588033260093901
   338   1      15.448485111187304      22.920330568098127      3.5852812363264648
   339   1      16.512615592861998      24.171500356452178      5.4182144125716247
   340   1      17.787546883579719      25.522019885749845      3.5874843481116154
   341   1      19.079507529873251       1.566752862700771      5.4750892114751348
   342   1      17.933599689357298      2.4658172996882985      3.5859314492665351
   343   1      19.236576607363766        3.99609947178249      5.5079973193055656
   344   1      17.921483018119048      5.2789191617712214      3.7550065277002296
   345   1      19.222327843540171      6.3802899349236109      5.5131282037269784
   346   1      18.190075870747243      7.6109139990782362      3.8587991281345042
   347   1      19.168572832288692      8.9233604106887352      5.4922218083840804
   348   1      17.671394168796215      10.268138383015861      3.6843617056288713
   349   1      19.242713684789603      11.607919547102503      5.3759932240894317
   350   1      17.794529441941901      12.910034344071388       3.795326665658612
   351   1      19.146856664222888      14.217430584838683      5.6494968307581406
   352   1      17.869303290466107      15.311803353281249      3.5870770742297724
   353   1       18.99830060404938      16.678920976172837      5.4956597279301151
   354   1      17.910940479608382      17.870245927834254      3.6663325277749821
   355   1      19.109645960993262      19.135001232011973      5.4292234821026266
   356   1      17.921422665838559      20.423243897646479      3.6186322436955694
   357   1      19.114755255039288      21.691537840437125      5.4187142021126515
   358   1      17.914434869274356       22.93225574410716      3.7107236624784612
   359   1      18.948052818583726      24.456902556244419      5.5921558699329408