dump/Cu_560_5/steps_11 (written by ASE) 

1995 	 atoms 
1  atom types
0.0      25.526554800834361  xlo xhi
0.0              25.5265548  ylo yhi
0.0      36.100000000000001  zlo zhi


Atoms 

     1   1    0.069836862002681799     0.21143222416805735      36.095181236050237
     2   1       1.189693797167245      1.2217685936092879      1.9392972568734659
     3   1     0.15489535884192626      2.4568092725755797    0.049732875800668659
     4   1      1.3134188274389282      3.8765847863789538      1.9329174062575607
     5   1     0.13665223542425481      5.1493719316057893      36.054665769782183
     6   1      1.3067525218491736      6.1890188198433096      2.0126531633107887
     7   1    0.018975024493731348      7.8213941245523513       36.07960636283002
     8   1      1.3460020217164503      8.6801121611852761      1.7768230208306015
     9   1     0.15653658430698039      10.249216205155559      35.922959568451525
    10   1      1.5341588103485773      11.450053542887133      1.8051784471583923
    11   1     0.17779851617063996       12.84135712536097       36.08371952320892
    12   1      1.3323149111712604      13.903521617073741      1.7432939788491932
    13   1      25.470106111348134       15.13384831305744      36.017221586786533
    14   1      1.2431014254713397      16.362892965326086      1.6431457447745068
    15   1      25.467199477445558       17.63303932903144      36.078187073237807
    16   1      1.0211464921064164       19.29973997876775      1.5666229226225927
    17   1      1.2127803847421244      21.752140481792711      1.6700777167875007
    18   1      25.434034641692772      23.130713798897251    0.048412524289722189
    19   1      1.1488573674558407      24.318692274468113      1.7469998627380958
    20   1       2.647700426186224      25.380397989232549      36.033767843216424
    21   1      3.8435756996396298      1.4213848640195723       1.914446508944126
    22   1      2.7742734189362457      2.3403056033857528    0.022314773060077193
    23   1      3.8577060626320203      3.7408741551200815      1.8656115154558039
    24   1      2.5550989393492598      5.0335665821145943     0.10852465865388007
    25   1      3.8874328874178126      6.2473026656951598      1.8761701900699324
    26   1      2.5865829546038097      7.4191175360672688      36.072470989099202
    27   1      3.8897084991745343      9.0575308136314803      1.8391792888196634
    28   1      2.6496639125032204      9.9365099878400702      36.018499839957755
    29   1      3.8944257610167012      11.405520011703116      1.7434405496523382
    30   1      2.6365170962249542      12.646184730583821      35.925430283402804
    31   1      3.8762364666832472      13.901934635544428      1.7259290998824763
    32   1      2.6367663271159825      15.096510175304852      36.056692125905883
    33   1      3.6904711936018946      16.454216059821015      1.8234994308834309
    34   1      2.2738781557745487      17.804275719670905     0.17035754478660009
    35   1      3.6259733710977811      19.277921562208654      1.8052278716398409
    36   1      2.4653376699686893      20.366013604330394      35.979266625773967
    37   1      3.6690329919690075      21.913876392644255      1.8138854068108348
    38   1      2.6125133812072345      23.078728992966528    0.055343780362886882
    39   1      3.6764810786727993      24.297986838912326       1.999639949095364
    40   1      5.1146549790251719    0.057057490446420944     0.16965562346092611
    41   1      6.5477398575373202      1.3200355153291083       1.750592384895252
    42   1      5.2639090411682252      2.5279139149279763   0.0072838796926589485
    43   1      6.4586670925345704      3.8071699044980427          1.934827713477
    44   1      5.1016566920901338      4.9107878537352061     0.14914640004950572
    45   1      6.3653856266810411      6.3155638507496592      2.0205728882092782
    46   1      5.2303801689076561      7.4842042539364551     0.15885973815281887
    47   1      6.3698417339667444      8.7666263700014859      1.7986035349805092
    48   1      5.2172390022323594      10.001903376313081      36.036027456848885
    49   1      6.3118278719461127      11.676220020098452      1.5912362202239598
    50   1      5.0038521646520655       12.82685594533158      35.850103893307669
    51   1      6.3053374534982787      14.081025354499708      1.8636600084717878
    52   1      5.1232224621818512      15.402891714088252      36.064541756262663
    53   1      6.4447923225230346      16.591767240977816      1.6028033576027707
    54   1      5.0688279126009261       17.70580484286841      35.856649807687432
    55   1      6.3813979341888434      19.200288139363803      1.6654160526264261
    56   1      5.0142989092550598      20.455580012097343   0.0097431006174246975
    57   1      6.3909385661527365      21.682480968316931      1.8825777329837012
    58   1      5.1448024420418355      22.937309731736484    0.047993841340235162
    59   1      6.3131967426893514      24.462690723202609      1.6927652859140399
    60   1      7.6112296944882276    0.032391843679148442      35.985648583224908
    61   1      9.0719645680026968      1.2363999500387461      1.8723843222318117
    62   1      7.7039209005981215      2.5559407357370492      36.064052186352839
    63   1      9.1241249165563936       3.802605993713073      1.8245584282872196
    64   1      7.6266785902189618      5.0939340553623644       36.03697003537247
    65   1       8.920842437262646      6.1728901338650983      1.8468369271039371
    66   1      7.6863376001276675      7.4165203425431825     0.14013664732226513
    67   1       8.816429915790966      9.0363689061297254      1.7597156992934282
    68   1      7.6011347989951261      10.177580702199073   0.0020207712919614092
    69   1      9.0307798883585608      11.517430380021183      1.7611957722231861
    70   1      7.6783176818702366      12.865715112171955      0.1092242348956574
    71   1      8.8473860518162954      14.185220405875404      1.9561126492606722
    72   1      7.8066883640954092      15.553878737880375     0.10971993006443201
    73   1      9.1419571702977542      16.731646169392398      2.0185666955035324
    74   1      7.6529296217596219      17.890792490738715    0.064852616016821504
    75   1       8.992199110117312      19.218018098337616      1.7932862821143212
    76   1       7.662740890090455      20.505914636284732      35.949963996863559
    77   1      8.7750881869416695       21.51463335312625      1.7525317955193827
    78   1      7.6416997055478788      22.998626548847639      36.001482506921796
    79   1       8.790634400051756      24.330235409448662      1.7381285066800942
    80   1      10.098476758442958      25.467092302516864      36.027502199509037
    81   1      11.664246964273227      1.1032540379129554      1.6352455961006045
    82   1      10.346002195006092      2.5798788014356751    0.022921329984058065
    83   1      11.567809233181752      3.8048469840993491       1.842139559205624
    84   1      10.179231058890501      5.2078566292597239     0.21406074268697917
    85   1      11.764645608926374      6.2488448697561862      1.7012895080062214
    86   1      10.255726271034609      7.7078639383085532     0.18847759220876706
    87   1      11.347911952044365      8.9496731010189254      2.0035929009999456
    88   1      10.251901002873685      10.161805982866115      36.096805204906502
    89   1      11.623550093000443      11.389429367370759      1.7422288573479128
    90   1      10.229704933415098      12.747665586462645       36.07004058001602
    91   1      11.350722052074465      14.056189255100577      1.7082516234087386
    92   1      10.176952225325449       15.32303780037337    0.035575347383712604
    93   1      11.541594818490179      16.639657236760787      1.5860302023270487
    94   1      10.190996180735073      17.935442297377275       36.09848347039167
    95   1      11.472108617824203      19.129086154059308      1.9363187884425894
    96   1      10.199937382695516      20.398912778617156      36.037403358555785
    97   1      11.351395470124816      21.490088374023493      1.7295007983918373
    98   1      10.214509517282712      22.948304656997607      36.040125367353241
    99   1      11.501080889997432      24.364587853398739      1.7298115759297945
   100   1      12.773856195620091    0.072787212659126493      36.040208746741193
   101   1      13.996693305550709      1.3240280641674695      1.7670601677095092
   102   1      12.762573621616646      2.5416089080858271  0.00055305868105506406
   103   1       14.20117989754611      3.7728975973156191      1.5424641470815232
   104   1      12.879261247343093      5.1166408595941384      36.089585331324685
   105   1      14.432634483271503      6.2278861735372404       1.930285702485526
   106   1      12.923804226408448      7.6171504340619673      35.949126045398486
   107   1       13.98652806131715      8.7393816076682338      1.8132446146152676
   108   1       12.79433846059964      10.173275757167099    0.074521933122787265
   109   1      14.079511561456586      11.512222452631248      1.6557270332057688
   110   1      12.753390338765781      12.732853279853066     0.10863253207398869
   111   1      14.048414164587326      13.795568177192894      1.6943974347935737
   112   1       12.85043449520613      15.334179653107606      36.007140238635685
   113   1      14.150462782783341       16.37654563253728      1.7015412801805516
   114   1      12.798900707242797      17.789218337025879      35.920473974763105
   115   1      13.963037560367439       19.18150012650452      1.8089010808392227
   116   1      12.624070229351096       20.24879935598803      35.927450415611268
   117   1      14.135771713480819      21.718524227528917      1.8220989024487289
   118   1      12.721295564466061      22.822490354336633     0.14284662554437078
   119   1      14.219531043131413      24.239642470241982      1.8022885592122848
   120   1      15.366590192396435      25.439114465618193      35.931227406435895
   121   1      16.462796323028286      1.1312139319808858      1.7586713679094936
   122   1      15.363907746690494      2.4264059881919069       35.89651550281507
   123   1      16.695552296656572      3.8218299748608571      1.7332627037950474
   124   1      15.455978479584729      5.0499417283110448    0.044831267396830188
   125   1      16.796991678948288      6.3468978989607132      1.7649470304839612
   126   1      15.648852349311669      7.7134015975304298     0.09714657537382447
   127   1      16.649774462846999      8.9486432470674107      1.8336433577470981
   128   1      15.404023286374375      10.180577462191655      35.980949837249526
   129   1      16.607771215287954      11.385135487904908      1.6541745843911031
   130   1      15.204541825595983      12.640523529105748      35.956874011015991
   131   1      16.554464317311087       13.78170721684096      1.6925543577449267
   132   1      15.213065366765271      15.299218606154767      35.940604156170259
   133   1      16.558514542865641      16.439301785016106      1.7525511488259538
   134   1      15.248007591792939      17.696706693816946    0.038880718595635071
   135   1      16.265001854924602      18.902834446727468      1.8316434906786281
   136   1      15.267429336980005      20.307247702627823      36.051308087075604
   137   1       16.58039350506262      21.649885310489459      1.8226661429197979
   138   1      15.341483147629738      22.954688013746146      36.038523544687294
   139   1      16.651060246676476      24.265711291161558      1.8780061123146092
   140   1      17.713352277540295      25.319658443815026   0.0089127069640767293
   141   1      19.085778647170269       1.108562805930605      1.6956607404491804
   142   1      17.991202338736418       2.721985231353667      36.076597319766748
   143   1      19.273477713883899      3.6940080131113362      1.9909661291181817
   144   1      18.129128880280145      5.0915076763130589     0.20767178631584798
   145   1      19.306892700340228      6.4411634094881283      1.7408430187245028
   146   1      18.067892681144031      7.8074232661875005      36.075815199316217
   147   1      19.233224984987185      8.9319990685622805      1.8254215042390816
   148   1      17.826746621321565      10.172567462141117       35.92693583036511
   149   1      19.067991447759862       11.58785966639765      1.7725481570485291
   150   1      17.720896389884913      12.633810567660458      35.980102428464257
   151   1      19.066019740412045      14.097011664382617      1.6930622862805882
   152   1      17.742697728019429      15.228223463731785      35.969625219746952
   153   1      19.153229370883832      16.640804580087362      2.0052896867753471
   154   1      17.821128463404733      17.772120866794101    0.042721940170793074
   155   1      18.863114805190811       19.29158719740812      1.8495272918814167
   156   1      17.707789541233332      20.246320884614029     0.11346190462053286
   157   1      19.131036702164234      21.723120307164326       1.880217705470308
   158   1      17.877520563662546      22.825085239287422    0.043961530938179297
   159   1      19.150040894684093      24.189205804170847      1.7401821509221929
   160   1        20.4663400981396      25.432636263982022      36.048866750747564
   161   1      21.577474709708916      1.1294918528270097      1.8507274817951846
   162   1      20.567746543964063      2.5598454141618072      36.093001494048181
   163   1      21.939006928223652      3.7502799871177372      1.7942621604959865
   164   1      20.614398683489405      5.0504313663621723     0.18559721134911342
   165   1      21.826241894450998      6.3920167276755242      1.8657186222433091
   166   1      20.646889068127468      7.4015146836936632      36.055262583874345
   167   1      21.765113408447871      9.1236857633334587      1.7086922494635601
   168   1      20.456466605423689        10.1851581597766      36.043528126451825
   169   1      21.528810263744013      11.557041030161763      1.7031207095814682
   170   1      20.339931555641527      12.755289218648807    0.040328051014398507
   171   1      21.685441476629773      13.936274321123054      1.7398232873958583
   172   1      20.273596438664921      15.303114924076986      36.050312558027223
   173   1      21.619628189448882      16.478933085822451       1.715087732909149
   174   1      20.296434018892423      17.679613133726807      35.948040097093362
   175   1      21.667310610882804      19.122532188590135      1.8005172053538236
   176   1      20.236576070692429      20.334371304952107        36.0528179955108
   177   1      21.733379139210793      21.613755846805105       1.831081255651918
   178   1      20.479617624054921      22.855298715162043    0.039285759829363123
   179   1      21.967675748182806      24.133582523535392      1.7513393163995259
   180   1      23.082014595449451   0.0095061952815165239    0.055480396519829035
   181   1      24.078414241664078      1.2741772109469776      1.9375359449306768
   182   1       23.00418783049021      2.3925480483846369    0.024798399592225462
   183   1      24.395809294266662      3.8123544487140806      1.8207120726248496
   184   1      22.995965113282448      5.0438582569251826     0.13088485587260262
   185   1      24.259342857214484      6.5257167363968547      1.8706989598637631
   186   1      23.080469316655122      7.7663073183650484     0.14350587620198221
   187   1      24.299719094462922       9.012357370075005      1.7247228043930007
   188   1      23.180505964588903      10.385975465180616    0.011801198992611714
   189   1      24.152821157391791      11.485419337076303      1.8323466421985257
   190   1       22.96830985269742      12.751916774589745      35.998147621881337
   191   1      24.177589098404468      13.907900531910446      1.7026247712984273
   192   1      22.983505934019373      15.355328868674135    0.023440766565818193
   193   1      24.137933681676948      16.540985995015838      1.8543713179385355
   194   1      22.867243761217612      17.866934171176659    0.063300136511736424
   195   1      24.168375934773618       19.09135155512125      1.7053313715467784
   196   1      22.824770468354384      20.506343886348731      36.016114277277218
   197   1       24.13250377522094        21.5745876832158      1.5414294501587265
   198   1      22.851422054787388      23.105397690712678      35.878896902969771
   199   1      24.274231777262592      24.329961306933779      1.8138399080889926
   200   1      25.519165081868664      25.448278252807874      3.6970490791209047
   201   1      1.3019764059389392      1.2982277157543332      5.5037443131445967
   202   1      25.506595596637883      2.2882659382040957      3.7153597046810365
   203   1      1.2113492912302384      3.7007069171334921      5.2678503951934355
   204   1    0.022255450631672839      5.0522024777394963       3.631597944012928
   205   1      1.3419172409201581      6.4667392954291056      5.3858862350776349
   206   1     0.02268128568159531      7.5342725745825794      3.6110758953092126
   207   1      1.2440359645132397      9.0616682824991344      5.4931424584334252
   208   1    0.067181033711290042      10.346035053415823      3.5918633293939477
   209   1      1.0775702560606162      11.571235570447556      5.3777687818379238
   210   1   0.0099319017832838249      12.738358845410394      3.5380115721820959
   211   1      1.2740907347611463      14.213643858445662      5.1992361290645093
   212   1      25.462743649091696      15.273841316181237      3.4900355956465892
   213   1      1.2926122966419562      16.630414593344486      5.3823797261010426
   214   1    0.034493967565532468      17.835578850185147      3.4163659841178502
   215   1      1.1314382298866974      19.238587562446281       5.344321813947353
   216   1      25.333723398908337      20.417902241387555      3.6227713080068473
   217   1      1.1376951329724017      21.760233535810219      5.4322500890542935
   218   1      25.518196822208353      22.815182974272787      3.4718641919947788
   219   1      1.2151008084752064       24.34943925855012      5.4994717899811763
   220   1      2.5043724449449831       25.50967485339461      3.7046156723334822
   221   1      3.9202279525700616      1.3242662220283199      5.6507752015321833
   222   1      2.6631556761016699      2.5729979624893726      3.7645134123823891
   223   1      3.7553620226443205      3.8703716552971756      5.4930982947490259
   224   1      2.5659370809155178       5.058391551902627      3.6331757307293495
   225   1      3.9339340603678692      6.3506806703351089      5.5654322947982546
   226   1      2.5042875723752931      7.7170939220457218      3.6150612166941074
   227   1      4.0128704421280554      8.9017531261698952      5.4715228115738421
   228   1      2.5444159623931899      10.280437519071771      3.6386884799412256
   229   1      3.8892650216339972      11.536483678548034      5.5614967526158585
   230   1      2.5431478658297948      12.586085933309851      3.4932063794705637
   231   1       3.774332871945012      14.146944589107024      5.3075687020027793
   232   1      2.4355402765437972      15.247784640659845      3.4476330466921135
   233   1      3.7357489546353122       16.65961315357681       5.274363237779661
   234   1      2.3376847531575873      17.880475484598986        3.48025295350359
   235   1      3.7326349656147881      19.339094407645963      5.2977753197759831
   236   1       2.330880231020688      20.599301957165945      3.4644296770373777
   237   1       3.760544161472517      21.842990212157222      5.2841533492850132
   238   1      2.3776085898676644      23.005291334534949      3.6936211441768756
   239   1      3.7742775266180231      24.533801850496658      5.3668218109391432
   240   1      5.0358755464166993    0.081196475538385271      3.5682340184128072
   241   1      6.3804651673054966       1.334769723454722      5.5032615742092572
   242   1      5.0069921969807627       2.689930683244131      3.6962764238847954
   243   1      6.2601743936040837      3.9347804095191035      5.5031491033041338
   244   1      4.9940195309920297      5.0497432513008675      3.5503928443254269
   245   1      6.4188869407339224      6.2802648906455145      5.2593671019791444
   246   1      5.1886295287582884      7.6201332078995092      3.7370474299703722
   247   1      6.5018690096632854      8.8488041365122143      5.2965702192922492
   248   1      5.1650144131263183      10.324331411695962      3.5662755587350712
   249   1      6.3017493265433879      11.476733556047071      5.3591107213135363
   250   1      5.0302346740937844      12.870823345025476       3.723772083302106
   251   1      6.4295044747816643      14.140903349592595       5.327120403458542
   252   1      5.1880254383215174      15.370426073173771      3.5588174103187957
   253   1      6.3035631417643918       16.57164751613271      5.3255614047055397
   254   1       5.148790487734324      18.023372719544092      3.4787389471091736
   255   1      6.3537251322142465      19.116365554115028      5.3761650936453913
   256   1       4.986853378723521      20.413364917821479      3.5370849034160972
   257   1      6.4664729857698751      21.648545273878927      5.3470183810545917
   258   1      5.0067202551573748      22.904381364605428      3.4181863775757506
   259   1      6.5214208313159849      24.196652011950029      5.4478704398971836
   260   1      7.5344861037396784      25.401339366028274      3.7175728387601854
   261   1         8.8331673816978      1.3051920839481399      5.3710790307332301
   262   1      7.5928568045014497      2.3139325308028789      3.5396608117684094
   263   1      8.7847451964013867      3.7443048360369682      5.4161900759293582
   264   1      7.7391978491726734      5.0153972191176388      3.6958507163378482
   265   1      8.9383136383944279      6.3897196455825176      5.3914697797695901
   266   1      7.7064356303998416       7.661542342292174      3.5499842937869062
   267   1      8.9274733858485078      9.0427171396650881      5.4497768816872307
   268   1      7.6039052904990392      10.377874879417416      3.5460725369230901
   269   1      9.0996539492499799      11.632617139034359      5.3647614094444496
   270   1      7.5706819928749445      12.791518582986525      3.4952741400013236
   271   1      9.1748500917833713      14.279672603171415       4.983858683702401
   272   1      7.4545148857213821      15.346394031554954      3.5599822631264271
   273   1      8.8516551193155379      16.745001623433197      5.2614843799326909
   274   1      7.6342655616862478      17.889926295497929      3.4754947932325644
   275   1      8.7528164396953692      19.285508557669711      5.4756872830763106
   276   1      7.5843509280291324      20.339026686015593      3.5519015826093101
   277   1      8.8245177721539374      21.760832157225924      5.3034050001493878
   278   1      7.6109167423172623      23.057513116052679      3.5857790693715956
   279   1      8.9915924566714889      24.304745419003456      5.5295006471006376
   280   1      10.336605507872243     0.23301992208645589       3.600739362720573
   281   1      11.252928582311879      1.4272679966857504      5.5414249889623939
   282   1      10.169733229262322      2.6546991400113185      3.7937734803846648
   283   1      11.316731598339148      3.9891016193626672      5.6511194734582286
   284   1      10.093072198586608      5.1239198812701288      3.6416297138772644
   285   1      11.320131361524524      6.5143214459406238      5.6402559101486958
   286   1      10.206439295046671      7.5502762180607537      3.7063043708873957
   287   1       11.46836011656376      8.9748782107250307       5.465884000311739
   288   1      10.127664505456437      10.327201459335333      3.6801755259230124
   289   1      11.583103803230777      11.506408538923619      5.2798636614384975
   290   1      10.199886212764707      12.652923820642584      3.3727677121751647
   291   1      11.603859919594871       14.09085302163126      5.2367497092094428
   292   1      10.418745075760116      15.389767033179639      3.4901365365035653
   293   1      11.474142110728996       16.66527921973908       5.368711068904612
   294   1      10.213197218277333      17.969542118060986      3.7606804758542958
   295   1      11.447227854402234      19.437529534155225      5.3746207095453808
   296   1      10.193570596173815      20.556665448754142      3.6501093150560386
   297   1      11.564058783577432       21.98719977416166      5.2908589929880412
   298   1       9.979205636510887      23.197012650879635      3.5357725839511871
   299   1      11.291903563799998      24.376335059705792      5.3822087946837236
   300   1      12.700382322062604     0.18488395889692141      3.5842444383533585
   301   1      14.007694218330805      1.3396680982547955      5.3124110660615429
   302   1      12.770478131387458       2.694721083446717      3.5836042989838459
   303   1      13.851922105063549      3.7093387945687861      5.3830969372402713
   304   1      12.948454387584441      5.1818694330760584      3.6050742750533122
   305   1       13.96623099454596      6.3733492835852719      5.4291707803988531
   306   1      12.681879845371819      7.5404498882471085      3.6355112838384156
   307   1      14.032317649890937       8.772600919377556      5.4342876652151384
   308   1      12.788815731418946      10.246454112478515      3.6634277700776567
   309   1      13.817427488623677      11.335708909073068      5.4645161185848377
   310   1      12.639003687002857      12.809291395676563      3.3966027147876852
   311   1      13.973460357412012      13.881517773460622      5.4961292482490292
   312   1      12.762407120320734      15.266651071807157      3.6084231882408404
   313   1      13.928316534443569      16.367463344635873      5.4301654073322903
   314   1      12.812026626112806      17.644419369996275      3.5525347137567014
   315   1      13.829829888885671      19.103904921398012      5.3133440080555125
   316   1      12.658000357374044      20.297457628455874      3.5943370731138637
   317   1      14.108456008745984      21.635480746757537      5.4897432972491185
   318   1      12.660442168792214      22.935692846576575      3.3823580047461639
   319   1      13.858388019702808      24.321612702380516      5.1699423866111252
   320   1      15.171615815910284      25.375275121465748      3.5012081252872473
   321   1      16.535735443684672      1.2732362448213059      5.1999603260913769
   322   1      15.280286974866176      2.3673423843176074      3.3546330230458028
   323   1      16.680945868367584      3.7303860086304388      5.3355126315813672
   324   1      15.225632263975809      4.8313035519536323      3.5495266400929397
   325   1      16.611458199841564      6.2915834220773572      5.1824934332643879
   326   1      15.286924838994462      7.6899864996482252      3.7302336745963154
   327   1      16.617933651342867      8.9088408995365249      5.3673450214289984
   328   1      15.188960718864168      10.144594372501681       3.453323337331323
   329   1      16.495346892162885      11.347234907384511      5.2466571271054985
   330   1      15.200177096379614      12.796680496932201      3.7597318805388942
   331   1      16.521542902983509       14.00090985848898       5.402388604843388
   332   1      15.198199849857005      15.272406100183096      3.5233129860196644
   333   1      16.665969156852764      16.510183045691885      5.4294943987343443
   334   1      15.184538503223852      17.816351764273826      3.8691558975797533
   335   1      16.563205951654023      19.052528140416896       5.277055159252626
   336   1      15.147568850961731      20.206717698384111      3.7996627609884905
   337   1      16.687292849336245      21.690697396844403      5.4402596972003572
   338   1      15.349329864582845      22.914856048150529      3.6037278826214552
   339   1      16.697946723477791      24.241973247176094      5.4228233157493726
   340   1      17.738632006660499    0.021586639561368876      3.4397340779742085
   341   1      19.007031427497004      1.1314365932016062      5.3793728781416057
   342   1      17.940322201916747      2.3947383032425598      3.5994989402953039
   343   1      19.149352117364248      3.8438538800037567         5.4545388116227
   344   1      18.082712930749782      5.0293095379019617      3.4419671822546332
   345   1      19.223129954813597       6.378704235930531      5.3062526554533749
   346   1      17.923232757446105      7.7348870090890598      3.5418176051906252
   347   1      19.098825610411755      8.8472875938053654      5.4103478938071214
   348   1      17.979195223219154      10.249545475233358      3.4671448598673589
   349   1      19.011101109031486      11.426459988530414      5.2710775107725514
   350   1      17.690557159237123      12.654223207201683      3.5470834501525119
   351   1      19.181222125879994       13.96943132960487      5.3509820421555228
   352   1      17.793895128558002      15.277810404796716      3.5785975408875852
   353   1      19.137634779558304      16.542066691519782      5.4212570893898464
   354   1        17.8674748378651      17.780850547290143      3.6299112168199064
   355   1      19.167310138690244      19.130795955476469      5.4344628467838305
   356   1      17.766839665321619      20.325407974718193      3.6708372780751697
   357   1      19.333636036665553      21.466982826261521      5.4228696808292423
   358   1      17.860550086021139      22.893416356695742      3.6444689331650255
   359   1      19.065521692700827      24.200958370954186      5.4998177790768965