dump/Cu_560_5/steps_41 (written by ASE) 

1995 	 atoms 
1  atom types
0.0      25.526554800834361  xlo xhi
0.0              25.5265548  ylo yhi
0.0      36.100000000000001  zlo zhi


Atoms 

     1   1       25.42311100296525      25.397812107373234    0.026834854941182592
     2   1      1.2613870159847429      1.3907846381495659      1.8981074202797694
     3   1    0.013805128223812331      2.4354504652113458      36.084585509979789
     4   1      1.1420422880149246      3.8306139862084914      1.9938457184005431
     5   1      25.461281242392452      4.8662345418569561    0.015963789280624498
     6   1      1.1469002910658215      6.4251892864763969      1.7421852408460499
     7   1      25.440294820315064      7.6199679260119035      36.006743943026969
     8   1      1.2823674780344658      8.9977710207923476      1.8131543345673675
     9   1      25.441476924646288      10.113303741245078      0.1194986566957482
    10   1      1.3524147386204268      11.467778866451869      1.6998904497608922
    11   1      25.487788113047049      12.866895093213067     0.08705422005292561
    12   1      1.2657700578466646      13.978239394220394       1.652621297745996
    13   1      25.454775641075241      15.462526991065165      36.064177416148041
    14   1      1.2504656183074523      16.655663807879787      1.8842728988892885
    15   1    0.072712250605163078      17.905697612806307     0.12381959859525279
    16   1     0.99723006903708922       19.39036273360669      1.8823902041882103
    17   1       1.252114509220656      21.818234266316932       1.960482410283533
    18   1      25.409396570738632      22.875970110198139     0.22951115250450591
    19   1      1.3582358286938065      24.248731201110029      1.9205894310636158
    20   1      2.3444386430581976     0.15226795959501371      35.957691430254776
    21   1      3.7886525910398174      1.2927910922377517      1.8204576323620483
    22   1      2.3678669226438487      2.6884317928803179    0.052522135326330606
    23   1      3.8571315643419455      3.9535976982382293      1.6922531708897277
    24   1      2.3034735804860014      5.0017753492559072   0.0046586193946723158
    25   1      3.7618587751425658      6.3519249688847177      1.7309440415438537
    26   1      2.4688574557081844      7.6843900666285236     0.11113462627777163
    27   1      3.7163391703990212      8.9378268970290886      1.7493281376166456
    28   1       2.362612527586132      10.396159004359889   0.0021268893866022162
    29   1      3.7580460106735596      11.576492212935456      1.6107224291088413
    30   1      2.5242832338264436      12.767466451084536      36.012972554017331
    31   1      3.8761217837630153      14.063155631878681      1.7587167592805277
    32   1      2.6407098770898871      15.324929428094492    0.067794700083266005
    33   1      3.7362798773196944      16.795365708879739      1.8090228590516726
    34   1       2.450431859021744      17.862475272181506    0.088879042666394723
    35   1       3.720153043758136      19.204859988698562      1.7620208888642186
    36   1      2.2822954883815938      20.393645057884143     0.16470184069665961
    37   1      3.6845392645313053      21.668472914388246      1.7915327918129369
    38   1      2.5009653427640837      23.030707805837967     0.13615675333194305
    39   1      3.7872315385050888      24.372851965664747      1.8144286378263828
    40   1      5.0653316037013534    0.055476919430320536      36.052596451400632
    41   1       6.247805070784314      1.2962818727550889      1.7263967897217645
    42   1      4.9665914282644748       2.563468972136814      36.017552280600015
    43   1      6.2330152311530265      3.9233188851212399      1.5991377105798164
    44   1      4.9373057112943064      5.2735528919053163      35.839409454224516
    45   1      6.3931186605539585      6.4193909323656326      1.6316866661690377
    46   1      5.2895423697161812      7.7018255502797954      35.970539067012858
    47   1       6.218293561258859      8.9169144233197954      1.9085238154636508
    48   1      5.0408897374595476      10.280651456031695    0.064757659824818001
    49   1      6.2306178874894256      11.555343751581256      1.7957913050535337
    50   1      5.1519231191497266      13.003883973325747     0.07075572028735444
    51   1      6.3059854513708178      14.087849747328468      1.8732149699778808
    52   1       5.228741858900726      15.563954736240682    0.076756684754047941
    53   1      6.4440634008920066       16.61051261328101      1.9200355480094471
    54   1      5.2340616560554363      18.063101025073454       36.04875467328354
    55   1      6.3699485726155354      19.431789645251659      1.6091010306677049
    56   1      4.9416898799403191      20.422420955287887    0.068895872983762249
    57   1      6.5119317793373117      21.948656791774013        1.90549298078539
    58   1      5.1256693223747209      23.179022650284928      36.095603642523905
    59   1      6.3494120698235497      24.358257374346351      1.7748629545310697
    60   1      7.5263922383627087    0.055106948117922418      35.899237714422533
    61   1      8.8662090770229955      1.1115506133565036      1.6898324855071212
    62   1      7.7410652811796457      2.6398028228230186      36.047178603564426
    63   1      8.8554198724760607      3.8425926601449283       1.737199900071323
    64   1      7.6085267835390358      5.2306000721726083      35.957217421385813
    65   1      8.8708008969089498      6.3535406205411569        1.66886011696688
    66   1      7.7205140064316877       7.483256733362567      36.038222696030026
    67   1      8.9763308387171712      8.8554203517766368      1.7422168866430985
    68   1        7.79770162589816      9.9163142609079209      35.959026589038267
    69   1      8.9262950046141629       11.40713474988074      1.6151090798404324
    70   1      7.5080500021444241      12.714122975980466    0.098369320662311507
    71   1      8.8435459193769947      13.958223763553789      1.8668426955744042
    72   1      7.7118846141436315       15.24327206723272      36.027007805481972
    73   1      8.9261714079390551      16.623739767704418      1.8752392976239769
    74   1      7.7623676877945149      17.831265297658579      36.092796659858656
    75   1      8.9066760606319821      19.002144560732926      1.7221827591153094
    76   1      7.6472786009159943      20.495091244140493      35.904621051996386
    77   1      8.9646008161295168      21.588894177253962      1.6653321485894605
    78   1      7.4273840809094622       23.08874499674517      35.965725397562203
    79   1      8.7931412688634456       24.22089602742513      1.5831987982618669
    80   1      10.063677113816613    0.054095070016479355      36.041696357352087
    81   1      11.300378608228996      1.4980590847968525      1.6514365060882705
    82   1      10.017491229130785       2.689434819951448      35.951095951952844
    83   1      11.537411955950882      3.8337139534485321      1.8449078730687454
    84   1      10.151481527904362      5.0133877016076056      36.031934779075712
    85   1      11.359761921814545      6.2975931172850661      1.8992810723980702
    86   1      10.115150323973753      7.5830547387926961      35.978857432413122
    87   1      11.511177977941864      8.8367563565498237       1.858376983658081
    88   1      10.275552012397297      9.9643130850114332     0.10751767506653767
    89   1      11.578420322544897       11.40289110626825       1.771333693207815
    90   1      9.9780916403675874      12.920166108457749      35.983146046437589
    91   1       11.28704497481988      14.043757723831218      1.8003432561216772
    92   1      10.307258650945904      15.345401079139092     0.23180291072723086
    93   1      11.494585428787937      16.529472208866768      1.8213504694818785
    94   1      10.270266642524971       17.79547426246862      35.931097581107167
    95   1      11.588112739466167      19.036194558719995       1.806309231649017
    96   1      10.270515327502876      20.343791545623422    0.042958783100937127
    97   1      11.378879306636835      21.634076458871597       1.745002289620607
    98   1      10.133746942586859      23.031267366500778      35.932574728383671
    99   1      11.368787179564514      24.484640192613561      1.8212078468015538
   100   1      12.615057349521875      25.515486783465246     0.08910646917775028
   101   1      13.818443841982614       1.147186921522261      1.9291874954420001
   102   1       12.68890888437369      2.4404593279728846      36.031966780804488
   103   1      14.058759268059939      3.7315657375690225      1.8914710925757288
   104   1      12.730533779266674      4.9832821774595581     0.12362479394550985
   105   1      14.008656487270105      6.5971148750041264      1.9408590761779903
   106   1      12.701802483835626       7.622456705585174      36.024202231725809
   107   1       13.82949231566109      8.9010782622743463      1.6917861115666353
   108   1      12.694405810856679      10.194802740875044      35.819993617014454
   109   1      13.971644328604192      11.229900098494577      1.6848379988555409
   110   1      12.706573289747539      12.623235982414382    0.013143602794230005
   111   1      14.038388692280503      13.724750493641439      1.7233186871941273
   112   1      12.757414059220293       15.10310700124616     0.10336338276990766
   113   1      14.106622623631562      16.693118109555986       1.822101958764051
   114   1      12.726877415198144      17.561492008216277      36.052486390573897
   115   1      13.829516447736603      19.256679858260675      1.8109632822791246
   116   1      12.752598210013856      20.486488066369279      35.921804908446617
   117   1      13.769339494487424       21.67549055936291      1.7191361223421837
   118   1      12.664034764324091        22.9563705561295   0.0073964806565527301
   119   1      14.042952733697742      24.051894302352899      1.8106088553696049
   120   1      15.302228145603097    0.028991452279132732      36.089894600338972
   121   1      16.431122778724706      1.1764955280701277      1.8526684863635641
   122   1      15.234761542967464      2.4736547874033374    0.068107880983268324
   123   1      16.626848505217769      3.9109276527282479      1.7443205440662155
   124   1      15.195540002992416      5.0902278704284427     0.21512616868747059
   125   1      16.509222952206574      6.3319383614646716      1.8581338767464788
   126   1      15.179494185302786      7.7722062004761963     0.12178069572829589
   127   1      16.544028722473819      8.8845524636535078       1.812742284467173
   128   1      15.247052187503128      10.242130791229043      35.995206890842617
   129   1      16.598268721671467      11.427447446184205      1.8683246647929757
   130   1      15.390739556860835      12.721291718092917      36.007815775734969
   131   1      16.492781567102583      14.198989399486345      1.7617370526281209
   132   1      15.352118095812909      15.237262266077582      35.983735512738932
   133   1       16.52223027755042      16.711093043449683      1.8813526422173246
   134   1      15.224316371791778      17.794445663472359      35.985756303779795
   135   1      16.441063153255367      19.171907510377942      1.7235495692425262
   136   1      15.148609091313654      20.471846010865658    0.048495506148890297
   137   1      16.588498987621286      21.800819932472454      1.8372810994409412
   138   1      15.195539762643135      23.007786270115993      36.074559375329059
   139   1      16.479328908919307      24.329557977421953      1.8152391628999445
   140   1      17.736420674662643      25.393883326466465     0.03294236868282497
   141   1      18.936684653986614      1.3026978331337771      1.7767948081458269
   142   1      17.788935250954587      2.4921223418258278      35.867632205089777
   143   1      19.155686780774477      3.5984582318282374      1.6886956507639883
   144   1      17.763497897832202      5.1488125404536715    0.005050634933172652
   145   1      19.187034281817503      6.2589571509850712      1.9544062704180316
   146   1      17.829837116545562      7.5791390538436607    0.026895362600521357
   147   1      19.038765322487865      8.9525888243929455      1.7549539217511883
   148   1      17.734470107893145      10.388527673253495      0.1356021206197055
   149   1      19.084799871593276      11.488710591173383      1.6695020727348961
   150   1      17.932559410507015      12.822023210656177      36.019120623086266
   151   1      18.965484027200961      14.167998711876848      1.7584848051153252
   152   1      17.775117413203411      15.096394261887669      35.933656815960624
   153   1       19.13230108646696      16.778479808805304      1.3850333806449628
   154   1      17.654003236416585      17.830411875769585      36.079769887408865
   155   1      18.957940574949959      19.002287151825382      1.7796741065422588
   156   1      17.775837138894556      20.282917645890702      36.094768641599323
   157   1      19.140117956805714      21.762078786993381      1.9306883000796222
   158   1      17.763908685769838      22.781015530406378     0.16171468187368432
   159   1      19.195944968889187      24.349594066477223      1.8627521889310177
   160   1      20.421844833786153     0.10731444789693417    0.022724253840942763
   161   1      21.465829447981911      1.3013534532038182      1.8862623737165456
   162   1      20.333011618952778      2.5035402752749283      36.051332152047216
   163   1      21.460722961531228      3.8580313759979847      1.9971953794813782
   164   1      20.339384932974443      4.9615555815037373    0.061580872120498585
   165   1      21.861993082066753      6.3802042760654301      1.8425740363578029
   166   1       20.28574793997327      7.4082105720272695     0.15683826558596362
   167   1      21.707047563369905      8.9261311342768828      1.7913538116048584
   168   1      20.373280086049078      10.087071420103484    0.050335407440741067
   169   1       21.73445642650475      11.359861255460055      1.6848735856096606
   170   1      20.338689234801457      12.729962192080549      36.010897840470683
   171   1      21.674498135851685      13.880186299972571      1.8180753488799606
   172   1      20.487390990830963      15.270528389705319    0.012930880889427959
   173   1      21.743509685306485      16.449390512460553      1.8487707841120709
   174   1       20.45406704546858      17.974859736284788       36.04532824919432
   175   1      21.679274144084864       19.15346623463887      1.9102387085424306
   176   1      20.215629359411793      20.386550204719988     0.12996629542724344
   177   1      21.684455651627957      21.918973780460078      1.7582813707361102
   178   1      20.296576833226677      23.125242235149411     0.15139099353413041
   179   1      21.553067601836627      24.388106824574059      1.9372857587345491
   180   1      23.048547866682703      25.525900618630189     0.19345378232126223
   181   1      24.057967460600143      1.2653514370273216      1.8373990903946733
   182   1      22.869947824073769      2.5839108258261549     0.13322670197087513
   183   1      24.159966766102784      3.8055826616667643      1.7464034701467315
   184   1      23.046574037191103      5.1008393099853766      36.096061969506941
   185   1      24.358652316765365      6.1978647939344924      1.8183171368134585
   186   1      22.769127589897419      7.5870987407074528      35.998787906225942
   187   1      24.161364339249619      8.8787488864545345      1.7698788830379601
   188   1      22.879519402191836      10.063202903678654      35.991225315232263
   189   1      24.097509998456424      11.537533907025249      1.7561659022246325
   190   1      22.943759031499035      12.774088268959323      35.975334227713994
   191   1      24.130131696696942       14.08406778738293      1.7534764287375322
   192   1      23.053937486117103      15.136010497513693      35.923825373250928
   193   1      24.248860104008255      16.530768218785372      1.7559704835653647
   194   1      23.119250834381035      17.657083140499228     0.16977156166543625
   195   1      24.070234028573303      19.105332448122287      1.6973244598033153
   196   1      22.975081478896872      20.563660063523443     0.14896639524594107
   197   1      24.274806415120189      21.629324923421485      2.0454141398131016
   198   1      22.896204201003087      23.126701209870649      36.053006431651895
   199   1      24.069891027124466      24.009885390798186      1.9984054160502971
   200   1      25.465278067252214      25.464945041811799      3.6057656119840544
   201   1      1.1891379528453612      1.2923650477481006      5.2561800420537752
   202   1      25.411957058250191      2.5152285294600172      3.5729919729455566
   203   1      1.3359562797372775      3.7975394978907562      5.2496578618514764
   204   1     0.16788184616761564       5.147635899835695      3.5721241513426429
   205   1      1.2537495592343109      6.4005716015204897      5.4907412865976735
   206   1     0.17585173073021548      7.6643229110659696      3.6665026162851344
   207   1      1.4027599477582273      9.1711747497221729      5.3610086788971083
   208   1    0.021909457627629237       10.22490001737774      3.4803838552666213
   209   1      1.3351924425973991      11.576378742780747       5.179429862306475
   210   1      25.453062606327162      12.750810758469235      3.2748526758229337
   211   1      1.2863272107617356      14.090493781530103      5.2700739874994413
   212   1    0.026243960864238254      15.414126840891701      3.4897251738679875
   213   1      1.3662495220578936      16.552124267462236      5.4383856007872851
   214   1      25.418511526428645      17.907676366531774      3.5985463873437751
   215   1      1.2468537014529102      19.096842478426069      5.3521553749054602
   216   1       25.43843769472841      20.448709956709155       3.707246613893012
   217   1      1.2717852487539991      21.566030163558082      5.6636765070911519
   218   1     0.13423099812781875      23.040306080055981      3.7464485102297571
   219   1      1.1551692194101599      24.211360948362955      5.6828265027603653
   220   1      2.4772055479889854      25.521330240095235      3.7699935812907288
   221   1      3.7809358857180118      1.3993651229084632      5.5730027632038874
   222   1       2.574720019657438      2.4522096875741775       3.584159822428306
   223   1      3.8537893486131902       3.831396892760015      5.4160511009931716
   224   1      2.4675473195620938      4.9653152699137486       3.703979758958639
   225   1      3.6833417740780838      6.5235639145181459      5.3236082168730423
   226   1      2.6174709052877594      7.6804093686203645      3.5971465735838377
   227   1      3.9272065204362026      9.0763135417894691      5.3613497048370702
   228   1      2.4913064923356893      10.285599608529512       3.428627463457961
   229   1      3.7661612445545436      11.534441583479728      5.4502052007025457
   230   1       2.463810916443153      12.797388434804947      3.5196358763665234
   231   1      3.9379287362313389      14.240853445921136      5.4726200520004067
   232   1      2.4340343948218739      15.414586890089975      3.4428580943446705
   233   1      3.9931011696464718      17.051511167530116      5.2868084133801947
   234   1      2.4625020358095302      18.026879060621763      3.5260485888350885
   235   1      3.8666490871912873      19.501052463713521       5.439764034946446
   236   1      2.5363918983403364       20.42829559250697      3.6332802082285043
   237   1      4.0089461527953185      21.847142414656634      5.5419013201826788
   238   1      2.6840245430990639      22.928313804779272      3.7725722879954739
   239   1      3.8280056449910767      24.415531868183258      5.3946301033064614
   240   1      5.1026726015714834     0.22591318876412897      3.6653221745451892
   241   1      6.4760653752392807      1.3212353454160413      5.5958085151711261
   242   1      4.9299599798474745      2.8197070723002171      3.5279364751792071
   243   1      6.2166450698279432      3.7802874570340483      5.3612913505675701
   244   1      5.0032164993559691       5.277472853180309       3.640937601584505
   245   1      6.4059770269027076      6.3824469319634307      5.2801830316418332
   246   1      5.0048567175165468      7.5565467334236347      3.4478366884635538
   247   1      6.2423240583379984      8.8253020595846188      5.3640445969770134
   248   1      5.0060003026984532      10.266877002285726      3.4694585547807142
   249   1       6.365196476129678      11.326188319616444      5.3246011369339694
   250   1      4.9965326448371448      12.899734236468614      3.5731978092462793
   251   1      6.4348029057685245      13.915652908967187      5.2354928085766188
   252   1      4.9408319920164754      15.425693027404686      3.5725559734163324
   253   1      6.3239805663935327      16.711397521491897      5.4750155815183943
   254   1      5.1726957702692946      18.033971457020307      3.4994932682013782
   255   1      6.3587952939867458      19.216765652642948       5.485173452754271
   256   1      5.2143501147552707      20.606472788710427      3.4732653896760208
   257   1      6.4789447255351007      21.639268229652593      5.4052505326625058
   258   1      5.0797628816194997      23.077704353153361      3.5756256908349671
   259   1      6.1999831392450977      24.241752556093548      5.5421534256300102
   260   1      7.5435760490363881      25.324926173229464      3.7325434003984896
   261   1      8.8512489554922418      1.3461840462317274      5.2353440383275132
   262   1      7.6228598181986005       2.548002378896328      3.4158876176851436
   263   1      8.8876698658948801      3.8059661571827186      5.2487374561394224
   264   1      7.7319181098526366      5.1153602606853852      3.3977255309196166
   265   1      8.9642534081346792      6.3444443342845736      5.3813812717626099
   266   1      7.6240040152829369      7.6359575735639087      3.5008978169458276
   267   1      8.8387369901734072      8.8089989124249861      5.5043031405865266
   268   1      7.7517529066300472      10.233463364416989      3.5439261706392013
   269   1      8.9586320073784744      11.496949544821851       5.387068927843802
   270   1      7.6931057528834526      12.709574415149479      3.5225898498849118
   271   1      9.1707260637553283      14.210196054815528      5.5606646899461403
   272   1      7.7630407672588531      15.443368885289587      3.8074051518641649
   273   1      8.7973021272982876      16.625504033228733      5.6824159117110291
   274   1      7.6677809186089698      18.163640818322417      3.5536154360469947
   275   1      8.9789718857689866      19.228700027935002      5.4987158045851379
   276   1      7.7304878931784895      20.669812408689111      3.4305119972778138
   277   1      9.1123397418997474      21.615340725219262      5.4619770377612076
   278   1      7.5210163402031425      23.006731578172285      3.7321647589723339
   279   1      9.0271911147726183      24.199793070643654      5.4325556698806379
   280   1      10.056633137825914    0.049497041038896898      3.4671211126963262
   281   1      11.483902390204291      1.2884986763050144      5.2765412541370651
   282   1      10.062659709625624      2.5864018560017077      3.5881956363647975
   283   1      11.402374783317056      3.7623215182740379      5.3446708096208875
   284   1      10.147306812356302      5.2301399106337216      3.6025719231246849
   285   1      11.436140848532693      6.3547944103850931      5.3417512865845849
   286   1      10.035114458578652      7.7044903932354449      3.6130116323457568
   287   1       11.31123814221206       8.809728704329352       5.532016305227077
   288   1      10.303700963772281      10.234039499503155      3.5647037608944068
   289   1      11.582845383800059      11.683390182613989      5.3696656512284147
   290   1      10.325787594929043       12.66690772775925      3.6911662540489654
   291   1      11.615819614875313      14.121323331271398      5.3112287712735444
   292   1      10.120933750756764      15.319266265181481      3.7171460153796025
   293   1      11.481101190951163      16.753664632871757      5.3948877087374898
   294   1      10.080877015524884      17.861943143139321      3.5965462397891534
   295   1      11.386919627212718      19.346611636244585      5.2337344989556858
   296   1      10.163381483674474      20.420728454638205      3.5685558307085463
   297   1      11.382852811714718      21.919166637383899      5.4397298893000903
   298   1      10.197732466837893      22.999563557244151      3.4085565320533755
   299   1      11.390375121991529      24.417059692112122       5.344493424846851
   300   1      12.486884832431171    0.077252117702376596      3.6190710938100326
   301   1      14.038828092322051      1.3673768105601514      5.2144333945651766
   302   1      12.647951351109464      2.5240671511540924      3.3840717088809811
   303   1      13.921712745174702      3.7592661855336127      5.3625492286644265
   304   1      12.707152779851205      5.0359659666069012      3.4361275689017701
   305   1       13.86232339018852      6.2833490784306703      5.2912824746381215
   306   1      12.477615043203599      7.5862817601380677      3.7224613459329166
   307   1      13.934033929095232      8.8895778114732185      5.4507374594574811
   308   1      12.919900708753353      10.051360241553741      3.4943088951077703
   309   1      13.956202424341805      11.369198685836503      5.3525355827209768
   310   1      12.838559397907884      12.750159524577116      3.5663815926424132
   311   1      14.159559728675291      13.935040172478413      5.3618983352079903
   312   1      12.714918907087288      15.374352772232964      3.6560168851604038
   313   1      14.048622720730615      16.667617446715045       5.288505443049619
   314   1      12.846706958379301      17.880028794693324      3.6262497803314959
   315   1      14.093417252119218       19.13653022746265      5.3656323436913791
   316   1      12.650448382344594      20.515390629325108      3.5184652447881488
   317   1      14.111015151047599      21.623204120389602      5.2662262340890811
   318   1      12.753976569758827      22.893452049142731       3.333503293745685
   319   1      13.931720822885525      24.059963181957162      5.3374889889745694
   320   1      15.182969038326846      25.493740709529188      3.6674808013609757
   321   1      16.571802773293538      1.3478335780589297      5.3768696466234038
   322   1      15.294146552684067      2.5560301712549314      3.5040028759399564
   323   1      16.432057598338076       3.863043251757873      5.4657925241787417
   324   1      15.324271389615109      5.1504575701302606      3.6989255026419254
   325   1      16.298609900117899      6.3176510043916938      5.5051055691920796
   326   1      15.249036095161429      7.5960170940569531      3.6766380556138798
   327   1      16.767117764413499      9.0059255611788558      5.3963269856347829
   328   1      15.412021187340509      10.074861472294831      3.5986964317173591
   329   1      16.581039168754337      11.752313167025152      5.2727925837748826
   330   1      15.341188595043429      12.679835237494297      3.4278096621320513
   331   1      16.621203364355029      14.129501177750875      5.3386513678830587
   332   1      15.301828410413306      15.449163824203403      3.6868193974335592
   333   1      16.613452404723631      16.633879387578588      5.3493644912130014
   334   1      15.500431690721726      18.022862602157456      3.6539858650776726
   335   1      16.602281560603913      19.231286507303079      5.4947636503483039
   336   1      15.107730293828606      20.529887799893718      3.4794136673725138
   337   1      16.578935717505118      21.656737004907441      5.5009874935337235
   338   1      15.110255580139187       22.90786096554444      3.6006280984973031
   339   1      16.578736985391682      24.300222845117371      5.4614429728680403
   340   1      17.637539536647033      25.488307215092281       3.669623667943664
   341   1      18.964851648109324      1.4668706022826687      5.3626446610709726
   342   1      17.688663659306904      2.4291089316727996      3.5326016071485693
   343   1       18.96890365214017      3.8379992168733161      5.4985209652598783
   344   1      17.843783926927586      4.9318807058921221      3.5624844483754479
   345   1      18.918207753225751      6.3503373496161952      5.3632598077751865
   346   1        17.6366020211521      7.6529440060295029      3.6536757371563744
   347   1      19.243694049528717      8.8792095619086702      5.3402209063087058
   348   1      18.012483239079017      10.059565437079344      3.5693373463611922
   349   1      19.134494218902798      11.457954174989814      5.3444422014749691
   350   1      17.873780164318983      12.809250909961465      3.5178463947006198
   351   1      19.143247453502795      13.878147835466915      5.5547522353614918
   352   1      17.938276185507807      15.410269192220682      3.5108895615882822
   353   1      19.222779039781173      16.665070336646938       5.521806718850212
   354   1      17.994877345458104      17.830293335864273      3.6441780733041522
   355   1      19.039083944573132      18.953187047420776      5.5597518214001678
   356   1      17.718436881853197      20.166099974391457      3.5162780432284526
   357   1      19.096807240312952      21.509010290602131      5.3361899731546965
   358   1      17.882458746631453      23.011674964692741       3.405411524210467
   359   1      18.933728890922509      24.093141777384854      5.3534224028150348