dump/Fe_1050_0/steps_41 (written by ASE) 

2000 	 atoms 
1  atom types
0.0      28.699999999999999  xlo xhi
0.0      28.699999999999999  ylo yhi
0.0      28.699999999999999  zlo zhi


Atoms 

     1   1       28.67043807339191    0.033286827298127236     0.14737289347269783
     2   1      1.4572249859462316      1.6200497302450108      1.3224358803438681
     3   1     0.17120669186536089       3.020327134671108      28.635616013598355
     4   1      1.6246810593956418      4.2267005259799539      1.3711158245848978
     5   1     0.15891305850401727      5.6939944622673835      28.647394168755003
     6   1      1.6198776747749772      7.4169766193081124      1.3863571968160038
     7   1     0.10341423403752073      8.5079421900289134      28.619293308363655
     8   1      1.5121009947199826      9.9172746805504506      1.2702338902234729
     9   1    0.095065635495418577      11.469592334417642      28.592618032939601
    10   1      1.4945894521888807      12.833137980151927      1.3250026274767028
    11   1      28.645488452097879      14.395769578193697     0.10616115942451647
    12   1      1.4804169003080823      15.870108844483621      1.3365102935440176
    13   1    0.066766592355034557       17.30705366250681      28.586992319702023
    14   1      1.2509360222180015      18.676947498552707      1.2562025031116935
    15   1      28.650605815682173      20.000816395719784      28.588404561023427
    16   1      1.4550060678454781      21.410347225125712      1.3668640878064922
    17   1      28.696838202189387       23.02778989618939      28.557774985802908
    18   1      1.5251140908601084       24.25583052443497      1.5488239851031043
    19   1     0.10156096176717869      25.764525404851216   0.0084500096505053003
    20   1      1.6393875623135501      27.703755185122521      1.5399397473611538
    21   1      2.9869448884551488     0.26545655590831541    0.052068602907127184
    22   1      4.2667941932467466      1.5934960169517356      1.3466125260448858
    23   1      3.0403511652911948      3.0955724825060305      28.539747699906517
    24   1      4.4650143105743769       4.311598409472909      1.2834566501299498
    25   1      2.9922116704313773      5.6560089788299743     0.03119756955145473
    26   1      4.4880419408650214      7.1115254838580801      1.0573416977860111
    27   1      2.9451540145818695      8.6063056322080591      28.613518844039607
    28   1      4.2738452126018904      10.077863125104898      1.0996141584426586
    29   1      3.0118424627664142      11.519684738968607      28.538533061149028
    30   1      4.1917991834347221      12.721708246987633      1.5519918210577326
    31   1      2.9374472830909117      14.464349031222133    0.081691266277323454
    32   1      4.1788540785591897      16.023973485288479      1.2900131982053251
    33   1      2.8271248596695862      17.163674206221025      28.577050758122173
    34   1       4.361950865755353      18.791948212135242      1.4022416894912562
    35   1      2.8085303930864938      20.099939905795306    0.079434502239848756
    36   1      4.4191739380308412      21.574794079829619      1.2265322312649911
    37   1      2.8631868537826923      23.012789215111379      28.656353591414206
    38   1      4.2343447375019796      24.288141715907226      1.4833021728919558
    39   1      2.8310476322425902      25.804585507085559     0.22994127830461361
    40   1      4.2656164853474321      27.208708141012306      1.3274423608366641
    41   1      5.7694934535693818      28.633968546425709      28.699963329530544
    42   1      7.3256273522340267      1.3925403035108057      1.4367752554167386
    43   1      5.8286540980867469      2.7672735865467284    0.034495252577857995
    44   1      7.1477001032021317      4.1893204570735572      1.3327649687244389
    45   1      5.9763202295989259      5.7659831811009905      28.563361501916123
    46   1      7.0971493694381529      7.2486065347024091      1.4070735443935505
    47   1      5.6438203735022938      8.4809046474214007      28.393349424821853
    48   1      7.0450774862431604      9.9790809567032284      1.1838924949379581
    49   1       5.650537429449451        11.4641657407461      28.623751116806631
    50   1      7.3345297181640818      12.869466324653224      1.4460658838007259
    51   1      5.7281313342796807      14.302976614531163      28.683792412634705
    52   1      7.2199050964978539      15.838432922104747      1.3070225910381741
    53   1      5.9833787241026055      17.324431023770313      28.624911457606334
    54   1      7.3277073622311306      18.804273637092674      1.3918047158160343
    55   1      5.8773442055147944      20.024518874634659      28.629603785020414
    56   1      7.2143918802806501      21.482617343736184      1.3627331993093776
    57   1      5.7841705519678754      23.024450314728611    0.074347259257831533
    58   1      7.2937514711117499      24.302721480387952      1.6646319569552122
    59   1      5.7400607510953181      25.675830688577378     0.07384462587702946
    60   1      7.1870991071350661      27.040415183561773       1.611891097379065
    61   1      8.5957099392694634      28.512279247262498    0.052447493787769806
    62   1      9.9597527945530491      1.3361074531255663      1.2756624161519881
    63   1      8.4803866389971994      2.6098637456873819       28.51271761534716
    64   1      9.9571779690266435      4.2669204362161119      1.4355810694215971
    65   1      8.4990499086586517      5.7590483683863152      28.559914468393657
    66   1      10.078912664234936      7.1438950435338135      1.4696332058214796
    67   1      8.6262027805563779      8.4071629112385793      28.611657023344751
    68   1      10.039374984846654      9.8339174630391213      1.2257762882354426
    69   1      8.7031269231604043      11.470822955786815      28.613236508858524
    70   1      10.122033657713212      12.874394111772462      1.3868193148913965
    71   1      8.6671565990884609      14.550942081561466      28.656523494506519
    72   1      10.107461640617018      15.871427799766366       1.431704173192702
    73   1      8.6700127116582983      17.217921721281108    0.091471197607347815
    74   1      10.155573165834571      18.664610210098054      1.5576603891039891
    75   1      8.7646104423405209      20.332849632649111    0.076387857435872675
    76   1      10.329495091665711      21.507267935990054      1.5156211272079412
    77   1      8.9188118306490818      22.851424457868859       28.62174450454259
    78   1      10.186488098827152      24.062232897175623      1.5818807677947007
    79   1      8.5669440879111836      25.636397182183227     0.28462677245688611
    80   1      10.298305970980575      27.350727810781603      1.2922119971173394
    81   1       11.58628700541013      28.332169886640617       28.38707154128825
    82   1       12.89900090492878      1.2139423371133247      1.3858768231756013
    83   1      11.430019930488058      2.7061002067604596    0.096652880487329229
    84   1       12.70318551443126      4.2279757521067935      1.1952333567835687
    85   1      11.496201706778562       5.753996007418678      28.592554624508526
    86   1      13.040966450979386       7.225667807340181      1.3445268326660873
    87   1      11.580574586296278      8.6390749723879718      28.542743817015452
    88   1      13.015544317518604      10.049337971389431      1.4074101015741574
    89   1      11.473617087994878      11.443131197372495     0.15227268038690903
    90   1      12.942085228306276      12.734760259968395      1.4239990940061702
    91   1      11.602934723114769      14.465995639252267      28.638941190209643
    92   1      13.014626733664464      15.988850955148251      1.5184001813211112
    93   1      11.256361238844098      17.430805979244386    0.084585079076475791
    94   1      13.004665782594456      18.600242654411318      1.4341429886844246
    95   1      11.676967154314276      20.018513841751901      28.552375104367357
    96   1        13.0756707252576      21.266079057389469       1.456472733454246
    97   1      11.576350133121192      22.685207246187368     0.17781470714298842
    98   1      13.112462600671154      24.144455840835217      1.3998119155654876
    99   1      11.442321548146733      25.495589849984974       28.60733860062895
   100   1      12.893209551388042      27.129346406467882        1.37284970251245
   101   1       14.37952521695064     0.13390586016504519       28.63651395689384
   102   1       15.80371546780413      1.4455130313934443      1.3386679134554573
   103   1      14.429425989112454      2.7970683922332364       28.62413084733285
   104   1      15.572045825900862      4.3035434262492602      1.4689143331255523
   105   1      14.505051424842891      5.6640637792773871      28.660990139204618
   106   1      15.628060064601343      7.1607249397629156      1.3617239087302551
   107   1      14.357050957240999      8.6142867946211759      28.381038482409597
   108   1      15.867776469053227      9.7680130078274487      1.5348240149904775
   109   1      14.491963926021906      11.355038243984824      28.669508362689186
   110   1      15.620533715815633      12.880302366077835      1.4128952007972664
   111   1      14.161319283089259      14.229386694411295      28.649574676103402
   112   1      15.729482766106006      15.610414691770323      1.2916446033314748
   113   1      14.494421814948195      17.250348128363576    0.094905545518110854
   114   1      15.878709308038264      18.629554478246874      1.5277980784424359
   115   1      14.375624672951645      20.000944346817036      28.605594821576929
   116   1      15.872369289655254       21.55339852267047      1.3864322314154951
   117   1       14.49805899189831       22.91637232314131       28.68178666805359
   118   1      15.867537551734554      24.468552537512917      1.4973111676789574
   119   1      14.156566486124355      25.813076930783119      28.662807097203448
   120   1      15.757109601617435      27.343546579262313      1.4116144914002462
   121   1      17.316934411674623     0.12902198526832059     0.14756585347080323
   122   1       18.48344352323846      1.7424741386637836      1.4025789040828502
   123   1      17.178812591242259      2.9512427829663639      28.527939716573883
   124   1      18.527413546768095      4.2987667765280655      1.3221677841781918
   125   1      17.257550495953158      5.8113580019714997      28.630660061493945
   126   1      18.557007384174224      7.1750102139139651       1.328898846242839
   127   1      17.300962983363995       8.621172556415738    0.069027243556922704
   128   1      18.738220651779923      9.8940005450069659      1.5327090272611374
   129   1      17.215190933306676      11.565995317681457      28.667400969754063
   130   1       18.77006767803292       12.68934790959848      1.4332722318371576
   131   1      17.107948965499602      14.276997630041008      28.634479213682269
   132   1      18.751543559662316      15.568972416698321       1.382082417679054
   133   1      17.096987478749028      17.120568047960418     0.11399550461185287
   134   1      18.614087951911277      18.422570742976898      1.3271048347509109
   135   1      17.336664613428418      20.071943882119328     0.15025694391478062
   136   1      18.851212470916234      21.829108849862312      1.4116374347291738
   137   1      17.422802616425098      23.068172988840807     0.14722265317184335
   138   1      18.632396933611329      24.574014238747644      1.6791035535229983
   139   1      17.152656026088042      25.971768127050215    0.052007281515955052
   140   1      18.718733577517845      27.450607831785668      1.5473569009309927
   141   1      20.097712185136103     0.16883359615969765     0.12843686322379416
   142   1      21.703012160124921      1.5899070490705072      1.3877142425962905
   143   1      20.221912748066927      2.9830933144813812      28.519121770217016
   144   1      21.317383494236267      4.3898430195817708      1.3196449070601146
   145   1      19.955033537009093      5.7690874306430278      28.682305319537324
   146   1      21.359751407871247      7.0514171766384965      1.4654590643759204
   147   1          19.96632477212      8.5143300572695857    0.095486394782756071
   148   1      21.509543006619634      9.7900110976909076      1.2469070409203131
   149   1       20.12712043086492      11.397131126444577      28.692541178391124
   150   1       21.66412408295631      12.867232466086259      1.4363242804324614
   151   1       20.13341709710674       14.38536072675265       28.64004210021394
   152   1      21.570726561339068      15.819760115063636      1.5393167536297923
   153   1      20.137317059068959      17.118551180881443    0.042123539595615961
   154   1      21.533562843704676      18.605256787278805      1.5659352982943018
   155   1      20.169026902404163      19.980287515531998      28.672733560599269
   156   1      21.567018242781284       21.33897927607434      1.5295167718911102
   157   1      20.168996866478405      23.109595992503856     0.10534349359958239
   158   1      21.431611998648943      24.270895060862905      1.7298986445358873
   159   1      20.017664252523058      25.925349751461674    0.055626421052681958
   160   1       21.48766545578161      27.339999105513854      1.4032892029271691
   161   1      22.950066344937262      28.697085123537267     0.12361428339061159
   162   1      24.383810269082915      1.5318252484160084      1.6576644320125984
   163   1      23.163631662281336      3.0193765190292203     0.08260549966050805
   164   1       24.47889628318347      4.3831695642226718      1.4746365800517638
   165   1      22.961945077260133      5.7556183710930648    0.048525962672408822
   166   1      24.228412994256932      7.1094428739510498      1.5349915516939519
   167   1      22.928888079187054       8.414337513601108    0.099096392895160049
   168   1      24.364247034564151      9.7900784679966346      1.4700607022418475
   169   1      23.060992103662478      11.223720847692547      28.627940751815633
   170   1       24.62831760506155      12.634363551306929      1.2838311462211098
   171   1        23.0680745689025      14.228306326012465    0.028412565034545877
   172   1      24.465161276404949      15.612018568954184      1.5264313418226609
   173   1      23.232208568841465        17.2298223359414     0.15760314812508799
   174   1      24.402857071787878      18.608529241816782      1.6602260723091724
   175   1      23.132656237160926      20.078957099696673     0.10417724164940394
   176   1      24.463238872680265      21.515689348905347      1.3722107720869516
   177   1      23.041335158745362       23.14111586638456     0.19271479739338693
   178   1      24.623036487939316      24.495275920742849      1.4573652330101587
   179   1      23.037248822696487      25.897321023881222    0.036258705164152742
   180   1      24.485684546040247      27.290609351514274      1.4444081572027807
   181   1      25.738764719473252    0.099797667877544405     0.13073094468113608
   182   1      27.237453293017936      1.6401714909437592      1.3701497522672625
   183   1      26.057441126493707       2.986744251379609       28.53060937419643
   184   1      27.324966982195562      4.3365090738932031      1.6047257336400302
   185   1      25.920534157355178      5.7070557065890481     0.29061399629374701
   186   1      27.387952736339599      7.1148897785243665      1.5448310234058209
   187   1       26.06233444315335      8.4063923919281418      28.669966111473968
   188   1      27.260265597310063      9.8106789658005358      1.4025145474377483
   189   1       25.89030124331039      11.284288471425977    0.014308766030490017
   190   1      27.349376088661241      12.976511620438998      1.4765271459919633
   191   1      25.612569697824945      14.404103984523781      28.677695690641258
   192   1      27.287457683877555      15.687408429167595      1.5603740765261123
   193   1      25.807702181054445      17.107780559899446    0.091598625848735196
   194   1      27.220053674291449      18.852702533609985      1.4780798986308348
   195   1      25.877979328098082      19.998237634086802      28.547739439482513
   196   1      27.409727635052082       21.58872030671164      1.2352846656671428
   197   1      25.745631199783276       23.01405223299879    0.056595618390736124
   198   1      27.244666676122701      24.412467886466111      1.2647692639268928
   199   1      25.883961427724227      25.973921437651317      28.645845422409081
   200   1      27.234626607330814      27.361474475253161      1.3787990206019782
   201   1      28.658606162682478     0.14357346127782222      2.8525122151181113
   202   1      1.6796888252653488      1.5687840524688224      4.3265512837345712
   203   1     0.13620011768699711       2.716577979628596       2.906327774260252
   204   1       1.619857827238196      4.3699546975190628      4.2678504685440322
   205   1     0.27151847159602821      5.8395387795977101      2.8544281583048705
   206   1      1.5152326560938849       7.105198683049152      4.4820990732835106
   207   1    0.070663793736651631      8.6751606604203975      2.9950666286019207
   208   1      1.4301053870955243      10.276887875136676      4.4156873571912634
   209   1       28.57230680283681      11.398157441174005      2.7198151670326611
   210   1      1.1900288500816849      13.025587789779289      4.3060718648112246
   211   1    0.061283260825713365      14.470392551813928      2.8070459274632977
   212   1      1.5136028509790775      15.711809835399666      4.3710438351271215
   213   1      28.677250626412661       17.09188106691802      2.8566603330551521
   214   1      1.4933272578124388      18.668009701401939      4.3650009211182113
   215   1    0.059894334792194463       20.03806750178304      3.0293554907123625
   216   1      1.6174111289552366      21.637700368710089      4.3707679057975897
   217   1        28.6264881006168       23.15307327539173      2.9469542140004923
   218   1      1.3881942578787654       24.29278248210602      4.3675525212325246
   219   1     0.08695705221811259      25.951390777628369      2.9374461357066703
   220   1      1.5914233000839326      27.618386400673753      4.0485171294650799
   221   1      3.1605553820748682     0.13815500450534737      2.8759508965996026
   222   1      4.4264661607386158      1.4278604979131169      4.5006061996979749
   223   1      2.8544875048495655      3.0115792190094246      2.8065948321856573
   224   1      4.3506939028979392      4.3781466660808919        4.29475879574714
   225   1      3.0097091310074213      5.6945813188196306      2.7949928296645776
   226   1      4.5240764216303919      7.3836885189422237      4.3256111418896284
   227   1      2.9125737516697967      8.5364321670882486      2.9855614775401169
   228   1      4.3387778237409469      10.169097254716373      4.1812094399602096
   229   1       2.727338629335645      11.429847514692616      2.7610840784133424
   230   1      4.2189060412614028      12.887777451903565      4.2278428317432235
   231   1      2.8563252856560775      14.246890971188092      2.8822943989254091
   232   1       4.276579228639628      15.916929744572087       4.225464045673446
   233   1      2.9077534517919092      17.523328875496905      2.7610754719368731
   234   1      4.3371872708610519      18.688395018412251      4.2897182933074509
   235   1      2.8692647771861757      20.056952099154476       2.816419824489536
   236   1      4.1942754983166148      21.498885483933968      4.2924018992647408
   237   1      3.0663126539262788      22.799653701827921      2.7864694748661343
   238   1      4.3897609037498109      24.375571155592311      4.2064414897582614
   239   1      2.9019145035404743       25.82060190353975      2.8821385912619215
   240   1       4.207595152793445      27.417314312038734      4.2448208587247569
   241   1      5.8836603992702363     0.15318663147810416      2.7264505122455702
   242   1      7.1444314650124809      1.4371091724601919      4.1915173289751779
   243   1      5.7003565284743889      2.9041529396535433      2.8762640128952475
   244   1      7.1145727165816535       4.255786046059101      4.2199420922192967
   245   1      5.8280395471267603      5.6960435510855296      2.5373261850757318
   246   1      6.9999043630057489      7.3080160949534729       4.124513728770987
   247   1      5.5303289292948099       8.950319261482063      2.7557185501588384
   248   1      6.9582787275795068      10.223637833692703      4.3180469504756838
   249   1       5.794035679821711      11.416192157771277      2.6167226009063351
   250   1      7.2917910044178589      12.939214528198846      4.2006940581338252
   251   1      5.8465568998343302      14.416389306582243      2.9190725095162326
   252   1       7.302452038564943      15.669492283239039      4.4294878214812128
   253   1      5.7378188938387549      17.227039064258417      2.7890083819393117
   254   1       7.129101851900403      18.599161230407894      4.3136535083814174
   255   1      5.7563459557032273      20.203748313849992      3.0161285898273071
   256   1      7.4714681143968713      21.744257713567851      4.1796157315460514
   257   1      5.6373841052218996       22.76440443601081       2.802884455602507
   258   1      7.0760111993173984      24.417109811194919      4.1999840615172754
   259   1      5.5802308305821589      25.849694838552253      2.9222378905407163
   260   1      7.1609097526983163       27.18290546981207      4.3697946113853403
   261   1      8.4953205944848573      28.521019162831593      2.8367132321933815
   262   1      10.061702515403548      1.5812658450699002      4.0362344566698667
   263   1       8.503889806546475      2.9326877725994205      2.8469278061877712
   264   1      10.080832917263873      4.5193747409065601      3.9449390835211813
   265   1      8.5002320142285122      5.6879549036758617      2.6560524705234578
   266   1      10.024350109722192      7.2940922673478017      4.3055024426230899
   267   1      8.5714950609656277      8.5109388423825969      2.6709846638673755
   268   1      9.8655120823362488      9.9278489675123929      4.2392245400272772
   269   1      8.5747685927634958      11.212993031681405      2.6886097674365939
   270   1      10.046228821932155      12.859872336193314      4.1890741516157668
   271   1      8.8397034471682936      14.397031646977965      2.7710531044868389
   272   1      10.250277114533967      15.759656740061146      4.2601533793223068
   273   1      8.5996265045836324      17.079683790820145       3.019046455911913
   274   1      10.072104786943223      18.713519382058148      4.3786700614081298
   275   1      8.6840078155964395      20.235745337940987      2.9362348495931618
   276   1      10.151837586431549      21.538267601257182      4.3467031586894276
   277   1      8.6721916842809694      22.787001341044519      2.7768825129376395
   278   1      10.058485836650553      24.305011188893804      4.4853455133770552
   279   1      8.6419430966421835      25.794449884742434      2.8572547792512739
   280   1      10.034003096617385      26.952375391816741      4.1834077988656588
   281   1      11.575398209851832      28.672999135167402      2.8497111162740771
   282   1      12.846433102574549      1.4283899919715386      4.2973949258351283
   283   1      11.614399680712177      2.8409004225354235      2.7026097260282311
   284   1      12.800136184613777      4.3751336716677827      4.3555824257881692
   285   1       11.61325863904718      5.6630147102500707      2.6935602218247263
   286   1      12.882357440606615      7.0695718779354806      4.3268187848024624
   287   1      11.668717631065936      8.6101688751044829      2.8113517601645288
   288   1      12.924537599678661      10.138886010443317      4.4273913402206153
   289   1      11.371593407752423      11.154582648097428      3.0272786419235387
   290   1      12.931833296488609      12.692566201172625      4.2657207834345048
   291   1      11.631316313600552      14.249324056887875      2.8548440450128174
   292   1      12.713460082387341      15.754171675257444       4.428131087785677
   293   1       11.48816690750397      17.428409676059037      2.8791504610703651
   294   1       12.83180082872326      18.820577071156588      4.4002935830429344
   295   1      11.522794209767216      20.171518399670212      3.0013414945529862
   296   1      12.990105645332388       21.49379345668709      4.7404207751225798
   297   1       11.69679244215296      23.019780968111977      3.0269290482810192
   298   1      12.930770603011238      24.309884931365289      4.4536285538581621
   299   1      11.601862873726182      25.733352005801731      2.7600494625936207
   300   1      12.928947762941762      26.954511706768212      4.3286384454930857
   301   1      14.383680356854423      28.605851598121934      2.9175054428025926
   302   1      15.840980315220721      1.5525034216808864      4.4216779710247769
   303   1      14.184967113367428      3.0034123324226778      2.8456610139672542
   304   1      15.797227316387984      4.4977530557684862      4.4458414962008055
   305   1      14.219998280754901      5.6520400662547896      2.7520891325449384
   306   1      15.780770893015795      7.1061237385279812      4.2767486532193297
   307   1      14.403335293977198      8.7436923705053111      3.1424483829525705
   308   1      15.832586097900899      10.000843862512099      4.3007195647675873
   309   1      14.437005759237824      11.444311781920424      2.8297737584404783
   310   1      15.885362161837737      12.759189278835589      4.1965054188323352
   311   1      14.219402257726442      14.208194949099477      3.0424612224381145
   312   1      15.843883935690872      15.653957933689959      4.3001061127521591
   313   1      14.381871944043393      17.229267181460202      3.1294287237830756
   314   1       15.91906092546566       18.72388233120919      4.4023894419155631
   315   1      14.505189302844091      19.848473875574232      3.0882909007034147
   316   1      16.004179267259627      21.464892802867453      4.3844649666537725
   317   1      14.392821924842224      22.607672447977439      3.0159581220482372
   318   1      15.739372380478258      24.238006758718242      4.4135912470005119
   319   1      14.424209004431177      25.760617779652407      2.8494988862895863
   320   1      15.869065381189611      27.483365407563241      4.5813702851005864
   321   1      17.231522203599681     0.13590401062407428      2.8417849811241584
   322   1       18.70615793687012      1.6304095274019692      4.2607901329920077
   323   1      17.086262953806088      2.8386733546801328       2.839367723267844
   324   1      18.499305900275434      4.2735477116003349      4.2508753318431207
   325   1      17.135096128379331       5.895377942625605       2.703538569550505
   326   1      18.559584511536361      7.1172055497055666      4.4663701744172268
   327   1       17.49561097435743      8.4637625127236671      3.0853257260273685
   328   1      18.606574838658155      9.9956263166891084      4.4584258295252548
   329   1      17.250030702229019      11.298138613843195      2.7196159306040939
   330   1      18.674606292317744      12.847834728080183      4.2413960927864904
   331   1      17.213688225303493      14.337731335511625      2.6999827929074169
   332   1      18.684122813066448      15.585232493126448      4.3369341109297102
   333   1      17.289754924071595      17.034320959218487      2.9794733800126689
   334   1      18.592887344442492      18.727429977051415      4.1735563207584567
   335   1      17.306572879925085      20.138694034599112      2.8155718469104736
   336   1      18.614789209431063      21.598085413225743      4.2106776767859646
   337   1      17.227789186088327      23.065801878246454      3.1076548367120691
   338   1        18.5650604504043      24.385561565171439      4.4839200652733169
   339   1      17.077809525478781       26.09050647547696      3.0984775447019954
   340   1      18.534240385876853      27.506374893527948      4.3053659822094037
   341   1      20.091403223302859     0.18049360170380185      2.7754834525473027
   342   1      21.652660153980055      1.6053670350794047      4.4445219794892266
   343   1      20.076288854628743      3.0248617414691612      2.8069733128590197
   344   1      21.563299172516484      4.4464825031942068      4.2487389622297727
   345   1      20.025734027281821      5.7493569850559805      2.7700432536828541
   346   1       21.61165841962103      7.0390252056367544      4.2852567405003255
   347   1       19.96453677188001      8.3834683031534851      2.9576125409073994
   348   1       21.56619589506548      9.8789719234497095      4.3341729094046642
   349   1      20.066390027347243      11.355639802034894       2.893172867271872
   350   1      21.705992045751128        12.8358742836168      4.3049226344043685
   351   1      20.092210392142007      14.202179602382378      2.7759856889352124
   352   1      21.818230923194914      15.675375526936783      4.3130276815828132
   353   1      20.176705400813415      16.892735712147761      2.9569039721138104
   354   1      21.458545509966246      18.627296093283444      4.2275487902199202
   355   1      19.965103187696645      20.161669510558834        2.88224805230892
   356   1      21.486641209897023      21.573828771489698      4.2872721394149291
   357   1      20.105921393728952      23.116158621639038       3.111002179401456
   358   1       21.55163719699074      24.549465460817242      4.3489076292435476
   359   1       20.03722996799284      26.028938319012525      2.9961702337772338