dump/Fe_1050_0/steps_51 (written by ASE) 

2000 	 atoms 
1  atom types
0.0      28.699999999999999  xlo xhi
0.0      28.699999999999999  ylo yhi
0.0      28.699999999999999  zlo zhi


Atoms 

     1   1      28.557749983567675     0.16701676471229804     0.20315657880287288
     2   1      1.3989443468153249      1.3718377173039478      1.7059668813313107
     3   1     0.10674242960172946      2.8256336247224549      0.1496477916659387
     4   1      1.6423221065631086       4.187641512883987      1.5036858278648657
     5   1     0.02837238183448143      5.8262786603899155    0.053573588793733612
     6   1      1.5480469414635214      7.0957215706152237      1.6471770636149818
     7   1      28.405923258426284      8.6987622428865397     0.12535560242250757
     8   1      1.3610222638787384      10.145356478474286      1.4906557006409578
     9   1      28.535133413804406      11.614498412284952     0.12082771180697587
    10   1      1.4277184881964464      12.742679687213567      1.6198480119289451
    11   1      28.588129127479846       14.29354178665279    0.081940194735989291
    12   1      1.3025330962802635      15.812619822206138      1.6114896561948049
    13   1    0.089652683305804504      17.352388893777416    0.027981636742583756
    14   1      1.4837715773197733      18.900122453495939      1.5708757949742667
    15   1   0.0014409030306099186      20.101997041220681       28.64405399673338
    16   1       1.392197673215356      21.607611780776374      1.4586416459784344
    17   1      28.657963192595247       22.78594774915252      28.678729705310658
    18   1      1.4026101948274814      24.410795337633235      1.4591178934273215
    19   1    0.092182150805402943      25.961250242235302      28.635743978559304
    20   1      1.6322218790212113      27.271796257801963      1.4769806792885887
    21   1      2.7901480152440183     0.19202168261958991       28.68417540102185
    22   1      4.4096496426237648      1.5024055670229579      1.5076343163088721
    23   1      2.9056466477797103      2.7216516922046137      0.2168466832618037
    24   1      4.4989139167208441      4.2374306823736942      1.5344713910176206
    25   1      2.9557251339045449       5.720931929728204     0.28909715786970841
    26   1      4.3621129922169022      7.1747839589986127      1.5516187752017803
    27   1      2.7196722721770237      8.5460813771673028     0.10704803244996135
    28   1      4.3882270264601875      10.018007296117286       1.447298195955955
    29   1      2.9349621337729253      11.501477524398721     0.14985032469969609
    30   1      4.3865837208267573      12.809595000142858      1.6510110161480376
    31   1      2.7718124982731407      14.417077872643405     0.12613924270821134
    32   1      4.4245054401294528      15.960999039999473      1.2801002953540992
    33   1      2.7826595551770104      17.423630861543504     0.27465959976188975
    34   1      4.3377878256909748      18.721573560587466      1.4362104624837695
    35   1      3.0396808137488605       20.12451002234808    0.039896469322581986
    36   1      4.5043654997492677      21.610820184394736      1.3860546041828796
    37   1      2.6825131853378594      22.748035143798024      0.1696811926977603
    38   1      4.3790791691994748      24.441682801851332      1.4414389422907552
    39   1      2.9242002380794392      25.922787800284333      28.638737149185637
    40   1      4.3147441715923955      27.240344927775713      1.2758735664849612
    41   1      5.8783928849068614    0.060153948115886882      28.664091601246216
    42   1      7.0715079823523066      1.4342423787775598      1.5424067380783992
    43   1       5.661345428999673       2.849787267146894      28.650623799712676
    44   1      7.1396798875366922      4.1264381599745334      1.4519630635895175
    45   1      5.8472592577930262      5.5647750222258585    0.074621048596918593
    46   1      7.2461791410503755      7.0999136194739281      1.3328482156722545
    47   1      5.9088221901916285      8.4679846682850926     0.14042141426740498
    48   1      7.1486414871148565      9.9044619394124904      1.5151675385152867
    49   1      5.6393948455323546       11.42432556728771    0.035894619343002747
    50   1       7.035492991225877      12.867218261912798      1.3744530003709317
    51   1      5.8145966571484005      14.351617085067387    0.024551553216485892
    52   1      7.1223876025297201      15.835370473125746      1.5730907566508887
    53   1      5.7685282768447586       17.47509678842728    0.032928166310182506
    54   1      7.2127274832937722      18.638885227504691       1.530920785126024
    55   1      5.6919858681858626      20.218997052705223      28.511549183455021
    56   1       6.965228991928873      21.669517976893211      1.3088483529756092
    57   1      5.6240174448382083      23.005340436113929      28.504920538409113
    58   1      7.1383920952170552      24.549190515516003      1.4373276875705399
    59   1      5.6256398976591599      25.776862129009043       28.56173881034541
    60   1      7.1379049160779404      27.300924992201121       1.517767175523135
    61   1      8.5330896403390728     0.16470333938871143    0.038883752425169824
    62   1       9.929991147652748      1.4658863584203583      1.4194677185538125
    63   1      8.6058925890442186      2.9783090587924881    0.011683135375380963
    64   1      10.068988077275929      4.4694068266662148      1.4196455648825916
    65   1      8.5477546813053404      5.4351047296794937   0.0034437083448324189
    66   1      10.092151226290239      6.9736815231198319      1.4830581230847784
    67   1      8.7551582908444132      8.2503099929587833    0.084595347678441554
    68   1        10.0416270652085      10.025899795653643      1.5880760859003891
    69   1      8.6381686783960454      11.471666994312972     0.11493719541817879
    70   1      10.153289390857186      12.853726462610565       1.327845529976923
    71   1      8.6140209826002554      14.324590246148091      0.1492124947163575
    72   1      9.9842147416659071      15.792449869888028      1.5743983179518306
    73   1      8.5721745097929549      17.103871091968664      28.674266674865578
    74   1       10.02531764277151      18.670455110949106      1.4995930184911326
    75   1      8.8430510181207787      20.181310440552657    0.035994784106071591
    76   1      10.039180394773638      21.696568332127168      1.4371424953005998
    77   1      8.4961627360804677      23.096125733230892      28.690923779269909
    78   1      10.017129064855641      24.440336589664842      1.5444438225404613
    79   1      8.6550674768701708       25.73811405101219      28.691996429559797
    80   1      10.074948252471074      27.293000498164194      1.3793889375285515
    81   1      11.360130989849797      28.627767717469297      28.512881224782987
    82   1      12.882953807329915      1.4791105232350545      1.3030402455302446
    83   1      11.371250611640875      2.9344205117663509      28.580219583581712
    84   1      12.822466578595153      4.2441758132279324      1.1673642039268994
    85   1      11.506456610117628      5.8139760736466446    0.023061526547462557
    86   1      12.893277470440061        7.33341841287913      1.2597328108819283
    87   1      11.465067292129529        8.76315498831908      28.611930528450475
    88   1      13.050995657089473      10.099576243286501      1.5071253189269909
    89   1      11.587829405775484      11.398078610543712      28.649905474286616
    90   1       13.08131017881257      13.027280961161471      1.2645766244446226
    91   1      11.490049610017717      14.518627257805905      28.626356803472962
    92   1      12.971427785138074      15.877842748430247      1.5461386704958839
    93   1      11.635862597096555      17.146508335402736      0.2528616009488816
    94   1       13.06409813510297      18.631355225935405      1.2533114006327868
    95   1      11.552201687129855       20.12769299690645    0.025769383777640088
    96   1      12.825309968686774      21.507227654735939      1.5548523097602918
    97   1      11.371179508775819      22.902869808401491     0.19184318763394687
    98   1      12.988922479586764      24.340001786085548      1.2965846303230941
    99   1      11.400975406669138      25.898811443878984    0.015645580851139578
   100   1      13.031167546738766      27.413966522422356       1.291657865260232
   101   1      14.418697691764716    0.074533280699724272      28.455170984129115
   102   1      15.739323853392841      1.4137091216968216      1.4705614917030403
   103   1      14.374903694048424      2.8177447971517604      28.634865940364765
   104   1      15.737416405525046      4.4719653547978568      1.4001474370348643
   105   1      14.347861541325416       5.923864705338497      28.680825377938707
   106   1      15.827348244491155      7.3569845309678241      1.4137603041926012
   107   1      14.230678654940942      8.8203099770446247      28.531075954262196
   108   1      15.751032621538668      10.171983057053698      1.6084201030784002
   109   1       14.48734624306142        11.4467984183271    0.026503110984242535
   110   1      15.746017133168454      12.904935056778541       1.483779257323965
   111   1      14.352984061839933      14.554588319778407    0.079605637890483708
   112   1      15.688339476089828      15.991653705360287      1.5684377911331921
   113   1      14.327093570557079      17.096533762483677    0.045356148859730196
   114   1      15.915171218545163      18.754018886969234      1.3977055100438169
   115   1      14.320978105722107      20.177559229035737      28.535085233343857
   116   1      15.843741461640134      21.567538738212342      1.2760621940752923
   117   1      14.291681378847011      22.834587808750598     0.10472667867534263
   118   1      15.845197337327861      24.260225000230598      1.2906608463430858
   119   1       14.27847202474951      25.921472596889807   0.0081570136986329079
   120   1      15.635757883547745      27.199238955039093      1.3741943266719079
   121   1      17.183512136054144      28.514215307285514    0.075587384690083956
   122   1      18.418145687595942      1.3774402912040502      1.3454889435479129
   123   1      17.041811075557494      2.9262032797583069     0.16184873094268812
   124   1      18.643601547077047      4.3062085447110618      1.4744150410322838
   125   1      17.123764302379961      5.6546711061011967      28.585143406956689
   126   1      18.776617992006301      7.2703674451873761       1.251257256276312
   127   1      17.030304271388136      8.7327553007132472      28.650356845687902
   128   1      18.535762329662354      10.007702829622666       1.444790293517928
   129   1      17.028454899330207      11.520927156314393      28.592149217320515
   130   1      18.537583361151743      12.940153600582027      1.4545364728824781
   131   1      17.132655040289944      14.482347177926137     0.20283355004121392
   132   1      18.706361249859558       15.80815620226713      1.5223755371086662
   133   1      17.185626632146164      17.224370716839317      28.653120640078484
   134   1       18.57156501934546      18.780036974769729      1.4347422207213401
   135   1      17.402777666657755      20.034003099102001      28.604822439848366
   136   1      18.653902065572122      21.347596538005718      1.5257305421145595
   137   1      17.386007148286559       22.91880507535884      28.516009566570084
   138   1      18.715066304991236      24.238327598354775      1.3713748845649987
   139   1      17.257239625415288       25.83058801976701     0.14179943258255887
   140   1      18.769414671884356      27.309063740197175      1.4106032709655667
   141   1      19.857446379095659      28.672437515916432      28.595648343581814
   142   1      21.572139028595565      1.3082158798806747      1.5120282920882919
   143   1      19.921197397516984       2.795788066670184   0.0035933501317231198
   144   1      21.215593839427065      4.1794921646243521      1.5239766864150741
   145   1      20.100062294884175       5.729942311312012    0.073547846730252678
   146   1      21.552275771560893       7.205759088227623      1.3559609611774246
   147   1      20.084872645989364      8.8116917961976426      28.676244253071548
   148   1      21.651223490513893      10.021701181732816      1.4242328677819607
   149   1       19.99105166102261       11.60053646643806      28.640446283124646
   150   1      21.510272365273028      12.796079221895113      1.3776298085208627
   151   1      20.052357564665737      14.350285438231351      28.567210725634027
   152   1      21.532906767820794      15.852905465083854      1.3486245305906777
   153   1      20.061044947727645      17.245516955415123    0.034773311437277216
   154   1      21.470666747050299      18.769603269727632      1.5435921773287746
   155   1      19.987895790364949      20.109165011228892     0.10917404419408272
   156   1      21.531357160771087       21.54008521180868      1.6962648766009338
   157   1       20.00817972804337      22.932595602620346    0.025043674459016056
   158   1      21.308187511173649      24.210036486334385       1.456812780480095
   159   1       20.05940389919348      25.918104713179009      28.602651049350428
   160   1      21.481471834181665      27.425000640978759      1.3563183005991617
   161   1      22.940146314551001      28.656240949231321      28.558341144007457
   162   1       24.54958238084879      1.2118122604043604      1.4913248852645782
   163   1      22.917455766985384      2.6394829968933653    0.081653223720275114
   164   1      24.563677731821819      4.0964450749499619      1.4565304997504547
   165   1      22.836916696016115      5.4976505512008389    0.087448758610378152
   166   1      24.425720364833271      6.9871757565876766      1.4786259687771335
   167   1      22.857678092824649      8.6398347667530206       28.68537864817776
   168   1      24.423152960990937      9.8868924772525961      1.5439423739977196
   169   1      23.036451173053308      11.297542462967977    0.048563657570286849
   170   1      24.420919425997074      12.997929533131458      1.5883462206417918
   171   1      23.185302451477682      14.008077882501663      28.669602532041282
   172   1      24.356198854943571       15.84352444393547      1.4710998075737509
   173   1      22.859103461942222      17.369144730958524      28.602294910015502
   174   1      24.357397532506464      18.600403396262603       1.537886530693982
   175   1      23.030391797553023      20.055755048720137    0.098439078411843101
   176   1      24.369410674278427       21.60842568106801      1.4833701461001385
   177   1      22.796294284684187      23.056962617284746     0.11839386597309835
   178   1       24.38344161846997      24.499647859827721      1.5549122803439315
   179   1       22.76786311540091      25.852020750172152      28.684278205497904
   180   1       24.34208999098799       27.34701354341885      1.5115071208765918
   181   1      25.935387269240113    0.068355479869469077      28.624909139004643
   182   1      27.310914062187031      1.3396480144333616      1.8645938880419188
   183   1       26.03359937057834      2.6432838574528206     0.25111903447534567
   184   1      27.385500800707906      4.3511450396426676       1.493679012448125
   185   1      25.896362057289984      5.7097144189692823      28.665387738660044
   186   1      27.420403176491131      7.2066683253610675      1.5159405781067328
   187   1      25.780877784371377      8.5374126676660307     0.14593177174883742
   188   1      27.108860562300467      10.080320067280518      1.4253424607495735
   189   1      25.757910593403242      11.304349830275616     0.13552611454225608
   190   1      27.206111509214391      12.946593399995308      1.5205376014719258
   191   1      25.842448755973912      14.360013494292243     0.26915329250717834
   192   1      27.373791719273381       15.72766424599666      1.5536803261844609
   193   1      25.983358804937293      17.140844302818856      28.668734422969408
   194   1      27.322963842175529      18.686938687983123      1.3636596377735943
   195   1       25.86185298269227      20.162640147041785     0.17118615926525524
   196   1      27.049100679674105      21.421670503052955      1.6458164438480472
   197   1      25.874998674813718      22.963370131147649    0.062897197833956447
   198   1      27.322582722350397      24.425975718265175      1.4378676501923788
   199   1      25.841437470243839      25.897936845654353   0.0049467046664176473
   200   1      27.370356686857214      27.256401104867464       1.267488813712293
   201   1   0.0010333777847696449      28.521240780135727      3.0897266543865949
   202   1      1.5766667457763104      1.1859279488911751      4.4490090886909028
   203   1     0.10497689727607208      2.8359181459982188      3.0725307989111057
   204   1      1.5727139204120599      4.0094571682089057       4.346913435016166
   205   1     0.23977894468289418      5.7145297907869024      3.0179008874179578
   206   1      1.6433818562333835      7.1542767963794951      4.1931924119951827
   207   1      28.659376690857968      8.7297424866325173       2.983706170537666
   208   1      1.4926964857357226      10.010145433386231      4.2434692577460886
   209   1       28.60420724907539      11.448873710747932      2.9204760111160746
   210   1      1.5711887670014126      12.605861988304762      4.3355817667770271
   211   1      28.592056740682782      14.244161944750504      2.9539475294705078
   212   1      1.4039216743384959      15.899825552723099      4.2566527778522492
   213   1    0.041696859540662816      17.305589555960836      2.8099938364691393
   214   1       1.531083558766398      18.776037217329552      4.3874262313420376
   215   1      28.683258737218768      20.261963885603915      2.9044334195326962
   216   1      1.4096104794817417      21.586061573837707      4.3987258910700584
   217   1      28.562999744842372      23.043760456246083      3.0769774550031199
   218   1      1.4368785150355308      24.426092083899253      4.3004112400259125
   219   1    0.041047775230414821      25.973260105726034      2.6616599691753193
   220   1      1.5595005787893121      27.095379136604031      4.2017561154084779
   221   1      2.9568696238008672    0.061543916458038084      2.8558204158980849
   222   1        4.05469572117818      1.4221530471911263       4.375876335093924
   223   1      2.9857937267766754      2.7933580013752799      2.9811084362681419
   224   1      4.3221190792089859      4.1562489798404565       4.358259577579827
   225   1      3.1207151446425097      5.6917658149891031      3.0084861995059144
   226   1      4.1904673013727747      7.3015950651710666      4.3557233236134705
   227   1      2.9808261767010995      8.5558314062946632      2.8672449947648717
   228   1      4.3125752329624367      10.077685776465898      4.3054090899724873
   229   1      2.9566522560943387      11.510119171812265      3.0235628294331924
   230   1      4.2509493177127755      12.908913288020525      4.2459686629792479
   231   1      2.9884785759404782        14.2974921834798      2.8745110322624319
   232   1      4.0625218957126599      15.959230181266097      4.1675666035685648
   233   1      2.7436656903561696      17.505601720185663      2.9461626015388105
   234   1      4.2900854003035187       18.74412724176721      4.4548552433624078
   235   1      3.0222537328649133      20.315219481032987      2.9873703250654264
   236   1       4.212324940256333      21.771854393790036      4.4132533777876262
   237   1      3.0179218021716681      23.024014663111338       2.928693602173746
   238   1      4.1943646911263386      24.347523558685769      4.3984363769727901
   239   1      2.9223533770752836      25.640436856930396      2.6948908422256959
   240   1      4.1137574389478493      27.297851280637044      4.1218243559790508
   241   1      5.7252106913591509      28.545641811307522      2.8440893270560084
   242   1      7.1316444479547618      1.3982302137750826      4.1758574333999903
   243   1      5.7699547127257569      2.7084889998264545      2.9365401150241826
   244   1      7.0444660607702012      4.4140428666969029      4.3253055035224239
   245   1      5.6639369921557901      5.7727787736957907      2.8513149049606685
   246   1      7.4114283455730972      7.1880244640846902      4.3441037669341194
   247   1      5.8650328101866638      8.5842821512995826      2.9842665942942297
   248   1      7.4134278132946951       9.939091497535177      4.3615320871222947
   249   1      5.8496508003395293      11.546593829598001      2.9421401124968192
   250   1      7.3259434828461583      12.941241211200506      4.4615556765797555
   251   1      5.8329393053151701      14.468320801126843      2.9908959484356945
   252   1      7.3423461554488334      15.798955867128512      4.2906734886358908
   253   1      5.5738211833454008       17.31670354368109      2.8403301276331026
   254   1      7.2760267310842215      18.621571914886569      4.3734548283643653
   255   1      5.6697258512798259      19.960131720725894      3.0444992128819988
   256   1      7.1835304516434633      21.615969809658306      4.1994292386095946
   257   1      5.5971408145117723      23.013161415566131      2.9633665663229984
   258   1      7.1067676652097802      24.482022822650197      4.3401355305278342
   259   1       5.512002086402612      25.933535596018565      2.9374039051245604
   260   1      7.1336415570187501      27.198290742703112      4.2068618312098689
   261   1      8.4638371456057193    0.050831891231337231      2.7726217738579648
   262   1      10.111004427378113      1.4905491173747909      4.1639728857798897
   263   1      8.7103186418280831      2.8884298469453489      2.9029562269170146
   264   1       9.987435965565318      4.3526024152941076      4.2151318818345596
   265   1      8.4835139382097129      5.5899215506806286      2.9524444313198117
   266   1      9.9341619263950669      7.2537667295786363      4.2300121654964711
   267   1      8.7656194749225396      8.4159380337198488      2.7702069677733889
   268   1      9.9453363032296824      10.057534085106234       4.472951523914821
   269   1      8.6668199704946858      11.555169220959446      2.9513627825967066
   270   1      9.9369786873643182      12.847303059517278      4.4572513955154145
   271   1      8.5226995083696817      14.249675259674332      2.7373469397011707
   272   1      9.9498561649811315       15.65005502094149      4.2491652546561127
   273   1      8.8060444083087823      17.435386962745316      2.8794223881267498
   274   1      10.103067388699271      18.787517097845743      4.3146986490611043
   275   1      8.7239085296224204      20.316931248249102       2.900251634880946
   276   1      10.147864698289318      21.693750914451691      4.3029002092160926
   277   1      8.4483175775227455      22.918504174856029      2.6362280918739294
   278   1      10.170980042259014      24.360487888351216      4.2953874844529762
   279   1      8.5100299831937729      25.927659853839394      2.9932572340433317
   280   1      10.202923118539298      27.256872951206827      4.0781743300944031
   281   1      11.458625149896333     0.16732609786524813      2.7519255872135746
   282   1      12.900358561213858      1.6617768228864529      4.1486515992700337
   283   1      11.521019074130251      3.0171604873524549      2.7915514576401388
   284   1      12.915821921071769      4.3108179913186833      4.2172330807888461
   285   1      11.447997042122099      5.7696038161509655      2.8602624603508384
   286   1      12.959645976049373      7.0597861167887386      4.3583341886858422
   287   1      11.513954611257804      8.6467325235720107      2.8212010619237735
   288   1      12.773414718817893      9.9645779888352575      4.4493333237109738
   289   1      11.612456429529288      11.479925290969788       2.745148256370078
   290   1      12.934116740065431      12.994141005865238      4.3949499284630846
   291   1      11.371924682564011      14.126825088598999      2.8862823528976178
   292   1      12.790153392386316      15.752702731761989      4.2540134616998868
   293   1      11.380372899364453      17.294383251010782      2.9908614933015527
   294   1      12.998671357137162      18.672453267196371      4.3756441435602085
   295   1       11.55744592492348      20.149504568845462       3.044635412802549
   296   1      13.063450802221404      21.559332230108875      4.4009477893582511
   297   1      11.725291321599748      23.107639013234241      2.8089168011896262
   298   1      13.002248421959571      24.605239353041615      4.0767784683009056
   299   1      11.502148917897284      25.891195588815375      2.6267697701486434
   300   1       12.85355537107316       27.35956221950104      4.1761133800372727
   301   1      14.316685777582133    0.089390699111800434      2.8057614318467485
   302   1      15.895683429736978      1.4679436766480771       4.145348593200386
   303   1      14.303470992142111      2.9688505863905315      2.7415525708217623
   304   1      15.949052834605309      4.4643580945004908       4.321621954760384
   305   1      14.172894546387662      5.6408531608574091      2.7433002202836629
   306   1      15.835084144812249      7.3138494906913287      4.2151140891941061
   307   1       14.38298527363253       8.469146569516564      2.9641412588779632
   308   1      15.687905181642563      10.076035773035894      4.3479374952238938
   309   1      14.393620010674455      11.562406534749469      3.0173509044811189
   310   1      15.856445221211143      12.999093343245161      4.4236869352625359
   311   1      14.431883393540492        14.1901626174842      2.9829569196795647
   312   1      15.766453361903553      15.579327921423488      4.5098817504765076
   313   1      14.196054393426191      17.335931444466123      2.9704986833038758
   314   1      15.689236008563247      18.726867450020841      4.4255265846229035
   315   1      14.295919816843183      20.068042005408373      2.8591481401099141
   316   1      15.723958042687403      21.409021298433526      4.4277573513620272
   317   1      14.446336400610736      22.872230564987021      2.7961651050304455
   318   1      15.711700738309602      24.525458635070468      4.0565410594735534
   319   1      14.238490273822038      25.917084194926872        2.74455292286848
   320   1      15.750365437961889      27.434904720138327      4.1948844413147919
   321   1      17.272059677217324      28.663817957338825      2.8208755032199195
   322   1      18.620503288640972       1.478658505015505      4.3260181806991156
   323   1      17.150664131549444      3.0411261632943165      2.7434891532405898
   324   1      18.654070361747355      4.3484232687076121       4.424885764546203
   325   1      17.464436864706588      5.9367657139134833      2.7701810621078593
   326   1      18.618837015592526      7.2856393346090567      4.2318913218684138
   327   1      17.220364000133813      8.5517119894897284      2.8680504684262482
   328   1       18.64626649257719      10.207379621991139      4.1969356323530684
   329   1      17.047356185708924      11.596814701938658       2.843273751147148
   330   1      18.647288577811207       12.88941500464108      4.2037045722516906
   331   1      17.247095994665909      14.276306686991772       2.952717818638023
   332   1      18.529287156695286      15.695927455584577      4.3231737608606808
   333   1      16.923907048068877       17.36144068218767      2.9042206644573043
   334   1      18.464582582972046      18.632562795470832      4.2783722313711552
   335   1      17.179851714023691      20.155802810213125      2.9407457668408035
   336   1      18.551400720841453      21.716473923804799       4.261103506240647
   337   1      17.135828768769258      22.985034854606372      2.8010672417437257
   338   1      18.663748339271955      24.371537373820118      4.3021852750542955
   339   1      17.466778585891646      25.960079751715821      2.8714990127384437
   340   1      18.720940165268441      27.195029726524435      4.4640986443728741
   341   1        20.1939928838189    0.079645996078432132      2.9995486997931087
   342   1      21.734878239811444      1.4695388933591744      4.2732240187552319
   343   1      20.014320213548505      2.7856169989522419      2.9576523161547725
   344   1      21.339537716550055      4.2998054466040756      4.3997313877979254
   345   1      20.124691503926066      5.8759098148453512      2.7577228789747195
   346   1      21.389949766160001      7.0957110782496109      4.1411209710515466
   347   1      20.039286344432657      8.6428425013496426      2.7778947242296685
   348   1      21.665017377170155      10.065717691488137      4.1836661741968157
   349   1      20.158391146232585      11.419393434957446      2.7264689706922458
   350   1      21.710501948590448      12.852298943841346      4.4462013252592145
   351   1      20.135529422746721      14.344809234791752      2.8901977858071035
   352   1      21.489778028184819      15.765608191240288       4.354344124271214
   353   1      20.097771662216111      17.279833977950958      2.7593318966246327
   354   1      21.328057857180138       18.63231831404255        4.38390641850199
   355   1      19.980812039635662      20.146440606006411      3.0071020275334104
   356   1      21.546680800509264      21.489781196659365      4.1275891907783677
   357   1      19.942976416759983      22.975106790350885      2.9448912799018929
   358   1      21.425290212025455       24.47353883879428      4.2387821635712477
   359   1      20.268215825851765      25.919156991994612      2.8240342939770802