dump/Fe_1050_0/steps_61 (written by ASE) 

2000 	 atoms 
1  atom types
0.0      28.699999999999999  xlo xhi
0.0      28.699999999999999  ylo yhi
0.0      28.699999999999999  zlo zhi


Atoms 

     1   1     0.19973946718394381      28.633087004112756      28.660611390360717
     2   1      1.5006003161021213      1.6968049452902729       1.285599429479237
     3   1      28.630859879500846      3.1098409630114219      28.554873300979793
     4   1      1.3970111136961025      4.4697441862669738      1.5374699863988537
     5   1        28.5414702534448       5.810137132293236      28.615041558449164
     6   1      1.3034149266457018      7.3736095695791422      1.4814227079297553
     7   1      28.588552286469337      8.7345384411967082      28.491034120888813
     8   1      1.1847478640461979      10.161580775213336      1.4807643548345704
     9   1    0.012929234670994171      11.530782568603129      28.430054647206891
    10   1      1.4632072568308456      13.058265213053673      1.3731316239999394
    11   1      28.610631688206187      14.469491013485042      28.599793856535232
    12   1      1.3692936657579706      16.019926252758804      1.2095186859260478
    13   1    0.032253492370401059      17.525398310034323      28.654709101756769
    14   1      1.2699869643843396      18.851452590170133      1.4861702618555797
    15   1     0.24471001106219628      20.218697375248002      28.634185399826578
    16   1      1.4199942196704569      21.680870371615271      1.3535900919528443
    17   1    0.011125177312979722      22.911030220726918      28.398756218388105
    18   1      1.4145196510237721      24.446643903787706      1.5454030928375229
    19   1       28.69912265637825       25.98157819510406    0.032037794499388011
    20   1      1.3841776378855586      27.179851508164706      1.3865922250517435
    21   1      2.8885734470839575      28.663047000955117      28.604677703001443
    22   1      4.3954660437873292      1.5095499825154988      1.4097994741253939
    23   1      3.0686907381129291      2.8738562003778934    0.089657217019305166
    24   1      4.2134783451084346      4.4242060507524466      1.3758579728465397
    25   1      2.9337125811200719       5.694331387209342      0.2037570289976883
    26   1      4.2617483301794694       7.364017912131021      1.3372124994426253
    27   1      2.6363651087504749       8.679239450755901     0.10727285819809831
    28   1      3.9808829850263217      10.059483302954719      1.5274180616729616
    29   1      2.8214815170088179       11.45660465172171   0.0041134396591701169
    30   1       4.344809091944219      13.021994230635061      1.4262463628880604
    31   1      2.9367154693279081      14.223189944426972      28.692536569812404
    32   1      4.2792722897699917      15.593239591360019       1.207874888935919
    33   1       2.863228936242924      17.380409299176765      28.633503260254258
    34   1      4.3217527755597285      18.598429271929373      1.5741635010223369
    35   1      2.9181087719234693      20.033825280888866    0.077900869559994146
    36   1       4.257525864249585      21.618345410231456      1.2290658816670414
    37   1       2.888273219728684      23.100450309352826      28.467389157196752
    38   1      4.3150381247815748      24.303991898558667      1.2739290063629471
    39   1      2.9753083478853606      25.886461590298499    0.003687740983093581
    40   1      4.2085209673296449      27.371854443686388      1.5122930783593445
    41   1      5.9103981615375201      28.561584308002598      28.588457092851954
    42   1      7.1039379917002297      1.5379496117850509      1.2502746948802144
    43   1      5.6811037259389394      2.9244539311771347      28.627143674680184
    44   1      7.0399865591317443      4.4546917326331563      1.3736862511030046
    45   1      5.6218641572007755      5.7878943961642131   0.0047309629954156735
    46   1       7.102165781086363      7.2601580113621447      1.4839920638832718
    47   1      5.7067064442655591      8.7792063560321179      28.601046446517135
    48   1      7.1511907193704287       10.10509497475274      1.3646934724108049
    49   1      5.6030169123733691      11.466007535128167     0.07174835920507118
    50   1      7.0110844429098922      12.861580781001901      1.4606538315646274
    51   1      5.6979222383466466      14.241296178145728      28.669624483186528
    52   1      7.2232410640841058      15.669540571232067      1.2509677160732955
    53   1      5.6059356093624988      16.982996440121234      28.585427782920789
    54   1      6.9378196132444199      18.725207248100158      1.4081751252744645
    55   1      5.6738645745591763      20.180749795322917      28.574570168522293
    56   1      7.1595780806766545      21.650738538188634       1.451153172821023
    57   1      5.5891919779900148      22.853352636627619      28.546723130775348
    58   1      7.0368192329328183       24.29511444243818      1.4479017903663136
    59   1      5.9563269361416928      25.997213613035733      28.629970575848319
    60   1      7.0702399726917182      27.079441085554276      1.5076190606354312
    61   1      8.6794838725171513      28.586195933192982      28.651107032623969
    62   1      9.8704665345731666      1.6939133466681373      1.2933005985670438
    63   1      8.7356471455439273      3.1827540963770038      28.599225525206379
    64   1      10.116540990596132      4.4626492490446372      1.5723893223910632
    65   1      8.7546695960996246      5.8424960262240431     0.10872398321160982
    66   1      10.164733389731214      7.3244218770455634      1.4867080453169008
    67   1      8.5539816050920905      8.6558571916280425      28.673372801117555
    68   1      10.031014480873658      9.9340085150648836      1.2308497462533745
    69   1      8.7169837280640134      11.526689927032583     0.11366284502687439
    70   1       10.14337838656464      12.977940291757513       1.459907903685052
    71   1      8.6085844756078753      14.200815017427397   0.0057029353911730238
    72   1      9.9868277436029746      15.794434149101185      1.3770689636592242
    73   1      8.5291418619939368      17.327138540552156    0.059748020313554751
    74   1      9.9456932342060593      18.771400555184076      1.6045468545789727
    75   1      8.5721667282239338      20.191069407067623      28.588686561178953
    76   1      9.7317297455180434      21.308552157885263      1.7671217060459863
    77   1      8.4977944768521301      22.733668719985943      28.699007163429002
    78   1      9.9726778422854885      24.383840874509715      1.2798243843093582
    79   1      8.6702670722425736      25.881178023939729     0.03456210487952386
    80   1      9.9722527264781871      26.903292332448046       1.687648735093183
    81   1      11.429959362483478       28.58563147976378     0.37049896225477158
    82   1      12.713124782952329      1.4942394709862701      1.6036212950152269
    83   1      11.550246024258152      3.0504074636015375     0.16290406201147775
    84   1      12.991842612017468      4.5982806897208839      1.3684527526470447
    85   1      11.537825969089409      5.7591724670191624    0.022381123885929815
    86   1      12.883340188113513      7.1867125607735085      1.5104803819358936
    87   1      11.421544741085752      8.6718065997604583      28.685448225090795
    88   1      12.970424097525409      9.8973731833367395      1.3310346305664198
    89   1      11.608055122311896      11.507151349106328      28.688702483425732
    90   1      12.750364980174808      12.942686717223905      1.3881381215758766
    91   1      11.583808420508193      14.499858671557462   0.0078867253211910883
    92   1       12.83650227025681       15.97075589794812      1.4059281380156898
    93   1      11.501546243087734      17.364693321438509      0.1070957091061929
    94   1      12.965516118681554      18.536506027680563      1.4246982628432541
    95   1      11.522595687773793      20.046736612290481     0.13668087047923327
    96   1       12.91194805695798      21.394307710446054      1.3803539901129498
    97   1      11.262773335699126      22.742163447173215     0.16452154044676504
    98   1      12.777985179060895      24.504104432500114      1.5352573317784617
    99   1      11.631282297379899      25.962833846463862     0.17551548350007795
   100   1      13.019251611001925      27.340170531760329      1.5368352825877092
   101   1      14.203185688703705     0.13331029023028121    0.083479976090893609
   102   1      15.756701810390403       1.467249944847117      1.5555155265143419
   103   1      14.206820995980808      2.9462202120063581    0.095686070640351673
   104   1      15.919622499001363      4.3789891749321468        1.62509763457981
   105   1      14.522184915845276      5.9120273777114436   0.0043318058090903791
   106   1       16.06271886707675      7.0820889269064571      1.5902201681493338
   107   1      14.555962956342029      8.4388460189825718      28.655231881451702
   108   1      15.908355351657297      10.019333375753837      1.4094235409057443
   109   1      14.353382923457877      11.473733669121383    0.087271498315305965
   110   1      15.821493299578339      13.016507033306242      1.4153514440263286
   111   1      14.218308922901983      14.202750348786132      28.626954719576919
   112   1      15.676640177205901      15.735155521420376      1.3103148417366917
   113   1      14.262438305088677      17.135109905111321      28.537603227249036
   114   1      15.996460817052204      18.532525530193592      1.1145603192658537
   115   1      14.331168614270544      19.921940433233239      28.689291168838082
   116   1      15.666012830883965      21.441415516297276      1.4256857031616492
   117   1      14.365770090151335      22.983433851095452     0.17571320104713081
   118   1      15.849436325297134      24.426069490953935       1.576572693787567
   119   1       14.29113268065554      25.652961838476582     0.17359159907206267
   120   1      15.692425639356461      27.285494320113102      1.4535750293208032
   121   1      17.067041461406145      28.696110170051895    0.035170634538110319
   122   1       18.52719415884243      1.4176073913623224      1.7429190411042084
   123   1      17.253788149495652      2.9618166392762495     0.30537624831008675
   124   1       18.89796162059865      4.2860869066940417      1.4944255791178183
   125   1      17.218976242366555      5.7217502022697975     0.11417548089467586
   126   1      18.705834863466649      7.3156612916816339      1.4320840640241508
   127   1      17.369620460018339      8.4621987448665479      28.548675819747054
   128   1      18.815049552627048      9.8473053127258581      1.2141966153670396
   129   1      17.226040970456705      11.390254161002581    0.069517189952375824
   130   1      18.745808559212211      12.940360652744538      1.3631603026359129
   131   1      17.332613519376757      14.279794822613585    0.088718388658583072
   132   1      18.993717625048237      15.609565462586277      1.4093598410973747
   133   1      17.375959265153988      17.014303125856728      28.612202434822251
   134   1      18.740358758246984      18.704704553990521       1.443442978921802
   135   1      17.273005200565343      20.280480248005553      28.620405896677731
   136   1      18.766225205859886       21.29301496972543       1.405067206749004
   137   1      17.271861447346769      22.955491973566804      28.682640227000903
   138   1       18.92558735339702      24.372145479319631      1.6131672888709099
   139   1      17.175935693364263      25.672830957365523    0.051774254415170293
   140   1      18.578990611376494      27.206883759267289      1.4735191837195549
   141   1      19.992821637641143     0.20014660540478135      28.593129186214885
   142   1      21.375038505619688      1.2935855450208118      1.3531029282892282
   143   1       20.15054769010538       2.879753411365706    0.056306871289279886
   144   1      21.577033504150638      4.3634164617555307      1.3858093201451887
   145   1      20.283994924663581      5.8931389268119423      28.688082102190613
   146   1      21.668843119651903      7.2406332726670692      1.4166157780604169
   147   1      20.118812495655501       8.513870089873631      28.660465244202403
   148   1      21.450176078319043      9.8448610791158089      1.5087186784225177
   149   1      20.105753528580998      11.267685034922236      28.590583304812018
   150   1      21.581576857168134      12.845023875457009      1.2003292781315962
   151   1      20.166963310343174      14.078164735927119      28.633022529910164
   152   1      21.530294150011343      15.683558212125661      1.3030587384224304
   153   1      20.050238943677485       17.13184887843294      28.649713682182792
   154   1      21.763827808677902      18.567432357199912      1.2560508696846333
   155   1      20.158685427513884      20.055632338453059    0.023428242058241726
   156   1      21.539072702586008      21.509280039898265       1.410023806121943
   157   1      20.264456143754511      22.967520393571299     0.11195293102286991
   158   1      21.694706835419765      24.180649859291464      1.5898569998570913
   159   1      20.143603352236848      25.860609027044738     0.13182222351952078
   160   1      21.496549267909273      27.262869554186693      1.4734169571691149
   161   1      23.023179114367181      28.668757452645401     0.19731696085268599
   162   1      24.362436660535419      1.6037748839370238       1.432014748318817
   163   1      22.756077156768747      2.9407063790686889      28.676833193306269
   164   1      24.646007070489841       4.247299253297073      1.4200100484601321
   165   1       23.05933639467019      5.5174931768929119     0.13714395871595564
   166   1      24.176603429870386      7.0862552318829284      1.2678639484075924
   167   1      22.936738737306666      8.7289481152118213    0.046316471146190009
   168   1       24.33527142505617       10.00209192179859      1.6079427621501976
   169   1       22.99230574659429       11.39075791705509    0.081971982896345774
   170   1      24.396674813130602      12.947024206121043      1.5488945182354654
   171   1      23.049032149749888       14.22890529196702    0.043819093760646535
   172   1      24.589919144636703      15.813402270511482      1.3866110672899701
   173   1      23.019040621833948      17.033321075836049      28.583439244796345
   174   1      24.223771152491643      18.645583503640996      1.2842193978196867
   175   1      22.902137860980659      20.023043831797871       28.52268634542159
   176   1       24.18997043993944       21.62511973228894      1.5169096331241798
   177   1      22.961554220583306      22.883072532141984       28.66102386865342
   178   1      24.272896398750145      24.248921931278169      1.4061592891756283
   179   1      22.982988980842677      26.051665731729802     0.16248364424595801
   180   1      24.235215708376654      27.365721218215857      1.5085110365850256
   181   1      25.928718087913801      28.677491908873794    0.014102789607409259
   182   1      27.265582622222631      1.4916876499861027      1.4194518658640389
   183   1      25.791078657236394      2.9906381189436684      28.489041373748002
   184   1      27.194609585288795      4.2352095313771638      1.3019755740153738
   185   1      25.793585216302816      5.7911594836636793    0.012896209784071288
   186   1      27.146367001585773      7.1586856977989051      1.2496869526147394
   187   1      25.630217637549482      8.5318500464091489      28.531979250072276
   188   1      27.303708864682076      10.080871715240258      1.4159031408923384
   189   1      25.909234791423835      11.488950483303451    0.086552642579476827
   190   1       27.59137099102356      13.015941122644735      1.2750837534772823
   191   1      25.900417707059553      14.188136600409472     0.12424926899453802
   192   1       27.21423521364267      15.963980412071585      1.3769520354086575
   193   1        25.8309570999618       17.27878861352719    0.036540048703182004
   194   1      27.148175492152884      18.691767569181184      1.4076096470628277
   195   1      25.778797089881945      20.095043978337703      28.640330413036722
   196   1       27.32435054356494      21.758354153517498      1.4313962546483148
   197   1      25.908072276114762      23.147878669027982      28.531256822664773
   198   1      27.393919126666781      24.609875423808898      1.4062130738555301
   199   1      25.850621509978016      25.815889592025535    0.052511200627498075
   200   1       27.30925472781875      27.537712433965854      1.4348414139820655
   201   1      28.697374935733205     0.11214129528467544      2.8371375651541366
   202   1      1.4219615937182661      1.5854223627842543      4.2352785386227465
   203   1       28.67801806793841      2.9737035227925639      2.7229489780157912
   204   1      1.4836362012592996      4.3100591322518538      4.2961167451534701
   205   1     0.11179988620764397      5.7993525320597632      2.9576997453984863
   206   1      1.4637059163902004      7.2810014609128917      4.2801563066209587
   207   1     0.03790534854032402      8.6436614649092007      2.9440880942027801
   208   1      1.4202145839404916      10.268204227433582       4.425619418763695
   209   1    0.049259146389114113      11.742747788235407      2.9544484812566032
   210   1      1.5702700320564751      13.110263653164152      4.4059587182876676
   211   1     0.15542390503486664      14.605423470063208      2.7376486275107812
   212   1      1.6091726415036776      15.848231561349548      4.2660259390066644
   213   1      28.560415499704281      17.361618354680367      2.6840059780331207
   214   1      1.3970382319727488      18.638811029359765      4.2639683801530479
   215   1     0.03320344245734231      20.304197095931169      2.6765352969451905
   216   1      1.4860909240309068      21.476475566829546      4.4103373953734764
   217   1    0.058995184486208815      23.106505071451952      2.9028874264749929
   218   1      1.6804399015331017      24.343251475104822      4.3220365474272082
   219   1      28.668912566726366      25.981164186891753      2.8533984409125432
   220   1      1.7217121810430764      27.445231009828628      4.0824163862002401
   221   1      2.8156911190348404     0.34962179034529189      2.8336946488112962
   222   1      4.4285489093967412      1.5817733508180147      4.4225500854694886
   223   1      2.8679303187358984      3.0430364463762758      2.8099628561778314
   224   1      4.2386913557379877      4.5734674074003134      4.2512213677739181
   225   1      2.7983673712318811      5.8167039910412921      2.6217648305711343
   226   1      4.2797006016095498      7.1598129606632392      4.2217561632427021
   227   1      2.6471485620304174      8.7385932839683935      2.9691835296313323
   228   1      4.0708124668813754      10.095529362298763      4.3162990318741929
   229   1      2.8286690585329342      11.766467898712243      2.7511019816869289
   230   1      4.1523750996964548      13.126699940726807      4.4328951305289346
   231   1      2.8360127108194773      14.499059266615912      2.7218145594093919
   232   1      4.3273539579715603       15.75609368994068      4.1165936579948141
   233   1      3.0265149391890782      17.165052349906468      2.8179508548156034
   234   1      4.3152525419302767       18.86659004879089      4.3979879215223452
   235   1      2.9340991272956551       20.09390812396013      2.9601986207280766
   236   1      4.2768623139069941      21.478988099338448      4.3921032203589547
   237   1      2.8275593294897363      22.893470878502207      3.0531869081852387
   238   1      4.3272193656549058      24.379602621302915      4.4874234192909457
   239   1      3.0045668796245302      25.717493788481683      2.9588314968940601
   240   1      4.3867754511068169      27.191503903711514      4.3811897054186195
   241   1      5.7539836965670519   0.0054519485123593787      2.9775501398073461
   242   1      7.3078432100341422       1.500164743718982      4.3521292732496271
   243   1      5.5825740641067938      2.8885501807333527      2.8938963669226938
   244   1       7.042107339393656      4.3857346726602673      4.1492974291567144
   245   1      5.5328404630373029       5.839766792238966      2.7047953288158841
   246   1      7.1037502054521218      7.4270121186619606      4.1742470077160689
   247   1      5.7146432473203852      9.0237408407033453      2.7745645169165751
   248   1      7.3751217136679434      10.027786410504378      4.3909596055293054
   249   1      5.7355175691568565      11.395916957440694      3.0119646693042355
   250   1      7.2094986884202896      12.780876845419016      4.2693462814646868
   251   1      5.8030354154952191      14.445080068248465      2.7637701338681824
   252   1      7.1642554346456704      15.746675707694372      4.3553031787528163
   253   1      5.9112292858430218      17.152619850632878      2.9123792168949345
   254   1      6.9816068054782914      18.615393418708621      4.4017570597649991
   255   1      5.7787463317867065      20.141251283062299      2.8113262733886235
   256   1      6.9849545644601445      21.646715159635523      4.3860522063436198
   257   1      5.5701705719159929       22.96376803039912      2.9139427431440574
   258   1      6.8778755231268409      24.540794373995062      4.2844804746825345
   259   1      5.4758609754224654      25.740103316487641      2.7056653277347085
   260   1       7.191921616325093      27.240304306676897      4.2697623108684644
   261   1      8.5234620298453816      28.642000495374422      2.6983557688865174
   262   1      9.9910791649228816      1.3019073572806743      4.1234674117691643
   263   1      8.5493914972476421      3.1498807284829256      2.7427120293521385
   264   1      9.9021764275585742      4.4217567180781447      4.4172308631377053
   265   1      8.5676867386123448      5.9437966647056903       2.823611081165871
   266   1      9.9766897761135436      7.3610722941544733      4.2657741894226548
   267   1      8.7502731969545025      8.7470569993651619      2.8198278737225122
   268   1      10.198967483642452       10.00547161678535      4.1778881815915971
   269   1      8.6397358384620038      11.598486193431135      2.8378218290342039
   270   1      10.152553136847233      12.918005374406809      4.2042014578787565
   271   1       8.461344327690318      14.376423062649575      2.9335281648284606
   272   1      10.166723108352539      15.716316652179787      4.3613377493788725
   273   1       8.585969256927843       17.26496091169826      3.0423743329063089
   274   1      9.8471241492949151      18.644740982247502      4.4131457144131447
   275   1      8.3916238767414004      19.848028793930361      3.0499021089341802
   276   1       9.980695740936584      21.557115725063355      4.5561384026782639
   277   1      8.5221577868408112      23.188605671822739      2.9907416403639693
   278   1      10.148483516338841      24.255577552797266      4.3773858322230526
   279   1      8.7092305216301487      25.721802303984617       2.964166851003553
   280   1      10.055175103618314      27.429254211346713        4.34394570248456
   281   1      11.400560695705797      28.675849158244702      2.9810539303174792
   282   1      12.834058012671608      1.3462032121645271      4.4233594209073361
   283   1      11.568803372629086      2.8222619002019886      3.0312737071330447
   284   1      12.936890443633093      4.3305247621195431      4.3504030854083373
   285   1      11.527793081430804       5.886739487514955       3.026277665577318
   286   1      12.921482133130901      7.1979237053681153      4.2365198188099251
   287   1      11.518379841528722      8.8011100348571958      2.7454030741395847
   288   1      12.993118928497863      10.137510957884189      4.1080656436264134
   289   1      11.501572606163629      11.433229953453212      2.7298865505899927
   290   1      13.045289914019008      13.082480667191641      4.2665279185655578
   291   1      11.399101207647714      14.515405711426466      2.6396118649713785
   292   1      12.873924683858929      15.734591903504407      4.2805435022495004
   293   1      11.323909965044407      17.109061864860848      2.7663018068526628
   294   1      12.840853149216617      18.674368563338092      4.0711087963147481
   295   1      11.422290783401925      20.103940619040447      2.8744710531382096
   296   1      13.026664743488476      21.679859531683245      4.2726207283965474
   297   1      11.396204112775942      22.990115968933971      2.6400200870886557
   298   1      12.867687317141396       24.32630611985973      4.3812385923693693
   299   1       11.55226624632709      26.024391322053695      3.0848876144813411
   300   1      13.056514587313178      27.439515624005988      4.4154722006044826
   301   1      14.345356153960941    0.033341241113487602      2.8999598051332165
   302   1      16.019934126994958      1.5818291237741287      4.3265423931454619
   303   1      14.339128049877967      2.9050191334937772       2.797244433626485
   304   1      15.895103953010201      4.3104023411254806      4.3339285208196729
   305   1      14.385180308162994      5.6990582409733515      2.9416180164442358
   306   1      15.874215665939275      7.4054310280634112      4.3254365393541647
   307   1      14.443973973831255      8.6883643702899125      2.9033392641109459
   308   1      15.921982251752848      10.024525367303122      4.2296155478939577
   309   1      14.354613384760036       11.62955135066826      2.6936583953815769
   310   1      15.767660317704006       13.07561726394848      4.1847536812666659
   311   1      14.303908608445477      14.465991671483344      2.7625508093240327
   312   1      15.787536005191917      15.873439914164518      4.1738940932224073
   313   1      14.429633565318477      17.247764330348197      2.7941078527017442
   314   1      15.852016629502947      18.811723142754285      4.2675812342507102
   315   1       14.40861603495591        19.9152719574966      2.6707238839806324
   316   1      15.915169794060068      21.481587569763441      4.3458624568162314
   317   1      14.219069442838126      23.134041903083801      2.7733636299403646
   318   1      15.763627819662435      24.316939391871493      4.2984017675888113
   319   1      14.310868143840915      25.790522259372466      2.8098844897869864
   320   1      15.781289688410755      27.240386992310075       4.258113755198135
   321   1      17.126720050445552      28.675753673129311      3.0367394474907612
   322   1      18.669248539240389        1.42390456789492      4.3315652958127764
   323   1      17.304274716095787      3.0915512478293921      2.9610403789367448
   324   1      18.827906371023779      4.1414131862874877      4.4027996930224029
   325   1      17.453560498831525      5.9206046846144913      3.0978312564945969
   326   1      18.683535951587327      7.2058699017592529       4.552041042800596
   327   1       17.17469520357049      8.7199649210697672      2.9099908199473816
   328   1       18.69850504845035      9.9751832628294768      4.3365740478003865
   329   1      17.174156931591131      11.548776784111055      2.8110491554361605
   330   1      18.556504076797573      12.942163392901984      4.1952418410235026
   331   1      17.179285656734649      14.353064627160675      2.7540351279780575
   332   1      18.721466977902068      15.624294211100294      4.0738492682734995
   333   1      17.162367124765556       17.16122141336044      2.6455071088194684
   334   1      18.744651142804234      18.475068551845073      4.1964689861077034
   335   1      17.159953951059418      20.198057752902642      2.7046268358049796
   336   1      18.636836173246252      21.468341655280494       4.477102631971281
   337   1      17.189634971418823      22.950583660813283      2.8013457752216016
   338   1      18.819323490438073      24.330011831583896      4.3996638321644479
   339   1      17.133006282716295      25.756596577528811      2.9201780877826233
   340   1      18.624649285776151      27.261773844759244      4.2553040971981995
   341   1      20.034698351800891      28.615258557224625      2.8819635398450578
   342   1      21.493841646097522      1.2759517277525902       4.343355250792861
   343   1      20.187012863982485      2.6638922026464331      2.9386874876039286
   344   1      21.262448336056917      4.3828438729670705      4.2363227432048634
   345   1      20.100750997259119      5.7810983687539927      2.8375552337947845
   346   1      21.582990708131078      7.1574276110094219      4.3209653032903068
   347   1      20.244894370554753      8.6603083140629877      3.0015654046744356
   348   1       21.66011594997822      9.9484139648097365      4.3138105950248722
   349   1      20.010989931980326      11.452515317539941      2.7488996565721528
   350   1      21.551122335601121      12.760643888787076       4.426009843134203
   351   1      20.406570950505333      14.268984009028131      2.8840378760661776
   352   1      21.662398806790467      15.641340037143941      4.1544900744789697
   353   1      20.184042033322555       17.00671505785817      2.7948921666211368
   354   1      21.638597471885248      18.410769785930949      4.3155879965381132
   355   1      20.275194750443685       20.03593224904661      2.8854309992149538
   356   1      21.398434014140559      21.291933808512177      4.4903693049127025
   357   1      20.269914711870147      22.871294994736843      3.1916084923239731
   358   1      21.533015267881463      24.505910844407875      4.4500723924446675
   359   1      20.131016628435834      25.722076558551791       2.966862719829515