dump/Fe_1050_0/steps_81 (written by ASE) 

2000 	 atoms 
1  atom types
0.0      28.699999999999999  xlo xhi
0.0      28.699999999999999  ylo yhi
0.0      28.699999999999999  zlo zhi


Atoms 

     1   1    0.047915156663918809       0.111669316037944     0.35289905825241052
     2   1       1.258790591369507      1.7149725402423881      1.5039606336874274
     3   1      28.510182761946229      3.0281748910934922     0.17967114068032961
     4   1      1.4154484190249939      4.3905023362702602      1.2698195274348236
     5   1    0.051840227587970113      5.7339055331217619      28.637048066671657
     6   1      1.4747384781218442      7.2157167290930451      1.3831635707483432
     7   1   0.0095295555400531102      8.6593044201198559    0.020986497729211361
     8   1      1.4526613242945929      10.334171905658861      1.5672661676250061
     9   1      28.679484189220361      11.474925762939323      28.570238133861181
    10   1       1.541668674581274      12.748555905995007      1.3401417554239863
    11   1    0.096336350604884394      14.391221405454353     0.15213620070629744
    12   1      1.4441896770371512      15.697167803335081       1.449199532579666
    13   1     0.22718194262527344      17.188609776884636      28.625719955816351
    14   1      1.6285828133237166       18.60842937984269      1.5195692382326664
    15   1     0.14688552546894326       20.06655079378384      28.404185542805084
    16   1      1.6160118068906184      21.318357620365436      1.3114890293780819
    17   1     0.16607379674337738      22.875599318282998     0.22890013223700412
    18   1      1.3964106510993368      24.535375723855314      1.2047410681121502
    19   1      28.596974800130258      25.692943931516471      28.511278290204391
    20   1      1.5522796279113209      27.411347878084502      1.5249859515866786
    21   1      2.6420673264697836      28.640148502943816    0.023388512796930175
    22   1      4.0906284589679665      1.5934580073621427      1.5086546023433809
    23   1      2.7189022622046317      3.0215553894149187      0.1114525263973293
    24   1      4.1904134557598613      4.2503847394532741       1.463658271595331
    25   1      2.7996247387344075      5.7410945445395098      28.616700734929935
    26   1      4.1733456545648062      7.3297595724414482      1.4207569905457369
    27   1       2.701678142928075      8.7823298198121371     0.20076633328948232
    28   1      4.2722262144596082      10.118602240675736      1.4855479751397411
    29   1      3.0573640898670509      11.380622550030299      28.642224867271896
    30   1      4.1518316931273542      13.158814196937337      1.5117694175077081
    31   1      2.8457433328081287       14.23876853586329      28.528792158169512
    32   1      4.3765116818519978      15.563595432915582      1.2029689279685047
    33   1      2.8740074976733059       17.11836171722808    0.067052628575038339
    34   1      4.3251737829145123      18.731415214703055      1.5027546874565487
    35   1      2.9648075139790668      19.952444190506487    0.042400536148625094
    36   1      4.2851965912320145       21.46750918982212      1.4340821532826122
    37   1      3.0748577679203355      22.824631882610511    0.018922872766029279
    38   1      4.1584373768646081      24.498243382921082      1.4030436002334439
    39   1      2.9047042489268167      25.953557554498353    0.043676270690139109
    40   1      4.3482397170057689      27.441726207964187      1.5143167103313655
    41   1      5.6077538906405113    0.064542826413526155     0.16914405260754378
    42   1      7.2211769969217601      1.5064801058586335      1.5368444538243453
    43   1      5.6243055530875594      2.7551016682033818     0.20541493579422662
    44   1      7.0003711284188244      4.3316155422631866      1.4888342262149996
    45   1      5.5883081963290833      5.7891960274768222     0.19990980635600414
    46   1      7.1649459089658123      6.9709837959003913      1.3824676180261357
    47   1      5.6110105176025789      8.5375451498404384    0.024952230344740641
    48   1      7.0803263464404926      9.9950566834361787       1.276569538477339
    49   1      5.8467514738575375      11.396732915506435      28.677549798151919
    50   1      7.0719229584387362      12.878977723641572      1.4631939397214073
    51   1       5.833945793432247      14.195189457057483      28.577179608771875
    52   1      7.0852561191539056      16.031410819590217      1.4907182550782412
    53   1      5.4413658674818119      17.277229744074621    0.034570485967447079
    54   1       7.135717297028938      18.562093118438398      1.4952362388202236
    55   1      5.7244490017765992      20.093972678445855    0.010074020496927008
    56   1      7.1905616428723311       21.36818561180014      1.3343985132994129
    57   1      5.9037818007986269      22.905439312992439    0.066956479655175413
    58   1      7.1472308029493803      24.305240048995099      1.3764174872638588
    59   1      5.7269231606476243      25.651488333178087    0.031505786594220785
    60   1      7.0307003311068774       27.11823748792774      1.4253486762926963
    61   1      8.7495847282720103    0.066172850717532594    0.037829379722643254
    62   1      10.243976354559084      1.5390495300412568      1.7273658773999485
    63   1      8.5223869534930774      2.8428842279327577    0.089481908776701688
    64   1      10.038599709931898      4.3019680385356658      1.2900585487211411
    65   1      8.5820057383816533      5.5137375954915786       28.48384474436725
    66   1      9.9619944432571579      7.1190278501940067      1.2887199927725175
    67   1      8.7890497125297991      8.4785640161363514    0.033970475694343437
    68   1      9.9977963892539972      9.9640350944787262      1.5121692206949653
    69   1      8.6861341961101264      11.311008879887979    0.014998833047263805
    70   1        9.92874826481785      12.841779589540641      1.2946544461583476
    71   1       8.692531250633964      14.302267104778396    0.023963376390099697
    72   1      10.000608484147232      15.681052781985715      1.6180732152231472
    73   1      8.4297463858942994      17.317653310326218      28.684553005161906
    74   1      9.9648677747215029      18.664325304631731      1.6506444395090731
    75   1      8.3675045716048473       19.85543453394806       28.59495461534711
    76   1      9.8354723552769077      21.511928581926316      1.6887072239964933
    77   1      8.6594568230028663      22.829941926449159     0.15097328730475973
    78   1      10.152583779936682      24.328004274042375      1.7069998654708329
    79   1      8.8186994500308149      25.683952567060878      28.664860599123614
    80   1      10.158142591328401      27.072338942319757      1.7206866910155429
    81   1      11.365540135942815      28.627066998835563   0.0081772627277246213
    82   1      12.832558377712234      1.3321617428128303      1.4040290754220219
    83   1      11.633918357255435      2.6730655399942891      28.644056480826539
    84   1      12.940256498593127      4.1504965492352666       1.398743330088722
    85   1      11.526706018243706      5.6350730377630551      28.650588105026376
    86   1      12.791618893771465      7.2913230822791224      1.3279309117110061
    87   1      11.563419119245234      8.5717607975470731     0.10894790096477883
    88   1      12.919356065909199      10.149040398736878      1.2580427813725796
    89   1      11.619522230650707      11.501492273572762      28.592206840353164
    90   1       12.94962977002081      12.979864380943303      1.3899756030617818
    91   1       11.30989943119541      14.407578474810322   0.0055124401964803758
    92   1       12.92021603640165       15.85974577265084      1.3939563675414106
    93   1      11.287681573556172       17.31138661215671     0.19603329390234889
    94   1      12.832036823348503      18.646531184337629      1.4397316913223221
    95   1      11.184271546148301      20.122850809199836     0.22455684948911311
    96   1       12.94519815984909      21.597230051458844      1.2338726064938548
    97   1      11.472985670002076      22.842845405599473     0.14655103533209499
    98   1       12.74939733286835      24.346533897534218      1.5241482246673725
    99   1      11.518190965605763      25.997238907416648     0.18880588209817681
   100   1      12.851554302632199      27.316220941769942      1.5135202928631326
   101   1      14.421778292828625      28.685849844153783      28.672073415505608
   102   1      15.722658906235223      1.5615664329547589      1.5414748648228747
   103   1        14.4070033625876      2.7085557913386653    0.016058465794662889
   104   1      15.627380779638996      4.4114039326883665      1.4137002189928916
   105   1      14.172292514626179      5.9117023843126679      28.585116422448809
   106   1      15.750701745152359      7.3058811995602211      1.4158872469899846
   107   1      14.282322727793854      8.6581666964314952      28.682287552195067
   108   1      15.731080257897778      10.029542925702572      1.3543103733549049
   109   1      14.359121742223792      11.741827143729608      28.621801199484612
   110   1      15.845489544211009      13.134813709173974      1.5165038724463538
   111   1      14.557935871682586      14.518256839319713      28.540545535521833
   112   1      15.648235519078041      15.849114483008197      1.6622897054750647
   113   1      14.070732725288574      17.283134446978544      28.579340416594441
   114   1      15.585655093726421      18.677820787358598      1.4674147955187218
   115   1      14.334799065677146      20.152423728416505   0.0017694621611326503
   116   1      15.839083270731894      21.503059200672297      1.4272588417176402
   117   1      14.354415797634099      23.001425970533642       28.68589655698996
   118   1      15.785573316754569      24.195703819881199        1.38507832640522
   119   1      14.359328800624764      25.698939721021787    0.027515284528794832
   120   1      15.940419454371673       27.31920487363249      1.3105779407912226
   121   1      17.317298786469976      28.690061973408039     0.14494160004874168
   122   1      18.565006319230061       1.349649091385595      1.5794057044525409
   123   1      17.141325173209385      2.8946409275958285     0.16418005440651764
   124   1      18.807608693381976      4.3219514097123213      1.4079235017459393
   125   1      17.255476894837134      5.8240140194342702    0.040494170934152827
   126   1      18.484954554421186      7.3170267052506217      1.4789374270910554
   127   1      17.322269369822234      8.8809802564861915      28.597076865416202
   128   1      18.750114021075266      10.213504975757461      1.4317383476010048
   129   1      17.227498550128551      11.614069450581304      28.613040460809295
   130   1      18.639187870029478      13.041670647438153       1.193073783765773
   131   1      17.262113196458611      14.566018406817145     0.13396210282581922
   132   1      18.926389105847147      15.971692812153959      1.4323219617890557
   133   1      17.087006171691694      17.245865483083819     0.15111640484407188
   134   1      18.609582783503864      18.669772550651846      1.4406987530062005
   135   1      17.176463915209766      19.968209188814178     0.07550734371632184
   136   1      18.592820745534066      21.601388382839996      1.4340573585393943
   137   1      17.286856026851673      22.910340290656901      28.516215399803016
   138   1      18.511888511549575      24.522926805846229      1.5363039903282008
   139   1      17.232133052980764      25.749572716850434      28.626099371951028
   140   1       18.64299041010522      27.177707412179323        1.48609873944507
   141   1      20.094276712396923      0.1455989946112595     0.19603454591192521
   142   1      21.526465201460926      1.3783657739089916      1.5248562094338909
   143   1       20.14330951572579      2.8138718731749006    0.095839453460087057
   144   1      21.360698868644516      4.5534420573250785      1.3968017163677362
   145   1      19.810627475013042      5.7595810066602553      28.636475991164595
   146   1      21.456747135076366      7.2418599338990299      1.2959794236495326
   147   1       20.05930098542628      8.6257506696076813      28.636750585184963
   148   1      21.529946217153334      10.152364635057875      1.1951413768306909
   149   1      20.062013883189113      11.596870436935227      28.549375764254123
   150   1       21.65782164231339      12.806233647293354      1.1532894120251838
   151   1      20.329078545215477      14.335417961264106      28.455695279857125
   152   1      21.454093918612955      15.624761969733004      1.4291701835821624
   153   1      20.164488575562942      17.322756890969345      28.548774575787675
   154   1       21.58723456117529      18.678623882622347       1.504298614896334
   155   1      20.023709158769211      20.108259495068534      28.666762930334066
   156   1      21.421113185656797      21.363230652799544      1.5106487093166592
   157   1      19.826622083956888      22.907106526526938      28.652668153594803
   158   1      21.487019455507596      24.028799383235967      1.3049967287251658
   159   1      20.030263849253796      25.668577102196483    0.041118233539964459
   160   1      21.460058514298769      27.167869865846416      1.5546516683973992
   161   1      22.997779094348818      28.661859000888175     0.21585945236701032
   162   1      24.226779503537923       1.574890322212751      1.4932684787393089
   163   1      22.879020380883684      3.0489881332707616      28.572961146123362
   164   1      24.291762401168622      4.3579782335415791      1.3015453104398378
   165   1      22.794935086889964      5.7693604945284251      28.659104396614499
   166   1       24.30979063559554       7.016758278906809      1.4083858810551295
   167   1      22.909719328623268      8.5955592284580362    0.010906464867741748
   168   1      24.462535094266045      10.011957923661939      1.3535512212320551
   169   1      23.174627118124491      11.311053435204242       28.60842704334447
   170   1      24.431957411149135      13.099181900400708      1.3172117587632906
   171   1      23.100046071328332      14.286261414642226      28.465601047853198
   172   1      24.346347915957356      15.789671745878659      1.2134261464474771
   173   1      22.950200724221656      17.294696798089007      28.515721224535348
   174   1      24.315189875741652      18.567024090085205      1.3140278557097067
   175   1      23.048397832363385       20.14426343297151      28.545534130292651
   176   1      24.614948958652988      21.295522962177944      1.1997253277190558
   177   1      23.051363946487882      22.826828095202188   0.0089783489344199673
   178   1      24.287817923474581      24.523151316987491      1.4821736618909869
   179   1      22.951424975468719      25.657781564990263      28.649562845780821
   180   1      24.282647429394444       27.13179332792394      1.4615975046435898
   181   1      25.730575626062421     0.18077676759525038     0.34218195839340498
   182   1      27.277557338073446      1.5390562278476054      1.5752342271747453
   183   1      25.826046167760602       2.944619997652282     0.12373685957895759
   184   1      27.114283122072379      4.5891949167523105        1.57478560107595
   185   1      25.749660921403262      5.9789432624551146     0.03461828286809817
   186   1      27.461505283098685      7.1139557029423708      1.6792054672676269
   187   1      25.866421482611571      8.3425346983337807    0.013737287791002466
   188   1      27.143108937746447      9.8351484190586476      1.4781887632781603
   189   1      25.757578224440206      11.356801429872123      28.694519150286389
   190   1      27.272555531634229      12.629264816876393      1.5109962425584949
   191   1      25.938213889945068      14.373853583740251     0.14566334169632006
   192   1      27.219734119224128      16.007300322598041      1.4480951915684162
   193   1      25.786713014609102      17.288208447566266    0.093796533908596338
   194   1      27.438856898424902      18.693938894760578      1.4200564180696682
   195   1      26.023004676308275      19.978981415014946      28.517818019130331
   196   1      27.348410526314641      21.429765621036935      1.1424478864135599
   197   1      25.804593578310723      23.051315306111125     0.09619489193478313
   198   1      27.212692723308518      24.338118736669621      1.5111573946105508
   199   1      25.827640431671778      25.795364616905228     0.25899843841782505
   200   1      27.314528385463742      27.463577138841831      1.4768387294771521
   201   1     0.17436076499408293  0.00022431339851910039      3.0098899565513402
   202   1      1.3371063386421262      1.3901076075996346      4.2575939544654791
   203   1      28.524757565704309       2.952725990478537      3.0241288410754792
   204   1      1.5311518509927855      4.3792415217608882      4.4383842335358841
   205   1     0.10717276876357618       5.612389592168368      3.0065920666463217
   206   1      1.4027376211079166      7.1290654740431982      4.2163905655620866
   207   1    0.036216496299312707      8.7273723300289738      2.9399129504408723
   208   1       1.342423151749256      9.9764717766841393       4.342685636306765
   209   1      28.624100683436311      11.524416437408423      2.9082088326363844
   210   1       1.399772369706852      12.991276021229272      4.2336574149051094
   211   1      28.551388653749644      14.309913017201184      2.8732162978040017
   212   1      1.1842496927047046      15.687859938280766      4.4246305690670464
   213   1      28.660508497188374      17.320136771572827      2.9605928954388947
   214   1      1.4476913512676808      18.598277657394014      4.3339290732888465
   215   1    0.065316541622452554      20.040113107666567      2.9564680320965415
   216   1      1.4219613421782826      21.283128742090334      4.4417278575720669
   217   1      28.696928526650073      22.825981524260637      2.7629764718383631
   218   1      1.4542902545515526      24.142656155136642      4.2647699289612646
   219   1    0.044202870343714958      25.837924981510216      2.9740533042849648
   220   1      1.6080856940942245      27.480005296637934      4.2586813084670077
   221   1      2.9580124554152669    0.081563104128315578      2.8140275570603417
   222   1       4.339488350832025      1.4851312104383858      4.0147173535520677
   223   1      2.6657150401513596      3.0485138541720858      2.7920510333808575
   224   1      4.3173346298656421      4.4456854016904339      4.5000476957638229
   225   1      3.0076686765269018      5.6396720841892938      2.9356783597440779
   226   1      4.2676867074853169      7.2725219203449099      4.3227720053240395
   227   1      2.8180314097867036       8.472754066670344      2.9400957036053099
   228   1      4.5331230468327801       9.811917780355536      4.3842901607668141
   229   1      2.8380719617609769      11.532767255889674      2.9037231985390868
   230   1      4.4118152567123055      12.882593705493875       4.364301733092538
   231   1      2.9418932313712722      14.529927541722968      2.9593730918617061
   232   1      4.2414979497647298      15.701037768796093      4.3873230410743034
   233   1      2.8232638558943561      17.165832379485835      2.8304497522856988
   234   1      4.2109874958206062      18.538666534730591      4.4971946631843354
   235   1      3.0024820923515332      20.045318388203114      3.1211083074260708
   236   1      4.3697894786880465      21.396373549827722      4.4221254824359892
   237   1      2.7554779056411252      23.084515728646497      2.7413813725740726
   238   1      4.3467668207144481      24.436700752197044      4.2872317915211635
   239   1      2.8946368069315107      25.843684159578473      3.0053537338618646
   240   1      4.3739390751423421      27.172281004135705      4.2202309884508269
   241   1      5.8790691003883966      28.653215234637006      2.7424952157363802
   242   1      7.2078198870146251       1.401679955562223      4.0312906636946861
   243   1       5.617431636958945      2.8927073637220575      2.7199363995655617
   244   1      6.9024193199762784      4.4492098455606159      4.1825434782026729
   245   1      5.5366413417184077       5.838756115512818      2.8701687453900688
   246   1      6.9988493092923072      7.0697795011325333       4.110069073361343
   247   1      5.7639934065583178      8.5943388983020856      2.7780754261521441
   248   1      7.3054724303052412      9.9716965399629292      4.2754708620260882
   249   1       5.932486050924112      11.286577062376214      2.9274764453148046
   250   1      7.2282225651552343      12.884973111742701      4.4084027568631363
   251   1       5.783502528732499      14.361155997279479      2.9955337073232786
   252   1      7.2400621983343649      15.822366640442388      4.1620113179554243
   253   1      5.5480847067422072      17.037168236259159      2.7909548462581264
   254   1      7.1165306711287251      18.478884102642404      4.1298754553728445
   255   1      5.8358430596356916      20.109794848085727       2.993847986044285
   256   1      7.2326205341828986      21.313399359548928       4.208875098630406
   257   1      5.7320415147792927      23.004063065813703      2.7116545462526807
   258   1      6.9543981685143441      24.258621045767025      4.2935157341199348
   259   1        5.64383969990923       25.77939275498969      2.8455796771349804
   260   1      6.9416966475131119      27.259771423190923      4.2721182592689768
   261   1      8.7108211613693882      28.656958912811508       2.724842798350176
   262   1      10.074152912602027      1.6021511500315784      4.2433335263196872
   263   1      8.4400019252664364      2.9934931555098103       2.820239657316812
   264   1      10.206653382103347      4.4523025328935102      4.3720787171237996
   265   1      8.7077248329174584      5.5782881102555644      2.8783690389945051
   266   1      10.059521259402899      7.1940810464056053      4.1317124593951151
   267   1      8.6855780457762215      8.5236338211875182      2.7427104267468629
   268   1      10.041534077888429      10.060866977632246      4.2993162219459631
   269   1      8.5949412197947748      11.542928925605533      2.8996643591552087
   270   1      9.9973156369348679      12.933526910223318      4.4618471572914302
   271   1      8.5619713192023319      14.298024096153256       2.769142808555932
   272   1      10.041843144146611      15.799868929801594      4.3110769960006614
   273   1      8.5605224740462393      17.259333614236443      2.8593215706301738
   274   1      10.011014644991748      18.511088671861135      4.5804817621819227
   275   1      8.6053686542729828      19.991465346996346      2.9713848545995565
   276   1      9.9171173834914814      21.683705752161924      4.4074974263046096
   277   1      8.4610157687686023      23.079890307192645       2.898723503429764
   278   1      9.7321653985415999      24.302029687261914       4.354812166122529
   279   1      8.4286030103951841      25.797172943839019      2.9301994481833553
   280   1      10.046129702531713      27.178111988205043      4.1984139230519029
   281   1      11.458304065552156    0.050275106929746238      3.0578877746448945
   282   1      12.920457836669476      1.3418632450994881      4.5220527181505723
   283   1      11.416166107429381      2.9928575613457085      2.8799372987815532
   284   1      12.808432696436965      4.2628416686876625      4.2973557336490069
   285   1      11.539346631966628      5.6130079840489211      2.7901986107141963
   286   1      12.985622698833106      7.3023259484941949      4.3549966684577743
   287   1      11.644309776277014      8.4833160743614489      2.7784197992526503
   288   1      12.927040789052917      10.018825335958391      4.3765729890532095
   289   1        11.6016957022456      11.410555256459809      2.9013255621914946
   290   1      12.789151253483768      12.969071944341868      4.2171292904703792
   291   1      11.535697016216968      14.406074694350103      2.8796556401494873
   292   1      12.778116975052832      15.799351688513473      4.3195458135482774
   293   1      11.421491651704608      17.315010467351154      2.9094557053163839
   294   1      13.118480627325166       18.91867789374167      4.2996944736384375
   295   1      11.362117886559426      20.214550610624336      3.1139080103877683
   296   1      12.818488349800276      21.736094031232405      4.3230745520363492
   297   1       11.41617681668718      22.935751540064512      2.8951795916249354
   298   1      12.927093360609431       24.50269587710428       4.265939019114362
   299   1       11.58571253452906      25.808988704512078       3.007777197534844
   300   1         13.005902854997      27.452703615763692      4.4258838118528514
   301   1      14.224383738737824      28.696502379360144      2.8510022507281731
   302   1      15.712261466264666       1.427237871512421        4.40925696175103
   303   1      14.170369509464065       2.671040844276956       2.988316051862812
   304   1      15.671246278143142      4.5030411280318079       4.237844761026845
   305   1      14.128156155143873      5.9465155038734112      3.0528677068916021
   306   1      15.976987037692892      7.3262136007677636       4.289183158254537
   307   1      14.405900450802301      8.6804958178899732      3.0349574167419391
   308   1      15.886099649073255      9.8921079855276375      4.2961041374316276
   309   1      14.406473739807961        11.4754172213709       2.833565848165823
   310   1      15.979380561363515      13.044382251218606      4.2321926870903193
   311   1      14.360457095265406       14.35867456547272      3.0001819970417949
   312   1      15.554615242508667      15.959329686272213      4.3890340552333447
   313   1      14.182167475777128      17.206316725348383      2.9434956207844944
   314   1      15.627301111477406      18.736303326283174      4.3960685590453723
   315   1      14.303304955865702      20.308704286685053      2.7683060181159469
   316   1       15.78217169429592      21.341605784491193      4.3762074104889299
   317   1      14.259610984794364      22.767479943795447      2.9108991394866388
   318   1      15.698946472065822      24.319648862891874      4.0616649618379945
   319   1      14.351628311418937      25.875594018805252       2.665111033360688
   320   1      15.645960158687865       27.21674572296001      4.1397824372150236
   321   1      17.035554933039137    0.054689515212715048      2.9801773259135786
   322   1      18.512364453008665      1.3770323028150648      4.2128010037054402
   323   1      17.042777348479351      3.0519158603668122      2.9501351126108601
   324   1      18.781338185241584      4.2863254364102348      4.3450725848625797
   325   1      17.373557067760327      5.7194114039543607      2.8852811731542101
   326   1      18.620118348483587      7.0161759586587404      4.2224903613350966
   327   1      17.147760334734063       8.850027060840306      2.7564428372665479
   328   1      18.688244739049011      10.070698424219199      4.2133305193147397
   329   1      17.224862243209181      11.417093631754241      2.8091432089807999
   330   1       18.74206785188537      12.851528474066912      4.4979387933196158
   331   1       17.20184525693314        14.5621293678465      2.9159809067519187
   332   1      18.750805879493424      15.829143842349314      4.2330193439793957
   333   1      17.048065064962355      17.352187615830076      2.8258029669520273
   334   1      18.708321839545142      18.516485766323207      4.1562778994994352
   335   1      17.204347122408276      19.988400889462739      2.8973385222896035
   336   1      18.758065857857286      21.614866524378865       4.247801432174656
   337   1      17.188263677094103      22.975414066362703      3.0312661640494887
   338   1      18.618776217582514      24.490841927021531      4.4922545772532656
   339   1      17.103864665869757      25.846964704569395      2.8689070490036213
   340   1      18.637514091426336      27.029650046991939      4.3173491116457097
   341   1      20.090852690846422      28.689237483129066      3.0623585467564354
   342   1      21.759518203235825      1.2532067388954833      4.3278573910252218
   343   1      20.243026783945353      2.7340247423311084      2.8644917320829117
   344   1      21.595966642017643      4.3630040680349209      4.3478007287649145
   345   1      20.137401876405054      5.8155422609475416      2.7988439812868817
   346   1      21.414060964412123      7.1680474320366638      4.4643096997384371
   347   1      20.083627559614229      8.5498943896728914      2.8958281751718022
   348   1      21.636786389875201      10.387084912507531      4.1318915774375888
   349   1      20.087196959108589      11.586651466134921      2.7333394445213122
   350   1      21.507210440993397      12.960028260894244      4.3986672938921778
   351   1      20.057672364784104        14.1135591286571      2.9026003978184431
   352   1      21.567232453527705       15.87212303773693      4.2812840397185505
   353   1      20.159908084932646      17.223122058069798      2.9158187644428573
   354   1      21.648990640550728      18.898866538910667      4.2285871577288221
   355   1      20.213164347799328      20.018429199544009      2.8412069395061845
   356   1        21.4928411154123      21.530266690999238      4.2047487157213492
   357   1      20.094046108417114      23.063101256795079       2.925874384979025
   358   1      21.579818992748162      24.274761132157501      4.3335453928804153
   359   1      20.155486614038082      25.625897978968521      2.8930045816942607