dump/Fe_1050_0/steps_21 (written by ASE) 

2000 	 atoms 
1  atom types
0.0      28.699999999999999  xlo xhi
0.0      28.699999999999999  ylo yhi
0.0      28.699999999999999  zlo zhi


Atoms 

     1   1    0.082089904647140166      28.600280506020429      28.655601091744614
     2   1       1.403428397600373      1.4526850067777448      1.4100790064349329
     3   1      28.547762551418902      2.6842128555242186    0.055442149065458905
     4   1       1.524787912078363      4.1741075584130023      1.4912271603737737
     5   1      28.641540019459374      5.6934734128140549     0.22535386492642157
     6   1       1.484072795574811      7.0861829959182305      1.4769344018404467
     7   1      28.579303896550417      8.5816588038332497    0.076816646119129944
     8   1       1.522980863514386      9.9270748676701146      1.5430767166323334
     9   1       28.66758906886017      11.484728589174861     0.39877560287083125
    10   1      1.5850098890072803      12.702519937652506      1.6531352046131014
    11   1    0.025833898897533701      14.227325340969044      28.613713699057858
    12   1      1.5955807773032697      15.498204835840767      1.5067585309458869
    13   1      28.665889786631968      17.081855432233262      28.691339776672024
    14   1      1.1833462017686562      18.523295383248517      1.3652244247766352
    15   1      28.540564943929766      20.082080446860523     0.17847223198959913
    16   1      1.3615760277199911      21.598794349124876      1.2628630508051524
    17   1    0.011140707852249281      22.946899240795517      28.655405805780649
    18   1      1.4395413795270451      24.465202458978286        1.31967153601281
    19   1    0.046535040885807427      25.823065137379945    0.050509971796475255
    20   1      1.4790302895335024       27.28295489555466      1.5610834765896471
    21   1       2.803771540877154     0.10124969528703963       28.55819998071485
    22   1      4.3661211871035865      1.5579226141653189      1.4990318704783483
    23   1      2.9074553051874665      2.8654698119705015    0.067318666953553791
    24   1      4.5673759474828355      4.3676833721802701      1.3652778925885269
    25   1      2.8369975423367699      5.6633426973345653     0.10858313065129994
    26   1      4.2183194081595756      7.1523462858389149      1.5595354639360024
    27   1       2.856573326071874        8.45294859139109        28.6527431989681
    28   1       4.321825283505949      9.9839312369803555      1.5493599804486951
    29   1      2.9368599820326917      11.209637393193994      28.673481551767114
    30   1      4.4360551545606022      12.703269319313439      1.4589383106200777
    31   1      2.8360532654319872      14.084694563456161     0.15793693909673712
    32   1      4.3352650683376934      15.708159987556407      1.6127217307650998
    33   1      2.7550067212350315      17.186109487680593     0.29914014618356072
    34   1      4.4265269420527931      18.722567917398937      1.3916375647737034
    35   1      2.7399548751988507      20.272500740533189    0.034876526802543141
    36   1      4.4266603475084434      21.516231192734224      1.4303256139261173
    37   1      2.7989646212049855      23.065198767159735       28.67580537026031
    38   1      4.2091352428397428       24.26754996045311      1.4217103529078243
    39   1      2.7963275184857186      25.955422514547184      28.523050268291374
    40   1      3.9974563215063559      27.315135037439141      1.3932712403799534
    41   1      5.7697254252711119      28.694400767782469     0.02578039804966465
    42   1      7.1556268010240123      1.4984076984573889      1.5720981089298338
    43   1      5.6744396810752171      2.9109380533581266    0.073213275603882119
    44   1      7.3065507055578207      4.4296417995455872      1.4736594316220248
    45   1      5.9247097709522683      5.7679488521272049      28.635374983902384
    46   1      7.2597100915479826      7.3730241754388919      1.4169877252296019
    47   1      5.5801856228731079      8.6201685103276517    0.061115447292195174
    48   1      7.1171093427174119      10.091880705473297      1.4902931345822821
    49   1      5.7784895637462119      11.312643516633885     0.13205782832028487
    50   1      7.2068054076406751      12.880506111520418      1.4285869676986525
    51   1      5.5003299460910808      14.331344296320488      28.577241942106326
    52   1      7.1181616494300721      15.884473019340374      1.6495014182600125
    53   1      5.8301683423825388       17.13616221924034    0.063869719240290168
    54   1      7.2071974978628184      18.729879554032056      1.4221852782912954
    55   1      5.7165162807413159      20.094766151806805      28.636071243382787
    56   1      7.1937456428575359      21.517142344332509      1.4158958843065528
    57   1      5.7473431127720689      22.997387572211661    0.056801415385245808
    58   1      7.2212664642612481      24.334028154122826      1.4620027195703862
    59   1      5.7052507340317824      25.993829623558369     0.08066777715961275
    60   1      7.3535521040965124      27.424367366703539      1.3257899083202129
    61   1      8.5281781560080478     0.26417035681338513      28.629633567561086
    62   1       10.17379866536416      1.5603738674157397      1.4143827012012831
    63   1      8.5421633178603713      2.9554526025002938      28.668745781877607
    64   1      10.114521244998913       4.447830365946043      1.1535327343296451
    65   1      8.6868775138377838      5.9761972376891324      28.492445790451317
    66   1      10.030729965704936       7.173873383916396      1.4330135242701425
    67   1      8.6140396464214053       8.699273257498831      28.671869983191858
    68   1      10.171380403383907      10.262828446440894      1.2256220728895855
    69   1      8.5514903595682998       11.46504201076068      28.608294795174064
    70   1      10.137730412325563      12.895823798179322      1.3554194344221289
    71   1      8.4959694826185039      14.397307717955973    0.057275790439962379
    72   1      9.8580916913388421      15.873255766304464      1.4309613074200001
    73   1      8.3140173532719306      17.105940792842937      28.484664954218307
    74   1      9.8942941421744006      18.583563995197149      1.4335468183987365
    75   1      8.6970246295186264      20.227503240970751      28.693965359575884
    76   1      10.109434920540965       21.45110041479802      1.5192648901413008
    77   1      8.7527704362578422      22.786386194924745     0.06814986591219846
    78   1       9.879975708147386      24.494042669625284      1.3192168646962161
    79   1      8.4135444938558877      25.643221310818383      28.602056370690349
    80   1      9.8528882962020461      27.283776946338232      1.2247000220823443
    81   1      11.406220867133138     0.07387442023071053      28.659885604237122
    82   1      13.039570355193296      1.3191400282739196      1.3554924357022846
    83   1      11.564667300440181      2.8556075457530947      28.675919357986178
    84   1      12.937744351344053      4.3550439220251427      1.2863019915431655
    85   1      11.605797383169932      5.9423891952259797      28.451593379306388
    86   1      12.885427514970321      7.2249698438838434      1.3500117359736348
    87   1      11.267730759154023      8.6328797383356122    0.079956096276123254
    88   1      12.901656327705801      9.9502163260372107      1.4292451847117253
    89   1      11.505265169211262      11.424748111268096      28.413396493731742
    90   1      12.882409215169035      12.764832723978007      1.4596960323619315
    91   1      11.494972922617356       14.46355174466472    0.016606803393176505
    92   1      12.932919488044766       15.60264025513732      1.6399271473529669
    93   1      11.407144089926222      17.253365652891308      28.696402568486594
    94   1      13.000826809549382      18.478352511401603      1.3500538247474088
    95   1      11.519386903212295      19.972624326727225      28.673995217486127
    96   1      12.860050885785393      21.542769524279013      1.3129803184748412
    97   1      11.406464033586115      22.978960241384641     0.08815974015574278
    98   1      12.914244652216389      24.693509438313122       1.346845947241182
    99   1      11.323541454716093      25.888792465034268      28.515679766164638
   100   1       12.91264659253866      27.352467910569086       1.264395902371019
   101   1      14.286169205803059      28.680715914681173      28.694537538961086
   102   1      15.898025323387767        1.44653574072513      1.4352125184940971
   103   1      14.363653925685485      2.8408663122805362     0.11899392337426219
   104   1      15.806089795681489      4.0971104718760047      1.4872353924448714
   105   1      14.335902444909213      5.8719643014074334      28.692724551863481
   106   1      15.841734151158764      6.9636057646239573      1.3969180068494425
   107   1      14.174810738748846      8.4777486508746573      28.558862866221677
   108   1       15.74642521152948      9.6957009198164581        1.23132014817836
   109   1      14.244604973556905      11.363178226651891    0.022697669746366961
   110   1       15.79507320442711      12.673265712923365      1.3292370872792714
   111   1      14.186652770437574      14.157582327598437      28.651492798527347
   112   1      15.811248127119981      15.740609022522351      1.2546556282724624
   113   1      14.253160087613713      16.911539740296156     0.13770207411116636
   114   1      15.816254011823242      18.549356544709184      1.1708520425577602
   115   1      14.392446650371312      20.026351911778754     0.23286921897783955
   116   1      15.933985060368119       21.68602772433081      1.4392632211029068
   117   1      14.255583860930848      22.885453413658318      28.693355966301468
   118   1      15.857019486394785       24.47788999454497      1.3198285588552501
   119   1      14.389842541163764      25.796426678826116      28.607203668741633
   120   1      15.765945093319713      27.250805919468647       1.329540728100618
   121   1      17.333357736893404    0.091597807577841042    0.065498370556167584
   122   1      18.635745851860534      1.3505084037851485      1.5030679596722041
   123   1       17.35119504748344      2.7633733931173405    0.070179831126768039
   124   1      18.945562140927105      4.3866817304827475      1.6719827091995059
   125   1      17.289101408092304      5.6001109666078648     0.11428304468159932
   126   1      18.623510466135269      6.9449125788700332      1.6229836511408169
   127   1      17.261332502015989      8.4621178545142541       28.65161199989274
   128   1      18.567128501806256      9.9507426375550878      1.3490224547700445
   129   1      17.510602257854227      11.522056899565319    0.057948915875158477
   130   1      18.535281147823365       12.85626050657303      1.6323280416619355
   131   1      17.262953040283975      14.261628918917381      28.696784834459365
   132   1      18.644094633185397      15.897786364863038      1.2499992711005918
   133   1      17.170495513802582      17.245474015840237      28.461130951207416
   134   1      18.459728902022359      18.567905712028722      1.3026532297413842
   135   1      17.179171790496319      20.155839882595807      28.621707102353227
   136   1      18.618218850731928       21.46123051334359      1.4204702065511585
   137   1       17.26070988048015      22.792287549436132      28.666084281352543
   138   1       18.56175465402006      24.337235285110648      1.2823002240507426
   139   1      17.230161861533972      25.724700490227942      28.470986466796806
   140   1      18.597691750124337      27.316308978982917      1.3110428385966661
   141   1      20.240875237119397      28.651264983992622  0.00058498813544929278
   142   1      21.512093748741599      1.4947208601117259      1.6331212535150266
   143   1      20.098306653127811      2.5389848508709174      28.690812331692317
   144   1      21.745726882226709      4.1058820842042927      1.5387648397932927
   145   1      20.246777852006211      5.9504896438261854     0.27695087265570928
   146   1      21.810400463501434      7.3658943150548675      1.3208558678745028
   147   1      20.035159879669422      8.5163487180698265     0.19303286522196014
   148   1      21.712788945402426      10.012080019065124      1.4306240455176289
   149   1      20.146968074266283      11.701606787467005      28.674495485983883
   150   1      21.707772223519534      13.082995678249718      1.5503777056519643
   151   1      19.850668068693931      14.462007489863705    0.066755972472174144
   152   1      21.476608458010535      15.823676246867516      1.3758059334579558
   153   1      20.289776890333272      17.190919276823209      28.607085687961675
   154   1      21.619466848835629      18.764088590122796      1.4213296624818224
   155   1      20.151923127633932      20.025586161515406      28.622419716466275
   156   1      21.611379547740601      21.348862135687831      1.2923050854638525
   157   1      20.366037281512757      22.902281668519933      28.616441164536695
   158   1      21.658826794537227      24.245259233622154      1.1153399173970331
   159   1       20.25400552372599      26.011368527879569    0.089967835749644176
   160   1      21.918591136488978      27.254114040779577      1.6289187164279266
   161   1      22.933800679419424     0.10139508555779465     0.11735950637876155
   162   1      24.344600530890919       1.487588771899061      1.4658048142461555
   163   1      22.972006936577159      2.8649955629647494      28.642088420823033
   164   1      24.486912295449471      4.4114184380194255      1.4268817412693229
   165   1      23.142443184933732      5.7894026906957814    0.086476262047097019
   166   1      24.287660699355779      7.2499913583857589      1.4001745729045987
   167   1      23.036081950593392      8.5945471098298789    0.012431268299360452
   168   1      24.412364514978535       10.16068011942945      1.4868300460365265
   169   1      23.078067788581937      11.513101162474422     0.14681563483325138
   170   1      24.334977606940846      13.078403402504742      1.7023432665702565
   171   1      23.165122094599496      14.395382695132781       28.64624507839946
   172   1      24.520053351892628      15.904133324017716      1.5780850302354783
   173   1      22.979611749778407      17.131692153139394      28.664116544475121
   174   1      24.399580485801998      18.647841433008168      1.3371849261472339
   175   1      23.071917294096828      20.081465755443006      28.659512813857734
   176   1      24.285186928028541      21.694157004092769       1.368014858786045
   177   1      22.913642303369894      22.833119912350337      28.512473440546533
   178   1      24.309383783431972      24.250246834807914      1.3114678729380664
   179   1      23.050948484558948      25.856956554856311   0.0014467641474880119
   180   1      24.180989235629941      27.224265002024463      1.4689980912940546
   181   1      25.723670975681397      28.672844395060185    0.077451466451827947
   182   1      27.222102807715505      1.2402057569474882       1.540431715414651
   183   1      25.854882928026058      2.7667730270779081     0.29032815629274045
   184   1      27.306098566826265      4.1684045117599382      1.4797762344743217
   185   1      25.882988270705734      5.7568375212594782    0.071680272333560502
   186   1      27.120498119507086      7.1319453397687047      1.4040160572025007
   187   1      25.864803767863854      8.5182774002609545    0.048811646228091386
   188   1      27.164903171698299      9.8570261794410001      1.5190507568083369
   189   1      25.817966473377211      11.724807422875706     0.29058458856374075
   190   1      27.341088810221514      13.072922265650604      1.6456761689490693
   191   1      25.631577787089718      14.282378131787892     0.27288466170454068
   192   1      27.177760114460398      15.798845430908518      1.4057810537450224
   193   1      25.791262681853478      17.198619366713018      28.559761021102375
   194   1      27.127328604925971      18.407362026200783      1.5110930852533886
   195   1      25.884570404371782      20.262804742832682     0.15228256753349573
   196   1      27.310568621102824      21.627084882325605      1.4600787354471438
   197   1      25.916759715936539      23.050021575796237        28.6800881612523
   198   1      27.301966934978942      24.372327030653292      1.5826391775755595
   199   1       25.71787584406183      25.808760402736716     0.11956017605027677
   200   1      27.418177011524531      27.270222396086051      1.5106367121779143
   201   1     0.10802521999755775    0.035910480486722969      2.9678939254361802
   202   1      1.5594163567337429      1.3731720668513379       4.266914774691986
   203   1    0.019052026327063112      2.8551673835132401        2.79447041937709
   204   1      1.3024418412851118      4.3099787199341639       4.351596217560818
   205   1      28.667615964245957      5.7286005477448931      2.9145345010993831
   206   1      1.3422171937806424      7.0185879650742011      4.4261468567512097
   207   1     0.15714026257426295      8.5228017317943454      2.7939432300550369
   208   1      1.2661269240425224      9.9587204689175426      4.4213293385871859
   209   1      0.0795583133732643      11.287652216256202      2.9005941885720903
   210   1      1.5630966399721504      12.960383481563177      4.4908170041052884
   211   1    0.049600038480071933      14.366171889383551      2.7933810391724134
   212   1      1.5831396933651167      15.958881959675294      4.2338499914934076
   213   1    0.093219039881877269      17.159009027749125       2.869743811226805
   214   1      1.5287967878650213      18.779780797591926      4.2938837402002159
   215   1   0.0029146653049465839      20.198931719564278      2.7771829952458011
   216   1      1.4904798709846454       21.50906324563751      3.9736556822490101
   217   1      28.673037521314885      23.034272200877673      2.6710928377545078
   218   1      1.6330714365061689      24.265868209918704      4.3859298079883411
   219   1     0.10435881059571744      25.673271228159162      2.9812368689238391
   220   1       1.392043724327064      27.166076434162747      4.3810670843600645
   221   1      2.9080505521756179     0.11962646601604095      2.9287180957887826
   222   1      4.6003874728151715      1.3870663271167474      4.5515683765980954
   223   1      3.1032644241944234      2.8819545436517724      3.0253537013721372
   224   1      4.5072470509489735      4.2674090142859855      4.4418376253364533
   225   1      3.1179520629251583      5.5252724971630078      2.9473037403833859
   226   1      4.3298214268082642      7.1466631536102732      4.3583426945469732
   227   1      2.8980091849215124      8.4408511858844175      3.1806063912775344
   228   1      4.3740738334219422      9.9189664019029919      4.2240959347049376
   229   1      2.9652039480484085      11.335490197354591      3.0183778209677232
   230   1      4.4525934114727272      12.900157094937001      4.2802967042865081
   231   1      2.9118980529981462      14.196927498297542      2.8065442312828957
   232   1      4.5204468030337601      15.714517747973643      4.4120029583752594
   233   1      3.2074078447980865      17.406352452598334      2.9390555160899545
   234   1      4.4023607548624781      18.833346788676131      4.4572313230175356
   235   1      2.8750208181485748      20.221444157348607      2.6913977950665076
   236   1       4.359649585760903       21.54326599381594      4.2404813187585804
   237   1      2.7646738766150287      22.964441146545088      2.7482315881566008
   238   1       4.430452740417584      24.497304329811332      4.1894263551328503
   239   1      2.5777059822248134      25.750643297102947      2.7929410119020539
   240   1       4.235842325415347       27.20417484177322      4.1021035988953285
   241   1      5.6996083887181062      28.635421046243113      2.9221875490674205
   242   1      7.2487702408708241      1.3892873881901673      4.3982786579343038
   243   1      5.8764324296915902      2.8926949481668047      3.1186156179056042
   244   1      7.3482930758673204      4.3777504533379119      4.4786876069072799
   245   1      5.9260982873919223      5.7540481010319375       2.785310549560847
   246   1      7.0767159597173883      7.2258305788825625      4.3600951727099755
   247   1      5.7308977442580273      8.4490185330334064       2.782365812546868
   248   1      7.3100465985092056      10.071404877956761      4.2210297692555434
   249   1      5.8827016183232264      11.482214308558838       2.884527113439483
   250   1      7.2089259691375567      13.127076174679877      4.2571694709520376
   251   1      5.7920951123834579      14.378621393781977       2.960110935060281
   252   1      7.3036513832685204      15.735673763775182      4.2665833546493541
   253   1      5.7615494552173914      17.328814277397303      2.7922877237420942
   254   1      7.2334695469772399      18.695506077734773      4.1732270422104669
   255   1      5.8472008537605777      20.077702363361837      2.9221826508390514
   256   1      7.2399223313945811      21.479491874850375      4.1899870353529902
   257   1      5.6361923226501514       22.92270198081971      2.9464706222451134
   258   1      7.3116650698378507       24.32894664949437      4.3292408908421196
   259   1      5.7425872578211914      25.713379626230353       2.731876207658364
   260   1      7.2166232817281104       27.07751151278832      4.3544202143317374
   261   1      8.6811168452516352  0.00033708141991173698      2.9492172524063149
   262   1      9.9664862511596919      1.6021086922370043      4.3605519190087545
   263   1       8.634309419076839      2.8656302789820738       2.697830898435337
   264   1      10.069089358038237      4.4355996217310523      4.4423903063188499
   265   1      8.6775299670939869      5.7969752190648691      2.8444875212885572
   266   1      10.135317071700481      7.4227503632978413       4.115994781725175
   267   1      8.5577362540371382      8.7481014654519189      2.7786179298978357
   268   1      10.055952052972408      9.9579417267753598      4.3549345546665679
   269   1      8.6641109740144717      11.331090524196009      2.9383180177706403
   270   1       10.16553162148946       12.74638765308095      4.1877483830720639
   271   1      8.6295391736067817      14.248196740017461      2.6481554086685488
   272   1      10.013929105215871      15.589228949090081      4.3517184346603583
   273   1      8.5660640636852534      17.334884515063816       2.751169128450873
   274   1       9.991989360908752      18.572323355934909      4.1262263739315372
   275   1      8.5147565556348397      20.117448080246017      2.8000570854752591
   276   1      10.259321537057502      21.738154582355637      4.2437674056034567
   277   1      8.5405381108147651      22.938094389278792      2.9756661411838601
   278   1      9.9830003252233972      24.437348375560262       4.195078669610421
   279   1      8.7154629775183157      25.852220448624713       2.870092658680472
   280   1      10.056778452291812      27.316019832206528      4.3044798258149628
   281   1      11.367993089164077     0.23023924672035062      2.9400293181631314
   282   1      13.069969242989215      1.5966944286644205      4.4210129221690337
   283   1      11.617042559323645      2.9168256045977783      2.9525512255887842
   284   1      12.911004407553989      4.4196054429074145      4.3320636667763699
   285   1      11.509325333942941      5.7424857552822672      2.7547713074425575
   286   1      12.836982678407976      7.1889102397317579      4.2470109907069293
   287   1       11.61806511799826      8.8819565538048124      2.8046431139299561
   288   1      12.991870714296319       9.980053981055768      4.3943182738184898
   289   1      11.521761277558619      11.482935661915464       2.853351913813583
   290   1      12.964340641237435      12.868537747402533      4.3526705981282019
   291   1      11.363588021953653      14.176413677587037      2.7292464474249396
   292   1      12.892582085355823      15.624731986821393      4.3772355380107504
   293   1      11.541598535852748      17.204335789999018      2.9105001924123779
   294   1      13.152293552244254      18.597561010024119      4.2552349918561614
   295   1       11.49003425621194      20.148692558178897      2.8528855540333331
   296   1      12.961661065058825      21.604056118184868      4.1862552715152015
   297   1      11.738626622537026      23.080816794974275      2.7470091314693161
   298   1      12.867344637048907      24.578903078877833      4.2938125377182388
   299   1      11.502478238715039      26.038319125245984      2.7911402319834675
   300   1      12.822712657205937      27.172840239507522      4.2556603281708432
   301   1      14.355349086010451      28.651303942938227      2.8002569546055387
   302   1      15.770921035935705      1.4842457347905913      4.0476281301170873
   303   1      14.186669532234932      2.9274749647289298      2.7274292295072189
   304   1      15.543922866694272      4.1958004514917393       4.265045793693667
   305   1      14.322795326582881      5.7568457357743092      2.8452971621582583
   306   1      15.841742897123721      7.0439630146762839      4.3201330057590805
   307   1      14.507109180652865      8.5809173863543791      2.6615040970386645
   308   1      15.592156177853569      10.139341023647168       4.361598848012993
   309   1      14.445218794238258      11.477023502278314      2.8870055180351315
   310   1      15.890236027000739       13.03138105238496      4.1822858623334724
   311   1      14.210888890748649      14.040239700266181      2.8287635579087018
   312   1      15.758538500526893       15.83841933628641       4.160981804270242
   313   1      14.235561692257443      17.171493899165924      2.7929885064085291
   314   1      15.773105541589684      18.400772576987173      4.1837656893404942
   315   1      14.613176236673253      20.019224030730815      2.7290072493640989
   316   1      15.915710588362948      21.391868628627297      4.3531411549356038
   317   1      14.592810500608403      23.084082262349938      2.8595894576104328
   318   1       15.96366140773107      24.468439007876114      4.2579562736597865
   319   1      14.465328377945523      25.792431363982125      2.8276052771719722
   320   1      15.868389263625076      27.192036220412501      4.2699870256614281
   321   1      17.272113656181403     0.02557543993070812      2.9552055499106991
   322   1      18.867813862860281      1.5094112482283648      4.2593501496437449
   323   1      17.397310652958176      2.9000812348933143      2.9137194866095721
   324   1      18.816024447990301      4.2509836194784238      4.2880692490790002
   325   1      16.991749909445012      5.5715692507987393      2.9099830857446141
   326   1      18.707976687007719      7.0752390366785107      4.3281245689996464
   327   1      17.129833370641524      8.5594587840211798      3.1064270451114071
   328   1       18.72012176882151      10.028043840442237      4.1843105427775926
   329   1       17.05789624925513      11.303235514605877      2.9678048914014279
   330   1      18.653729925588735      12.906754031198609      4.1727162021945068
   331   1      17.135356996561033      14.449269671423844       2.969050640629916
   332   1      18.466639087457658      15.967746436110041      4.3296567562177914
   333   1      17.202938653643393      17.226415409536742      2.6569943178338358
   334   1      18.524029971540628      18.636565610639234      4.2003092713090551
   335   1       17.18157724072784      20.027337093523048      2.8837347641858342
   336   1      18.713392061460201      21.407845631155702      4.2742571643778593
   337   1      17.194341018131272      22.829778736806755      2.8952049160563544
   338   1      18.672639479013565      24.112185663708996      4.1683158496074766
   339   1      17.352482623410097      25.787829794325301      2.7382648545088837
   340   1      18.824533623843358      27.164196598597293      4.1736628470559012
   341   1      20.194473062379018      28.628301401117316      2.8948208545710461
   342   1      21.664723599944413      1.2850213674132205      4.5202153207277549
   343   1       20.35735051477976      2.7311584327910854      3.0861966237433029
   344   1      21.679668419715867      4.3154402334295527      4.3055573748764644
   345   1      20.474639183553546      5.8424810372202352      2.9690634584148938
   346   1      21.450698173102356      7.3703760622748904      4.3534623326223096
   347   1      20.217963110613805      8.6422582294797881      2.6213969114904896
   348   1      21.585289482879542       10.01825250220967      4.1033896836841599
   349   1      20.028218050374903      11.424592581038269      2.6449544579691531
   350   1       21.43296386267226       12.84791138651935      4.2160472621517178
   351   1      20.040256781466422      14.575550096849797      2.8637841906477446
   352   1           21.5339057166      15.832020396591227       4.236588717583313
   353   1      19.921979099254965      17.342689679182211      2.7897426765424376
   354   1      21.788401530210777      18.653554386254189       4.568065995637312
   355   1      20.078748673935923      19.946515661222872      2.8478169955195192
   356   1      21.632662267070515      21.393293351678693      4.3144588417027059
   357   1      20.103290025385871      22.856906558430481      2.7639019510325156
   358   1      21.504667568565782      24.313392039571429      4.3792086637244019
   359   1      20.070110960994327      25.680546613848691        2.64958612074886