dump/Fe_1050_0/steps_11 (written by ASE) 

2000 	 atoms 
1  atom types
0.0      28.699999999999999  xlo xhi
0.0      28.699999999999999  ylo yhi
0.0      28.699999999999999  zlo zhi


Atoms 

     1   1    0.037276119320271209      28.596217115205977      28.586198551676478
     2   1       1.311773224168008      1.4572454447545744      1.3984834265476711
     3   1     0.13368588230659975      3.1563696289135112     0.11055321645172854
     4   1       1.605104771556046      4.1971308785482373      1.3629104513462724
     5   1    0.047587751952255834      5.7435905695154812    0.036720198234809188
     6   1      1.4324158491721837       7.362031342599864      1.4392425421330475
     7   1   0.0015817750144401638      8.6829525163955417       28.60117565839278
     8   1      1.1881417982946796      10.081130101002625      1.5324323964171738
     9   1      28.503240499435083      11.408561077492561      28.486383768526437
    10   1      1.2990831848268856      12.830458446686777      1.3389544556201824
    11   1       28.62030282998251      14.269268537244827      28.586382573466366
    12   1      1.2894238398395825      15.884329400642882       1.387314686456125
    13   1      28.579790003108545      17.134058434970687      28.679272541346052
    14   1      1.4125690949556895      18.574415054330405      1.4373892024530035
    15   1      28.694159836610385      20.085311219490901    0.046268554562323164
    16   1      1.5818603116553418      21.650955685583575      1.5903820692125694
    17   1      28.661026157711976      22.883972143538813      28.663192279513709
    18   1      1.3374199530843727      24.377932584394987      1.5894267528011721
    19   1    0.021329659660763587      25.835192408464259     0.18946291984281044
    20   1      1.3631138536813081      27.310993484058471      1.4691680760692403
    21   1      2.8042093503259373      28.601535889436196      0.0797898229466001
    22   1      4.2176846534257004      1.4438680459761588      1.4064479698429639
    23   1      2.9841735928004951      2.9650220508762222      28.623613300922827
    24   1      4.3866530299412076      4.2675884762223601      1.5652389325490046
    25   1      2.9638393743729812      5.8276215915609431    0.057870429559647961
    26   1      4.1027325266478556      7.1036402435177717      1.5020348142779754
    27   1      2.8298623882323688      8.5630564017318545    0.075163518513772884
    28   1      4.3243573385527032      9.8770346326645697      1.3701545649642641
    29   1      2.7481249573577871      11.295594360567319    0.062108379426069782
    30   1      4.2298345161567266      12.708461316523715      1.6469499811851724
    31   1      2.8283877200610519      14.276184166842221     0.10002384885758613
    32   1      4.1534245648357153      15.741150505800677      1.4814191684081934
    33   1       2.724705157405324      17.058743142604946      28.557887860089199
    34   1      4.2593307508186999       18.61132835256732      1.5104551082020521
    35   1      2.7118231309355574      20.092479660003129    0.054711008436947907
    36   1      4.2725015545056726       21.40622325726218      1.4455416772111105
    37   1      2.7575659634918597      22.998576506589789      28.540506592020762
    38   1      4.2273124828997659      24.537984364117175      1.4807537412978824
    39   1      2.6340472269767821      25.834985122958496    0.034757955200700491
    40   1      4.2751308930499698      27.212455185252352      1.5514310840614018
    41   1      5.6953959104000189    0.019979723855057658       28.67667296530222
    42   1      6.9891956491745608       1.511455253565462      1.3503397140070894
    43   1      5.6826283608626351      2.8907610454206276       28.69891228573994
    44   1      6.9074597937782496      4.3713942022584353      1.4141096737973731
    45   1      5.5077212044004895      5.7463367841053623      28.653289475813555
    46   1      7.2048516608097595      7.1286000229333348      1.4607959792068967
    47   1      5.6362548939920565      8.2792455156045204      28.609799955467768
    48   1      7.1135277960634822      9.9739847129665193      1.2723408835929706
    49   1      5.7313737225086046      11.284460446904903      0.1026075420877305
    50   1      7.3283782931183827      12.779103589116227      1.6096415787130915
    51   1      5.8645333153800054       14.23981529385375      0.3878905068684968
    52   1      7.3356273294456216      15.655114925553878      1.5385292870996419
    53   1      5.7519459194034299      17.130406409343809     0.17877633193756978
    54   1      7.2432923259687456      18.645863372770634      1.3512089427064549
    55   1      5.8215735592665583      20.109235287705172       28.64124070154287
    56   1      7.3354755224989363      21.456229394333239      1.4371268368754035
    57   1      5.9178904418160299      22.971050977231869    0.014704964162604028
    58   1      7.3233861117729822      24.433518099838132      1.4620842958376095
    59   1      5.7781094849604804      25.789720494037507      28.576693427723743
    60   1      7.0645021660175518      27.240782163876602      1.4925541398710818
    61   1      8.4483282077226303    0.021564151679410774   0.0025275652311165676
    62   1      10.056533028426305      1.3903258197904973      1.3894322986121785
    63   1      8.4451033988408977      2.7900917660739295    0.063474720051374264
    64   1      9.9633292047802602      4.1888811367012639      1.3735024057676342
    65   1       8.292303373097738      5.5357470730298104      28.623163266219052
    66   1      9.8439225054175665      7.2059480838501369       1.407478093625081
    67   1      8.5108701625961238      8.2873046203505876    0.019695019753191913
    68   1      10.018472342132734      9.8531007725745461       1.509192618945691
    69   1      8.5293522395396302      11.509624948140772    0.031039656192933786
    70   1      10.019329160490789      12.962320304102157      1.4289763735757908
    71   1      8.7405334708028626       14.30145601763453    0.062543367596151714
    72   1      10.256916217364607      15.546890947172166      1.5508852617876872
    73   1      8.7424327217521398      17.182723467324479     0.21837975579184102
    74   1      10.016365470179005      18.737427779256048      1.5500488196039668
    75   1      8.8783346456772883       20.13887682925348      28.526667626430495
    76   1      10.269966819312856      21.392180665597714      1.3789906150870597
    77   1      8.6265252057662707      22.986873168220324   0.0086859096183161521
    78   1      9.9435468737604591      24.386672708650291      1.5776658827447603
    79   1      8.6572093556049694      25.939601441029502      28.520813881227642
    80   1      9.9306499637736021      27.219804652209643      1.3330886715928953
    81   1      11.601780691186038    0.064442241830933625      28.627674182039204
    82   1      12.980275855846182      1.5743421272480762      1.4428134240143542
    83   1      11.494219343775898      2.8942205307286244    0.060726904197235879
    84   1      13.022444575501787      4.2832699745511293      1.3725685839541142
    85   1      11.469720931248276      5.6553684053990647    0.086862952719559461
    86   1      12.817242958779618      7.2852816836213723      1.4920289195844361
    87   1      11.445785670315495      8.6131312660796233        28.5803971830608
    88   1      12.856090766397825      10.135398414575489      1.3131339776090962
    89   1      11.568086833702054      11.571194522505953   0.0042068375095254823
    90   1      12.866615806344639      12.963778630866635      1.4410174715928847
    91   1      11.454378321275046       14.19389076494158    0.034859329207665664
    92   1      13.135723991810311      15.642566761628808        1.52826366566053
    93   1      11.590582201996021      17.059280232196596    0.079279805120188521
    94   1      12.868239880143777      18.493863045073972      1.5479163422221618
    95   1      11.533513778256918      19.814692988515255    0.050195353129140502
    96   1      13.008818314561777       21.44756324168581      1.3442239112687377
    97   1      11.597742192588068       23.04353037654473    0.028446660391432482
    98   1      12.898930434341262       24.27236051930943      1.6324502439091582
    99   1      11.397851519637104      25.774702222969051    0.042042488021229438
   100   1      12.831036013278458      27.084377924295424      1.4205445492256326
   101   1      14.221032521285945     0.17726955273104755     0.28178686635702638
   102   1       15.99687029524781      1.3738339652204219      1.4834246656991352
   103   1      14.393869928231819      2.8189935000606057     0.05569989076500409
   104   1      15.782703565140126      4.3303251280912072      1.2715895486429412
   105   1      14.244199498205491       5.893347235512767     0.13529019524880825
   106   1       15.87300761812776      7.2544854164933099      1.4729087700479233
   107   1      14.386402793817545      8.6398453090103118     0.11298413383983633
   108   1      15.883044875253203      10.132766828335299      1.3943064868033956
   109   1      14.305884348458061      11.596097279024423      28.606172639441031
   110   1      15.983146815567279      13.008453840560593      1.5530275786790171
   111   1      14.463426247535059      14.188968427116881     0.11266994159269643
   112   1      15.877948197330783      15.644109415263429      1.4880727057276768
   113   1      14.385697435265763      17.207690560832869    0.025766448590900385
   114   1      15.863952221259247      18.612917299063611      1.4865614972698498
   115   1      14.317375846696882      19.929241661994524    0.013067226909788572
   116   1      15.965586669747786      21.522776203812231        1.40002254622383
   117   1      14.423164132992214      22.816214444847859    0.026791457467822972
   118   1      15.724888227750839      24.230523724991876      1.5601677883935283
   119   1      14.351508657313891      25.753987059391005     0.10937489650104899
   120   1      15.866437488028717      27.207417854856764      1.3930291291106738
   121   1       17.47151363208452      28.668026155785288      28.530071572954412
   122   1       18.76469439748336      1.5339865780470867      1.1976187392188757
   123   1      17.283978698638109      2.8371926544434132      28.659255308782235
   124   1      18.590705095532162      4.3018520262413231      1.2148900118455221
   125   1      17.090198087011423      5.8837263465852496      28.646980729185604
   126   1       18.70242815445992      7.2657993178323084      1.3090449338339223
   127   1      17.318519227652885      8.7795905992168972      28.682375129459196
   128   1      18.692297217926289      10.067625696066736      1.4720835951738409
   129   1      17.262917331939526      11.744508816418421    0.057581701806668675
   130   1      18.840509695899264      13.026976780716671      1.4912343134305288
   131   1      17.175937257044183      14.337235235478383      28.664047562855657
   132   1      18.553149270790598      15.873461573984684      1.5278375773687805
   133   1      17.168377452233326      17.164497024936811     0.15962052541655114
   134   1      18.586952943307342      18.501269967658811      1.4599702381631103
   135   1       17.31424428629543      20.031075243203155      28.541035880649261
   136   1       18.59070327850139      21.491684557907003      1.4816052298619531
   137   1      17.006083270081071      22.984843661669064      28.523682706895116
   138   1      18.666484443450781      24.317857074990155      1.5196589226046278
   139   1      17.066041416031606      25.693564968591531      0.1051153654253993
   140   1      18.663174308185315      27.046676435800691      1.4466659210050801
   141   1      20.228271094530974       28.59847384702481      28.679872388892917
   142   1      21.649968003624561      1.4818943146253205      1.3138787292187553
   143   1      20.116618261946385      3.0442434750222671      28.650569573815734
   144   1      21.440110867982884      4.3496527726353955      1.4823768511937474
   145   1      20.013240988354248      5.7231277556635813    0.026582397442462019
   146   1       21.54031099870625      7.1152182486225435      1.2083204606509181
   147   1      20.197125886071586      8.6488706230174763      28.543953464742049
   148   1      21.441040663006461      10.078259535391577      1.5223457754222629
   149   1      20.043615039114378      11.466215238228227    0.092387066755770728
   150   1      21.467790078949289        12.9037790416016      1.3358921798345262
   151   1      20.011796537354641       14.47002125970651     0.17829951808731712
   152   1      21.592401269166402      15.693504018118482      1.2830797191357861
   153   1      20.233848116519646      17.163139997663176      28.673666427699246
   154   1      21.473334264980938      18.616668238931819      1.2657463361373389
   155   1      20.029980057891027      20.069067179579363    0.054361287574124562
   156   1      21.636510057859155      21.528540426256725      1.3580343388625913
   157   1      20.181978579441679      22.934001701180552    0.057653499611581081
   158   1      21.533624431223867        24.5030314917759      1.2949505372269634
   159   1      20.114375815752222      25.875355737294463    0.011972048028667349
   160   1      21.661717098452613      27.333151500275722      1.6730712443978064
   161   1      22.884480161554976      28.557795587135786       28.61413195967053
   162   1      24.228208198564015      1.2871552090747069      1.1822564060970404
   163   1      22.950689137180174        2.97522654520834      28.625398786505286
   164   1      24.424741835356251      4.1147872283537001      1.3736373794874681
   165   1      23.036921315183402      5.7322221936369377    0.076453806486699805
   166   1      24.279707232864318      7.2421282419484703      1.2870609250804357
   167   1      22.953442565355221       8.725662064460213      28.635113718504286
   168   1        24.3489140331064      10.159062751332714      1.5566267213596225
   169   1      23.058616880475995      11.445448940231953    0.098624440612309253
   170   1      24.503519355877209      12.998029730933769      1.4298754879321103
   171   1      23.127425592301826      14.388865736344048      28.699445600313314
   172   1      24.393417466261639       15.80963047170648       1.504621193928267
   173   1      23.029250037870309      17.209119554651021      28.675219899184597
   174   1      24.494088886943079      18.546624235650842      1.6442619970493866
   175   1      23.133857539956441      20.177355000422875    0.098415644307010428
   176   1      24.424044562875427      21.499029344999652      1.3229456886194271
   177   1      22.881790294613392      22.946720929868398      28.667281313216577
   178   1      24.475496022919586       24.40294426662431      1.2816928397893441
   179   1      22.849616044725018      26.037292404772806      28.558099345707124
   180   1      24.536280813905432       27.23044895779762         1.3019493956701
   181   1      25.901128861713406     0.10085938330410221       28.51337586437332
   182   1      27.155513113786835        1.32676464066359       1.364637089507835
   183   1      26.043452974019466      2.8399523031928564      28.452269032111051
   184   1      27.100929762059913      4.3234676092972997      1.4192653544488962
   185   1      25.837321863995758      5.7067993831426378      28.683062799369381
   186   1      27.213417057345254      7.2468892548279626      1.2411863431512533
   187   1      25.746470201072214      8.8755720152819197    0.053066530331500418
   188   1      27.230619922186506      10.165775045733961      1.5549714337888769
   189   1      26.054100323644846      11.444663829543583    0.055137391830487541
   190   1      27.407430321642188      12.948052329616537      1.6488394456521618
   191   1      25.833059817406049      14.304499061886043      28.532274689100493
   192   1      27.429680185541173      15.641084769941621      1.3751867695829789
   193   1      25.795539893123301       17.20999269726985     0.04959265569523276
   194   1      27.170123544183632       18.51652469743863      1.4817491457331122
   195   1      25.874793585637363      19.952045092872996      28.629824720579506
   196   1       27.14913636424604      21.564092137198497      1.3582105891639222
   197   1      25.822034742203627       22.98108513689785      28.384971215769227
   198   1      27.211432087988594      24.554316035661046      1.5213635146616875
   199   1      25.970829064618606      25.972429249369181      28.651335347628418
   200   1      27.083370284180525      27.562323755771793      1.4595667184173637
   201   1   0.0073232072015914267     0.28396352614828396      2.8655065415164347
   202   1      1.4629704986422662        1.63522325560076      4.3575509531259184
   203   1      28.602182361667843      2.9309447487122391      2.9365484139708289
   204   1      1.2543139064842417      4.3543964074310413       4.367137328110358
   205   1      28.637181855215719      5.7206613579787806      2.8021425502581674
   206   1      1.3081396151291873      7.0152487055322847      4.3834565737558941
   207   1      28.668100301392428        8.46467885246423      3.0184465984917614
   208   1      1.5242666160282066      10.005073987048666      4.3632326977946851
   209   1      28.645379573112127      11.454997789094028      3.2150774965095912
   210   1      1.3667930115627198      12.880446105949618      4.5473779252253266
   211   1     0.15938972522101361      14.329818294298059      2.8905485226281091
   212   1      1.5838038306759608      15.781105034452636      4.2352051882020882
   213   1    0.048652219332542608      17.330214400681339      2.9067233244565842
   214   1      1.3612308515108809      18.722533089534167      4.2409928869526645
   215   1       28.57026365804197      20.142718075473756      2.7553954627383397
   216   1      1.2384083152512648      21.576024543125335      4.3112095085583837
   217   1      28.444849611252142      22.937995191570863      2.8644569138597609
   218   1      1.3668710523966889      24.300840634133749      4.2058692036334078
   219   1      28.376638417312211      25.861856284292831      2.8268368089468821
   220   1      1.2233327205001059      27.152268801151262      4.2284316244156379
   221   1      2.6946944606632219       28.50281431648915      2.8912679810967088
   222   1      4.3093313660857504      1.4992203521916052      4.2418252689189178
   223   1       2.950578903704816      2.8189519327396968      2.8091096228901722
   224   1      4.2575958460547527      4.3218673938012229      4.1490780290705613
   225   1      2.9166175034868353      5.8468203349226213      2.9345548917750697
   226   1      4.2437088712216626      7.1466991974142298      4.3926367768959675
   227   1       2.886478059048172       8.872893715554607      2.8587709365926215
   228   1      4.1135898348248716       10.06162342949734      4.3885469380713333
   229   1      2.8285565737236427      11.521809089964151      2.7473070476213239
   230   1      4.4374957245102875      12.946522699291418      4.3437407764618792
   231   1      2.6855644388151858      14.191778603300337       2.902982939355311
   232   1      4.2734932831610521      15.736890587742451      4.2701595793498388
   233   1      2.8314847561418919      17.232949353207815       2.915280361628005
   234   1      4.3754327016199106       18.57000081471524      4.2455018217188467
   235   1      2.7456592454378099      19.891907770694253       2.830806564544651
   236   1      4.0347534396075586      21.474940669176977      4.1958804700924093
   237   1      2.9439704207683111      22.959560842453769      2.9146778888909064
   238   1      4.3126854199329436      24.355177812677287      4.2580151979117344
   239   1      2.8553704273794116      25.780553482359224      2.8191287573481869
   240   1      4.0885587164243615      27.269779072161533      4.3681911224892085
   241   1       5.771336096719847      28.686273970895016      2.9191673211953395
   242   1      7.3331989780146323      1.4841909826183377      4.2834693331655105
   243   1      5.7404909514897602      2.7010231186126692       2.861397450451852
   244   1      7.3291860039498227      4.2759380880438522      4.2541656825506218
   245   1      5.7375565058260793      5.8443028068752572      2.8089094871391911
   246   1      7.0831794010080813      7.2370541310679171      4.3979491820644894
   247   1      5.6860333383862702       8.390598512593165      2.6487236753513117
   248   1      6.9777405505689565       9.990685921414082        4.25106293365097
   249   1      5.8573014901883411      11.469253267968012       2.896130502554608
   250   1      7.2624595085065051       12.76730035610867      4.4160412486100489
   251   1      5.9098420865289096      14.352836768139127      3.0147701997977432
   252   1      7.3085515243610182      15.910034513447117      4.0941378384894946
   253   1        5.77166599939161      17.168149531838289      2.7540482563729585
   254   1      7.1934723545493604      18.696622225183184      4.2319587528135365
   255   1      5.8707867467885064      20.096093328462835      2.6892611708689502
   256   1      7.1200402629712176      21.536602350421685      4.2683397128148943
   257   1      5.9280852105858068      22.914150044748546        2.69962377179636
   258   1      7.2375982974741992      24.296760818811904      4.3738515505889408
   259   1      5.6215886769451373      25.793108870352878      2.9900722309978627
   260   1      7.0317512850836641      27.207789371204193      4.2995073537740502
   261   1      8.5435256548029663      28.529039981512046      2.7522231530929036
   262   1      10.021240268636815      1.3999172425673678      4.3128407449351247
   263   1      8.5910080317965178      2.8387348660289726      2.9783566415645555
   264   1      9.9984899636992939      4.5767070300075474      4.2845002267657524
   265   1      8.5674258393425724      5.7759670060542101      2.8278271458594748
   266   1      10.238981151059974      7.1540240696582673      4.2411989487994308
   267   1       8.590475514980751      8.6703106301171378      3.0178580412769285
   268   1      10.006507194312432      10.007197765218356      4.6190049010022038
   269   1      8.6517594061099956      11.369782890120792      2.9817695399955952
   270   1      9.9877414897308299      12.853435224596682      4.5544192120650964
   271   1        8.72897215272158      14.253579596369546      2.9963956920411152
   272   1      10.013754114020731      15.736762160764012       4.425387625909746
   273   1      8.6541445516129407       17.43768703524799      2.8851345646994568
   274   1      10.204781528720925      18.686073877294671      4.6546185032701164
   275   1      8.5963757891195076      19.991714214600282      2.9307417645914251
   276   1      10.178668566014524      21.352801738645766      4.2678035110377106
   277   1      8.6932486556386355      22.989888445982071      2.7689089640750018
   278   1      10.115841342752093      24.360841201283179      4.1964828384455988
   279   1       8.585258383322838      25.899458922644175      3.0141420154867751
   280   1      10.018670814763054      27.396513592267301      4.1491052780913478
   281   1      11.521781242690404      28.688614006786992      2.9388346170743498
   282   1      13.148889162813148      1.3773378385537729      4.3543679399652166
   283   1      11.396881172536222      2.9892830134762476      2.7570257691255162
   284   1      12.911187271210293      4.3037122097353091      4.3566237171422904
   285   1      11.626506753791229      5.7723866143248719       2.677731905385917
   286   1      12.968607668108664      7.1103597389684863      4.2971715061241547
   287   1      11.372960729400962      8.6697223866836826       2.965058024895153
   288   1      13.136225176117485      9.9018716450204955      4.3610066855080936
   289   1      11.530206580436058      11.331913553297918      2.8730840964598663
   290   1      12.826261051096793      12.572426937613193      4.3427971712298543
   291   1      11.636319750848799      14.354449846120692      2.9771339505486161
   292   1      13.089471448141758      15.827226763250376      4.3370315717513233
   293   1        11.4930983794606      17.135376850372204      3.1631182113597918
   294   1      13.032232843186595      18.674753802108054      4.3286826198923292
   295   1      11.584074369195267      20.002496700613008      2.8214448990934771
   296   1      12.811196552422915      21.279878793899361      4.3434983816444497
   297   1      11.477139262530203       22.78740768832051      2.6637108451466696
   298   1      12.680721328155228      24.516406233881234      4.3676041859393244
   299   1      11.309607718621773      25.992167302865298      2.8355640074866533
   300   1      12.949544211618479      27.391204683140124      4.2141239150534178
   301   1      14.351731782621304      28.656355595691242      2.7593208421873889
   302   1      15.888320547798935      1.4339432413875544      4.3173082662774807
   303   1      14.411425853665659      2.8250539317560524      2.9726834157461397
   304   1      15.945248393350873      4.4889413161288614      4.0385507924872313
   305   1      14.475609578154806      5.7486352383445327      2.6758494237221386
   306   1      15.937239679617401      7.1385251399362026       4.175945552649849
   307   1      14.469251079072722      8.6705883893753448      2.6875643858177907
   308   1      15.701912997043664      10.167192601688729      4.1217485220199066
   309   1      14.343324331093591      11.479128585157046      2.8363811085253126
   310   1      15.708951263481827      13.025527995374448      4.3629963373233638
   311   1      14.313208028333475      14.213546863234011      2.9453766979642353
   312   1      15.881828371677784      15.927438198375047      4.3582033103533302
   313   1      14.556753052529151      17.226905935564261      2.8891335844080319
   314   1      15.847469670751627      18.746995256632353      4.3174218704369318
   315   1       14.34991290629444      20.002767717785254      2.7065949256583277
   316   1      15.924145313428246      21.444144897144749      4.1345322395685216
   317   1      14.007643345366423       22.67073553931694      3.0584196942094173
   318   1      15.721498113952036      24.444335049321484      4.4700439961127874
   319   1      14.313215602381119       25.82222200432987      2.8861798870949436
   320   1      15.905405975286486      27.160748242722264      4.4188129166723158
   321   1      17.397273060127603    0.028990988597320275      2.7749936464951941
   322   1      18.795667725669389      1.3812636964746607      4.4712219834197739
   323   1       17.19106904894641      2.7086579207029784       2.840915388343888
   324   1      18.675269489782025      4.5123547375346229      4.2009098723665268
   325   1      17.372170967201466      5.7451642782870849      2.5006072398684975
   326   1      18.568964322155296       7.036409647416801      4.3548693039391324
   327   1      17.329872273661653      8.6500268236037403       2.837185509687254
   328   1      18.572062618552817      10.150155723646616      4.2612496762810892
   329   1      17.369343047831986      11.511177145889471      2.9553938866409095
   330   1      18.534193332052318      13.040197018417063      4.2538242283652039
   331   1      17.198066050722119      14.459701105871643      2.9462193527251728
   332   1      18.504038604052948      15.725440341140933      4.4351995515413583
   333   1      17.330477504865041       17.23684953698255      3.0038683747240627
   334   1      18.752647028569509      18.532011078358714      4.3652782434499704
   335   1      17.331953169701517      20.066945517128072      2.7896985455744789
   336   1      18.710940795840447      21.606296254947488      4.3637389550994863
   337   1      17.344256876434446      22.871943135565772      3.0421769214208121
   338   1      18.637660271901304      24.420595086067799      4.3152977684331164
   339   1      17.282273916231844      25.840368261100092      2.8088903078263563
   340   1      18.780947152901472      27.114985140943336      4.2262503383970911
   341   1      20.157215948995525      28.681687203246952      2.7983426860310607
   342   1      21.604184382998291       1.380777451586346      4.0643800031477433
   343   1      20.077776789685025      2.7319667726176697      2.7791641267587122
   344   1      21.459879756898172      4.4734330912713869      4.2542404835849421
   345   1       20.25649969241957      5.9301511306600441       2.745698770323088
   346   1       21.51266717348674      7.2338408985461458      4.2485531037000772
   347   1      20.118611732974728      8.6611453111140548      2.9939367449750152
   348   1      21.677439582864938      10.142367897874317      4.3840767160601546
   349   1      20.264686407364263      11.521594248656399      2.9795682518319375
   350   1      21.584368611624594      12.795622332688414      4.5507487860826483
   351   1       20.25949964396262      14.719480120739011       2.967842673090118
   352   1      21.685491611028048       15.63214970431611      4.6434312516426788
   353   1      20.173916003627863      17.213752413006691      2.9465074558453757
   354   1      21.729470961175959      18.839438638130961      4.2971361654725513
   355   1      19.964095632685659      20.093490276334663       2.816096316916707
   356   1      21.593485366039513      21.542014771741979      4.1341464870818534
   357   1      20.044084808393119      22.912089478136732      2.9506656554089168
   358   1      21.583041597388132      24.402553905943897      4.2017054650675876
   359   1      20.196878888068845      25.799807028848502      2.9187746805106709