dump/Mg_1000_0/steps_51 (written by ASE) 

4000 	 atoms 
1  atom types
0.0      32.100000000000001  xlo xhi
0.0      55.598830921999998  ylo yhi
0.0      52.130399999999995  zlo zhi


Atoms 

     1   1     0.29794138839519069     0.14695766491326082    0.029514473173619181
     2   1      1.7726875838481226      2.9687767779028875      51.808877846735207
     3   1      2.3640120141943948      1.3109214968975949      2.2447786056779147
     4   1     0.60543114299026679      3.6985910759017178      2.8552181544949349
     5   1      32.026927898859263      5.5474658675533011     0.12019038042835044
     6   1      1.8155163294787309      8.1404504237608748      51.966567853457661
     7   1      1.7569727935309745      6.6353689541418053      2.6565057096463764
     8   1     0.34357271379137932      9.4709012126218486      2.2117247341587181
     9   1      32.050936971980327      10.980638556035993      52.016597119512241
    10   1      1.9201148803510082      13.969376506580911      51.905334345830674
    11   1      1.7789487291077888      12.247922886345489      2.7988054899649675
    12   1     0.13119509921692837       14.74450538041617      2.1977207290306042
    13   1     0.20837204303866641      16.574284413237859      51.983460536648053
    14   1      1.9367468535787355      19.399355362979719     0.14552343225990866
    15   1       1.796787159124678      17.561629210614068      2.7316567406834023
    16   1     0.24504108036956174      20.320419071257017      2.6196010403109393
    17   1     0.74376768368169888       22.32575141090318    0.018711120980314275
    18   1      1.7300411110891394      25.071169756532473       52.06200848615471
    19   1      1.8351263837604299      23.436354851504856      2.6283294805999433
    20   1     0.25786040530197346       26.12919961017122        2.39614867776644
    21   1      31.890515864682111      27.711076893057754      51.921923485135153
    22   1      1.8150561547959942      31.287482056310992    0.061850217332593098
    23   1      1.2466752547970963      28.963203993121233       2.433827139468403
    24   1      31.828046942406029      31.891681323868738      2.5839311217010206
    25   1      32.007564935022621      33.608089868923798    0.069674596413924345
    26   1      1.3979798905491529      35.935525634593255     0.19204852274634118
    27   1      1.6981306267047021      34.426831886620711       2.848849878893986
    28   1    0.022919314824755625      37.029698504982704      2.4877623012022778
    29   1      31.953451277349494      39.090466976115508    0.061084582505087567
    30   1      1.4453549840437316      41.729760500635209     0.15323161570422905
    31   1       1.583512436729384      40.119347926927325      2.6756852652570444
    32   1      32.012052214493366       42.88271979901112      2.6801095147062188
    33   1    0.084430676977561153      44.642365017579451     0.19079108124181629
    34   1      1.4490620347908654      47.379223812224218      52.088140655751587
    35   1      1.5384367474138834      45.655871893980603      2.8391414165565805
    36   1      31.867238352562804      48.149541626816593      2.7246787446406722
    37   1     0.35813337281688679      50.090985615565288     0.30962865711203058
    38   1      1.9300509879810559      52.478951645601697    0.029383848805238803
    39   1      1.7291463596373706      51.386757516931453       2.796857542375542
    40   1     0.53615455797651346      54.135641710249139      2.6583908851519791
    41   1      3.4150169882871166      55.397144749500207      51.847435185641444
    42   1      4.5265060455049682      2.7957468134145502      51.924570385371048
    43   1      5.3979020401594164      0.5382852096969819      2.9123294610584365
    44   1       3.433182980351853      4.2407510559114767      2.6400521016515626
    45   1      3.1274138730199992      5.5955626453045699    0.073812570377758999
    46   1      4.9533610826949115      8.2906465156244948      51.868438737330862
    47   1      5.0837233015521557       6.724911396204881      2.7362745636875792
    48   1      3.4529550289497046       9.096476636466857      2.6278996270833326
    49   1      3.0682701722008807      10.889478434916999     0.30319018683257554
    50   1       5.053866076839987      14.600066188947505     0.13039639729198088
    51   1      5.1701774449181288      12.184710298255407      2.1958365957900878
    52   1      3.4264802840953097      14.995423970548631      2.7850471796530076
    53   1      3.4002213103051733      16.771207586017916      52.036785877360828
    54   1      4.6663964273948917      19.904714112830924      52.001346151672593
    55   1      4.8242454392576661      17.788616374794028      2.4263610671324223
    56   1      3.3870841551420732      21.152759124419855      2.1998987964763521
    57   1      3.5804238495549687      23.020550506118617      51.891540724880315
    58   1      4.5532027684382621      25.353260167971904      51.981038780131861
    59   1      4.7763890996932226      23.597834713899434      2.7277794188374385
    60   1      3.3533980844984295      26.154854901578698      2.5436011255493987
    61   1      3.4415352175802054      27.993910192783844      52.073011703097443
    62   1       4.656800429433491      31.289143758676406     0.12492361025887579
    63   1      5.1624259240578088      28.841189954160477      2.4532257920504446
    64   1      3.1127164685100568      31.743195449494692      2.7488273506951062
    65   1      3.3240083152675663      33.734585394623913      51.965956743728164
    66   1      4.9401423878288604       36.19340960091894      52.030542485737605
    67   1      4.6790834999669277      34.816908284030575      2.4505584196270234
    68   1      3.3449826404693486      36.977273020980839      2.5052804507275415
    69   1      3.2311940235924173       38.69046298014284     0.07288815075139489
    70   1      4.5036884087635061       41.92516393013959     0.24991420059929545
    71   1      4.7359088980887583      39.845292490571403      2.4691054560057228
    72   1      2.8982932952368543      42.900390581821071      2.7508773033541236
    73   1      3.0133012392465304      44.486242851832998     0.23711508661526465
    74   1      5.0095047372090384      46.861884736644456      51.878569638668083
    75   1       4.633445437732945      45.197964533545004      2.6658449226225449
    76   1      3.1582492194068692      48.529260903827002       2.596024924989814
    77   1      3.7062080779794631      49.834282600089814      51.862959741674864
    78   1      5.2582252900461723      52.519323702469578      51.941504422084094
    79   1      4.8993569495233125        50.7366716047461      2.5692020961840165
    80   1      3.8457754863030575      53.542366862392193      2.3142142340886096
    81   1      6.6023656717698636      55.384682566685136     0.35864518596072981
    82   1      8.1692859869891326      2.5769397448088931     0.19024770266430976
    83   1      8.1424727953788292     0.58757847202787117      2.8119074179666486
    84   1      6.7195417129690327      3.3191990481076221      2.6934842295533956
    85   1      6.3332864256317771      5.3300360784258629     0.31748468185033524
    86   1      7.9307071833379021      8.1039049979260653     0.28451923198365636
    87   1      7.9161139275742602      6.4142831296869769      2.4476824420339875
    88   1      6.4448648782287696      9.2038910179003235       2.438978987434484
    89   1      6.8079040725999782      11.258944026730516      52.084937094722704
    90   1      8.1637298178752111      14.318888644717648       51.66994596941305
    91   1      8.1333381757790555       11.64118092960303      2.7953286560253856
    92   1       6.457463518009666      15.128755274720159      2.2937064582936304
    93   1      6.2893472252316078      17.689550071782254      52.000136794421067
    94   1      8.0972464015546795      19.922345039013905     0.10800075243808648
    95   1      7.9629930438604024      17.966664150528054      2.1125216261084097
    96   1      6.2091599333910397      20.463138523777857      2.4984010051088581
    97   1      6.5516172409489659      22.427640304698048      52.102397814700232
    98   1      7.8862871848580944      25.034782026738647      51.963162371626204
    99   1      8.2388868355624449      23.378864355182149      2.4113921246663979
   100   1      6.5310717185404972      25.907186276334091      2.3471992104299502
   101   1      6.5067585046776273      27.527937842645631      51.843243194347316
   102   1      7.6678568136334455       30.21802129102478     0.31812667236344744
   103   1      8.6675639457209908      29.082716357365854      3.0677570441855697
   104   1      6.4180657491382078       31.77659413309275      2.6089500788254729
   105   1      6.3467782450466554      33.464050217730588     0.34739679998671846
   106   1      8.1305110790291959      36.030933699282599      51.878171543954984
   107   1      7.8219225617396297      34.595893049958171      2.7798330223770047
   108   1       6.631371456964299      37.169742193652596       2.476431194006703
   109   1       6.464624068894504      39.020028982219024     0.44699322759730364
   110   1      7.6151414118230543      41.599353507430592     0.10736992165967207
   111   1      7.9547476639787806      40.180657575263851      2.9300699008757554
   112   1      6.4452139961803407      42.471721413062703      2.7940919552665902
   113   1      6.2176828516671501      44.396359054338873     0.20861285198545312
   114   1      8.1564721083720961      47.271081320531032      51.924500121141648
   115   1      8.2156705240077841      45.026683993117473      2.6133507821536361
   116   1      6.1446810024435692      47.902037126776065      2.3177026854044058
   117   1      6.5480540712773267      49.770059541689157    0.023242381434333142
   118   1      7.9247432937001543       52.39178766448935     0.32782073049943256
   119   1      7.8075464194345141      50.024847484788516      2.8549899125577385
   120   1      6.6199680034299728      53.461651116673934      2.7758619047628765
   121   1      9.6456657276523181      55.393072312431237      0.1165153059195625
   122   1      11.133159518496052      2.5033517850457634      51.766874650087317
   123   1      10.757367140163442     0.61995742951629762      2.7691515487743046
   124   1      9.6426450435355058      3.5131428223207477      2.4555783051067412
   125   1      9.2457817707816901      5.3258610917283162      51.891100174115458
   126   1      11.539449488259157      8.5004375272733856     0.16422712305957271
   127   1      11.078175431885361      6.4532384206557998      2.5052754883168005
   128   1      9.5965679224841747      9.0186040936700955      2.8115891792803054
   129   1      10.051193832314233      11.139201321974063      51.801308762155585
   130   1      11.196554205922565      13.647179932736698      52.067708872175395
   131   1      11.268404282497125      12.229127719131601      2.4913401065398464
   132   1      8.9222548797828889      14.289591107427855      2.3600770542350911
   133   1      9.5995799600122282      17.056995568129686      51.953018948857569
   134   1      11.458156117986684      19.809697985053958      51.881886945023645
   135   1      11.866384996048989      17.760660938736518      2.4245157639203416
   136   1       9.872958026809826      20.245988234849211      2.7382406035822471
   137   1      9.4807516695875336      22.441776727626841      52.086629706200178
   138   1      11.074071447264497      24.868100624937341      51.893113351436092
   139   1      11.291599092286141      23.360603552952565      2.5286249144720667
   140   1      9.8416748308858821      26.344171402457263      2.7065864986926651
   141   1      9.1376459166339465      27.477564063310034      52.076738175707973
   142   1      10.725780008476045      30.238279170497794     0.49657387640337897
   143   1      11.556696112074532      28.754543739232592      2.8742071955106798
   144   1      9.4772738016544782      31.806337110313343      2.5862408095354463
   145   1      10.082931663620156      33.891933560948466     0.31045261204775298
   146   1      11.335113666472662      36.260677570359405      51.525938719990791
   147   1      11.762009279359665      34.378095917500282      2.5066752284547795
   148   1      9.6754717659816034      37.412084515579501      2.2447214981754096
   149   1      9.6190753817423129      39.105216469276755      51.994513721633162
   150   1      11.044014836207968      41.645526099270235      51.949798042824618
   151   1      11.303634200327453      39.937371240087728      2.4398786065460958
   152   1      9.8165380840618433      42.523434255587325       2.416135507662085
   153   1      9.7129801623149756      44.372165618367006      51.850721819901736
   154   1      11.287919424779203      47.128426115875811   0.0050939852208314708
   155   1      11.344462332440546      45.583109692127664       2.476005836997718
   156   1      9.8420647651323385      47.852373202665696      2.7172229465727717
   157   1      9.9112998934600611      49.969288190836458       52.12071162247365
   158   1      11.091181857918464      52.351999349477417      52.017824705192737
   159   1      11.130221990768648      50.263648880464324       3.139084218463017
   160   1      9.8111234359538901      53.481758019598701      2.7796113853674993
   161   1      12.871684082813978     0.24019562720118828     0.11580703066217651
   162   1      14.316612338652735      3.1128781744972054      51.906585938278461
   163   1      14.467006931796535     0.74178624520619518      2.9067746453851959
   164   1      12.880539873672035      3.3423450602349027      2.3750362596205736
   165   1      12.281339045600584      5.5143807649414871     0.17870497157431778
   166   1      14.513970835620942      8.2545187185261852    0.069174188086661495
   167   1       14.39274414302562      6.3678930472613615      2.5002148824497104
   168   1       13.07699063274821      9.3767945980126708      2.8299989136442836
   169   1      13.111404132286705       11.25995044147289    0.021741866351324728
   170   1      15.374562017929572      13.366678445461572     0.18936165474331429
   171   1      14.552510416874981      11.871737789135027      2.9692386570041207
   172   1      13.379833455379169       14.86479618687974      2.2562714221710825
   173   1      13.335099922589286      16.216135421023768       52.02625151379408
   174   1      14.717077628057458      19.342291980917743        51.9687074461118
   175   1       15.31433222424247      17.611775394768625      2.5101368157174586
   176   1      12.984997158463502      20.770905027826213      2.4245423875159449
   177   1      12.969945046216157      22.587952133763476      52.102615333211666
   178   1      14.489110097187872      25.315153619249688       51.96952833193825
   179   1      14.894721445969473      23.076062232082446      1.8995279768169491
   180   1      13.103094726847713      26.156069592477994      2.2808991168374053
   181   1      12.450547085155115      27.555041668684467      52.010543880404917
   182   1      14.045087617078638      30.091810399252559       51.94704562523799
   183   1      14.623829122456906      28.286300668297461      2.5920340881936363
   184   1      12.584276902604744      31.540841554391211      2.8020918782234392
   185   1      12.875060512841854      32.797059663135116     0.28595332502223081
   186   1      13.997523472841387      35.484417552774516      52.123172470476504
   187   1      14.907219129278081      34.153322888582039      2.5543835914055864
   188   1      12.957347100362371      36.953625820546854      2.4409658020280323
   189   1      12.748748071613878       38.33465506919336      52.079543603726464
   190   1      14.303779199407339      41.219717194470988     0.30955382492165062
   191   1      14.473417231902291      39.787800612193685      2.7101109425338512
   192   1       12.90311209644034      42.471170611623471      2.5259680191703584
   193   1      12.744147298399588      44.055029918782004     0.11251594921790928
   194   1      14.375181223365926      46.873512135794662     0.20842997328731955
   195   1      14.488514455018551      45.322927151233458      2.7884441487975233
   196   1      12.864214365019455      47.978070661465161      2.6848623746310349
   197   1      13.333923324432863       50.11904453021161     0.23450124707784942
   198   1      14.118295008635988      52.968672796754518     0.28941103981234245
   199   1      14.377980801495745       51.02102691972236      2.9848755043201445
   200   1      12.736256634079576      53.725268292854302      2.6950593078388985
   201   1      16.021876456056937    0.017516974853454725      51.756924420268305
   202   1      17.598207663527145       2.985379018549454     0.23682180086836621
   203   1      17.453809175533774     0.40403671688623938      2.5738909140503909
   204   1      15.878016022558786      3.6524591560351234      2.4215860478555453
   205   1      15.779816775370383      5.7866375203411247     0.17118439984620609
   206   1      17.706809265108291      8.0492192081521878     0.10576536715691437
   207   1      17.859026626720649      6.0215620386281579      2.8321908072641202
   208   1      16.274076418577891      8.8503382706628564      2.8365391362856527
   209   1      16.203672822792491      10.603793444561783     0.24827467839442985
   210   1      18.191971493890328      14.073062411829833     0.26803519056420788
   211   1      17.294824412062532       12.19265061124959      2.8347822661761706
   212   1      16.292847930624877      14.920703997791909      2.5951418534721968
   213   1      16.684048510731156      16.668270594840756      51.757903936999142
   214   1      18.236778070037971      19.490109004668273        51.7188293198449
   215   1       18.18570391644403      17.474178609820211        2.43561108399948
   216   1      16.020768364071987      20.268810846674359      2.3912121783120228
   217   1      16.254641528169554      21.758586074109363      51.750963220468563
   218   1      17.535775542771031      24.772880820904735      51.966796541719653
   219   1      18.067600193340393      22.851707618069693      2.6451774517832263
   220   1      16.118616364513102      25.608779568697916      2.5604240787731665
   221   1      16.027051897899696      27.566012509656549       51.95782322271095
   222   1      17.471431212976956      29.886972325712104     0.27693872721567248
   223   1      18.150977571055815      28.261505537211697      2.8960776945572437
   224   1      15.709708954845459      31.199427806039051       2.728936589229908
   225   1      15.891475747871075      33.036369013966173      52.117404377976008
   226   1      17.186825382568195      35.920405372254891     0.22641499946217067
   227   1      18.053300861198402      34.357487701785942      2.6850442072355407
   228   1      15.846009434341607      37.077654422259407        2.33822268798989
   229   1      16.132135359505689      38.659944674704235    0.018502147239152767
   230   1      17.046544847460034      41.425689768008795    0.016578665137154187
   231   1      17.786244117469916      39.971832411841433      2.7351402972162062
   232   1       15.74717290616621      42.433457801478568      2.6330671329571005
   233   1      15.906426769445064      44.064531767485001      51.843596288098901
   234   1      17.632431400645459      47.309838217734686     0.21376662532446628
   235   1      17.700577191120029      45.912353266750848      2.9595401991468342
   236   1      15.990115611487687      48.321294632326641      2.6516730714836112
   237   1       16.14856561783164      50.370322685994871     0.16936089855061137
   238   1      17.457973815127243      52.705838455578942     0.23507709772689234
   239   1      17.422585475301489      50.619170183482758      3.0848050269720293
   240   1      15.867766601812901      53.838946554966093      2.7900869835650557
   241   1      19.077147617804652     0.38055597829954124     0.34682140063779499
   242   1      20.901459186569458      2.7340649357264697     0.21395650401939459
   243   1      21.274207165996891     0.70345105491696736      2.7010195280822984
   244   1        19.7050747906361      3.0721835891185272      2.8734451317556058
   245   1      19.493232487991968      5.3218564836529199     0.39100151067697592
   246   1      20.755224668553971      8.3442701636634808       52.11254379351162
   247   1      21.021011028606946      6.2718681275820893      2.6550445555090691
   248   1      19.429960806909797      9.0760757853851768       2.687739074236704
   249   1      19.223886386851163      11.265801795419454     0.29321939292022769
   250   1      20.999236296450292      13.811769341410308      52.047788498244735
   251   1       20.87986459073381      12.286045573367895      2.3817674601285943
   252   1      19.508686885151235      14.949559994347394      2.5033224794085975
   253   1      19.836785189447774      16.686135851120305      51.778249017249102
   254   1      21.297480180569138      19.195846429561879       51.46155987668665
   255   1      21.290987006044446      18.045409007918028      2.5781608272448429
   256   1      19.954301441099595      20.331690954345095      2.0571126881938988
   257   1        19.1263673813888      22.116730738351674      51.685234115856616
   258   1      20.848884394333208       24.79340873776955      51.984921704143787
   259   1      21.080935081979344      23.348881903744342      2.5131647399900814
   260   1      19.538690299330014      25.619614304292678      2.6182338708384183
   261   1      19.465061642250429      27.436081561388747    0.047843375139993913
   262   1      20.868414340952434      30.553408840909082    0.072655722803941711
   263   1      21.171814426258514      28.504235219334582      2.0985499173180626
   264   1      19.071372817016073      31.540504745829441      2.1721682240188986
   265   1      19.299263672146193      33.473943234742578      52.111191265530316
   266   1      20.837339077334509      36.200138376671873     0.16645869964367824
   267   1      21.161996017500531      34.246909042432442      2.2825108913123557
   268   1      18.901901621820652      37.135838590471053      2.7498314950486873
   269   1      19.067239290171869      38.517679584513381     0.35539943869177165
   270   1      20.231081246113447      41.160656170858523     0.85458987074228931
   271   1      20.852538363438022      39.327350304461262      3.0712416295183664
   272   1       18.47018523382787      42.878201049199141      2.9853034888074372
   273   1      19.284307597674744      44.404532272127362     0.20402091185415872
   274   1      21.179116867061918      47.335415816937449      52.102824728315021
   275   1      20.614844844455313      45.600316455320424      2.6176732265065432
   276   1      19.438139943379603      48.566010050435217      2.7144768602113722
   277   1      19.142569646051516      50.000825842046197     0.17829590056183992
   278   1       21.11912421977312      52.255058877305977     0.51107443598959779
   279   1      20.701657699188434      51.095144338879315      3.2983652745814998
   280   1      19.392369396493326      53.752657903039733      2.7210065044879403
   281   1      22.298540087380374      55.341080468878367      0.1598830286103709
   282   1      23.954630697267454      3.0556087482481149     0.27921321550765649
   283   1      24.219222433785035     0.38812111755505191      3.0908227302887235
   284   1      22.625768536000692      3.3455717059706753      3.1950309487877684
   285   1      22.336615751297639      5.4433455826250521      52.123763604692186
   286   1      23.723534470729639      8.0591824526537046     0.36752248209630728
   287   1      24.239576788354874      6.4734148837141605      3.0729018119450564
   288   1      22.273430698513845      9.0128570121233107       2.797013782152046
   289   1      22.479811667422034      11.074790289959353     0.18056085289042417
   290   1      24.902834143014246      13.973135698929996      51.904663258653734
   291   1      24.048701252427737      12.026277959246841       2.586520121252927
   292   1      22.568618285924064      14.881288867459313       2.201814797891724
   293   1      22.776325862289344      16.710370471749748      51.947190133273821
   294   1      24.281088576815474      19.331269047495596      52.097540003047754
   295   1      24.339200594052507      17.861188292400001      2.5657913356186444
   296   1      23.134210849480361      20.629365766508872       2.481081131036408
   297   1      22.557253677354577      22.134282504880211     0.06790791648746955
   298   1      24.435280424259535      24.899417535440531     0.29508531916509084
   299   1      24.658815768755336      23.247325663022981      2.7427686714267754
   300   1      22.765282456863574      26.074674748177877       3.044185054163226
   301   1      22.567946374859151      27.755411742206004      52.050417633201896
   302   1       24.61543189150062      30.598991766171849      51.785089552279899
   303   1       24.14687356456329      28.770241786393722      2.2260978515790426
   304   1      22.309845326755525      31.623526903483722      2.3526478565307558
   305   1       22.33281983546129      33.040506425966647      51.636585273116715
   306   1      23.903937687225717      35.712130115175455      52.127413467076153
   307   1      24.265493328349251      34.305391446439458      2.4481050166152558
   308   1       22.70914769612315      36.878983998326355      2.2935242056455807
   309   1      22.673199156937585      38.846988346666862     0.26388081124334761
   310   1      23.608928057793541      41.660297053504991    0.092998346147341107
   311   1      23.492804028399529      40.096208791005665      2.7769317338162982
   312   1      22.047139297787449      42.855448035129427      2.6068789360882163
   313   1      22.288312892109559      44.457803855992807     0.18425484182820231
   314   1      24.224504650309541      46.985318668494543      51.913208684393481
   315   1      24.273949409935447      45.571077123082837      2.4634541226939883
   316   1      22.433843310147548      48.052104936995789       3.003768266874784
   317   1      22.616895159721704      49.957114780273322    0.024387508284925547
   318   1      24.141611989317518      52.714283197860475    0.067343173401790024
   319   1      24.068301326638142      50.792235981196733      2.5279135869397402
   320   1      22.589052475196144       53.29152370366517       2.749350175882606
   321   1      25.644288172599552     0.18126092033154109       51.98067724268715
   322   1      27.307171860690961      2.8531338455852548     0.41368404995444519
   323   1      27.269155772021158     0.54915339119980178      2.5464831034918975
   324   1      25.483791093475375      3.7415244892729089      2.7470723324635364
   325   1      25.589989573611742      5.9976524256564057     0.21414359990138662
   326   1      27.308272133054828      8.1662973808634458     0.22097640620205192
   327   1       27.44201418936856       6.450534182211455      2.5660845676710879
   328   1      25.694086973475226      9.3775688696680746      2.6634592069597134
   329   1      25.823561053899812       11.07001383261415     0.17469552179076814
   330   1      27.853170207564389      14.082036800507687     0.16666477466062746
   331   1      27.457254674214948      11.906352835113049      2.7971217936754291
   332   1      25.860261471228949      14.672757158983858      2.7743510112231999
   333   1         26.083193532267      16.797975147075839    0.052692074381131888
   334   1      27.310582263709907      19.560712496026593      52.126532546285198
   335   1      27.477913591349179      17.148359613585292      2.8273504969459879
   336   1      26.256362354036074      20.490384843511801      2.6692170949326903
   337   1      25.481522599247672      21.972857733239771     0.16177573730582104
   338   1       27.53121163683489      24.999828641224497    0.052724574823016672
   339   1      27.783019501892998      22.959731286956561      2.5799687563186713
   340   1      25.817412286394966      26.108736151365758      2.7303043932452464
   341   1      25.784166664532158      27.607648364034471      51.945622118405026
   342   1      27.629018440372391      30.922486196032619      51.943035557206628
   343   1      27.143100766859177      28.796821983597944      3.0875732898131876
   344   1      25.512449493169335      31.835911927443483      2.5654167641590004
   345   1      25.799084945532563      33.235190821978414      52.013101056865146
   346   1      27.576810242969746      35.968076830135132       51.71783576530914
   347   1      27.639867652449706      34.225757538462318      2.7573719143691986
   348   1      25.935007406310586      36.914297495531031      2.2106880976426293
   349   1      25.673985384908732      39.641510092771028     0.12153896154420109
   350   1      27.698549660939246      41.586031039535889   0.0091482223733741937
   351   1      27.187640360547029      40.342958460021805      2.7889247165316333
   352   1      25.084184554687528       42.43282170371296      2.5313799185520383
   353   1      25.881488416011333      44.224812143393095     0.27343947547946262
   354   1      27.452405279641582      47.625634548093764        52.1250712658059
   355   1      27.307339646897493      45.408054668633277        2.76628681124429
   356   1      25.442913397227507      48.202994678031175      2.0940508186752664
   357   1      25.590322965557892      50.088011790981383     0.24071717787201685
   358   1      27.526163841098665      53.326866499367696      52.111159882673903
   359   1      27.266595888764012      50.897579007853373      2.7921994745177363