dump/Mg_1000_0/steps_81 (written by ASE) 

4000 	 atoms 
1  atom types
0.0      32.100000000000001  xlo xhi
0.0      55.598830921999998  ylo yhi
0.0      52.130399999999995  zlo zhi


Atoms 

     1   1     0.11110714046335844      55.358219195661853     0.13760559295334218
     2   1      1.3019198845976145      2.7267244233973198       52.07694290679003
     3   1      1.4984887539149101     0.76340227640874514      2.5780854729855265
     4   1      31.837432269100209      3.8777312739271022      2.3752742366232882
     5   1     0.34766867035138233      5.7518948363402904      51.834080978778097
     6   1      1.7975710145807764      8.4319940713051977      51.868490035514085
     7   1      1.5460408745484535      6.5732186848274132      2.4788867441506897
     8   1     0.34720638296649903      9.2280260979159152      2.0992611518096367
     9   1      31.815638659250343      11.056256214287648      51.319023161177043
    10   1      1.8421327763357958      13.532997933319558      51.583990651004292
    11   1      1.3631451398485868      12.043538835749322      2.6614225862961458
    12   1       31.82969212340203      14.457978646625593      2.0969765504633124
    13   1      32.050982448860537      16.868312827551801       51.96064552387422
    14   1      1.3815471709828011      19.552861558901864     0.30592799876580379
    15   1      1.5375960487979798       17.66650405979502       2.751869703302023
    16   1      32.032470423966139      20.396557663434024       3.039998135042326
    17   1    0.083378721463579192      22.234013531856633     0.16201273978380781
    18   1      1.8873955647119867      24.775073927262433       51.97506552006849
    19   1      1.8501566776429752      23.548361244774927      2.8674119108124376
    20   1     0.43136755738719379       25.89725146180071      2.6942601112565208
    21   1        31.9874223542773      27.463992476799266     0.13322807993448127
    22   1      2.0223200526203344      30.625066623974057      51.828965268525785
    23   1      1.6498660533575868       28.77042644638161      2.9119632941441571
    24   1     0.39097668995908896      31.580949756814107      2.6043703849770745
    25   1      32.085281200216016      33.478527548074595     0.33757190542481375
    26   1      1.7989205976435771      36.249747292957721     0.31163017568326074
    27   1      1.8111316545657283      34.331351494312429      2.7571527008050007
    28   1      0.3511810132760288      36.883521457041844      2.5410123628101928
    29   1      31.968668082450371      38.990920446661946     0.28972034291159737
    30   1      1.3402797401406263      41.089857036033997    0.032939198280015056
    31   1      1.5405680943713074      39.675241811500364      2.6053224563767388
    32   1      31.479522468291357      42.785643740948188      2.7082383558888825
    33   1      31.762524012188102      44.964571883476331      52.011367204976025
    34   1      1.8280448493685462      47.180172165215851      52.016350516006334
    35   1      1.5767878386000249      45.433243812052588      2.1960540084979612
    36   1      31.788155437315616      47.764683433817922      1.9171252043475775
    37   1      31.913288068483336      50.373980005770633      51.634627465894773
    38   1      1.6383379925393493      53.039741870277012    0.031352032050995397
    39   1      1.2288495804247792      50.772884030239602      2.6786502613941137
    40   1      32.013721763038333      53.097457101334626      2.1845724410643057
    41   1      2.9453956216398169     0.21254556724894816     0.11906398478775398
    42   1      5.1135698503683251      2.6866165624586138      52.108084624726835
    43   1       4.614768395410203     0.91447817443172408       2.343495012469369
    44   1      3.3553938218344563      3.6057598068282415      2.4772845267554047
    45   1      3.1890264255536556      5.2778081067522624      51.984029890617663
    46   1      4.6765890904048577      8.3871533028417851        52.0693762676906
    47   1      4.6805636530883215       6.839683844259338      2.7065698452625107
    48   1      3.1638875974337557       9.870616554495184      2.4681713076078204
    49   1      3.5849315890084918      11.004226768845385      51.510943359749014
    50   1      4.6368961610055273       13.73297504071652      52.114510533816677
    51   1      4.5104271213902427      12.332805925932773      2.3676290036160963
    52   1      2.9516002096806586      14.946784388851816      2.1547606950874925
    53   1      2.9934278537246231      16.626034712733624      51.605192864838465
    54   1      4.6997013672991308      19.201638042008078      0.1529795688103042
    55   1      4.4851981044678988      17.474398216476786      2.6310074633499956
    56   1      3.1903994485323097      20.721947236551497      2.7574384274808486
    57   1      3.0549359999300933      22.128170080509456      0.1527622873812253
    58   1      4.7838108784365536      25.286107980526054     0.27864624107361802
    59   1      4.9101801512048402      23.144882367006151       2.726600813422817
    60   1      3.5451617085702312      26.245980535422397      2.6833335705531129
    61   1       3.043110377430108       27.84933751442167      52.113695587580807
    62   1      5.0404178811666691      30.316677909041172      51.949878255640954
    63   1      5.3029328881678497      28.833815989558172      2.4397945202822782
    64   1      3.5713779124493175      31.366344385152736      2.3430840152779471
    65   1      3.1612692518268717      33.373094944330269      52.127197440491251
    66   1      4.9125806214680061      36.353039542900255     0.10569372540691432
    67   1      4.8532783251561513      34.096789792688021      2.8727747978123053
    68   1      3.4803486766375604      36.926625283009777      2.9144195201508092
    69   1      2.9561371721928991      38.756224574910171      52.011050961580992
    70   1      4.7585604341843268      41.662510694267205    0.078336432980405074
    71   1       4.338523554613154       39.86945312087461      2.5343445651121206
    72   1      2.8049248934848512      42.581546962219392      2.0950524103790311
    73   1      2.6160078445733976      44.449055952914087      51.612485663626153
    74   1       4.737642884169599      47.430717609257833      52.007541481255501
    75   1      4.6193122917410809      45.114887631298259      2.3536104568678757
    76   1      3.2569893397005032      48.407866788062542      2.4024249005828806
    77   1      3.0620045685954298      49.966940399200205       51.66234628390108
    78   1       4.386402821838213      52.931167664516558    0.049182655107899327
    79   1      4.5513695419178157      51.121908609110385      2.3934592936862806
    80   1      3.0730938597304798      53.640068618814674      2.6671651273151533
    81   1      6.0374863993246182      55.423020428629222      51.751268221124739
    82   1       8.047445195726171      3.2139385132580296    0.023969360847058561
    83   1      7.5843389299014285      1.2059188329627333      2.6015375037629114
    84   1      6.4295320045161022      3.7844342573864473      2.6842578902876402
    85   1      6.2446260903590094      5.8175492779844156     0.16490347628170268
    86   1       7.952517757393073      8.2734399202567488      51.985108837751163
    87   1      7.9918732670176365      6.5064807834728224      2.8690743199884965
    88   1      5.9445483738660281      9.5431911566531031       2.619277023579667
    89   1        6.51265340017867       10.93444965620013      51.983247983252824
    90   1      8.0175846550307153      13.612276988886503      52.009754907409814
    91   1      7.8831138877880944      11.946844698950709      2.8358946885815075
    92   1      6.1825597180944483      15.089377737737527      2.3033731283517977
    93   1      6.3777693652617158      16.704623313467799      51.893459065883413
    94   1      7.8026168810336083      19.916440366251226      52.124321440818875
    95   1      7.6576536823314987      17.748444581166503      2.5863436082043454
    96   1      5.8624089372728339      20.273870057259181      2.8885045248785723
    97   1      6.5029980037259643      22.761472756449812      52.110958363584082
    98   1      8.3342980866062391       25.29890325583731      51.908161612036068
    99   1       8.232634277607886      23.255791547547748       2.358248478748274
   100   1       6.704014542945222       25.88594096282533      2.4276587118210702
   101   1      6.8872594263971481      27.820055056309599      51.911809635456045
   102   1      8.3190063033237607      30.453864048641496    0.064598546427237849
   103   1      8.4365082264403561      28.638474034030978      2.5571315940367585
   104   1      6.6799929241429714      31.760079568479682      2.6941950983537266
   105   1      6.2383104738767301      32.854565998098948     0.40949532562714236
   106   1       7.987320646633318      36.590840977047705      51.984870220848052
   107   1      7.9505943992372252       34.53630484271266      2.2796327935232226
   108   1      6.3860472300363025      37.294316011184705      2.7666756766242928
   109   1      6.5936281012391387      38.955173053961801     0.22905512679148479
   110   1      7.9449466998681491      41.622725430407954      52.091120619253651
   111   1      8.2913945903180739      39.743605108916668      2.4045323413942343
   112   1      6.5290877433433847      42.959629506657244      2.1280192838244005
   113   1      6.0769114531155353      44.736240762697136      51.794516768429638
   114   1      8.1050669267005091      47.738028074571567      51.841192105191233
   115   1      7.8904354802795087      45.641503935500154      2.4810079544487746
   116   1      6.6057147582041029      48.568722796137635      2.5429768801529482
   117   1      6.1027015119955275      50.379079150039956      52.039114406612242
   118   1       7.673001998046451      52.815306044114315      51.996028393534893
   119   1      8.0243827532446605      51.259982118645638      2.8117080794939988
   120   1      6.1620674647296099      53.757053889756904      2.5964028287712129
   121   1      9.9639094749916293      55.579360998372621      51.806761556917593
   122   1      11.363641385510896       2.568292538877234     0.33705582277927471
   123   1      11.068978492608377      1.1395859429820829      2.9073429628029066
   124   1       9.752709306218506      3.6842916502199934       2.711924668214535
   125   1       9.644665159757194      5.8771871296381164      51.884215431393564
   126   1      11.304452650955488      8.4012929098003095      52.112432909133368
   127   1      11.264800087594502      6.6792411258685513      2.5589508939427215
   128   1      9.5330347892802063      9.3163223205081991      2.7899254637389577
   129   1       9.881690072257669        11.0235792491994      52.122236379903917
   130   1       11.30474005316033      13.488107687312283     0.14821885382523153
   131   1      11.153391968780669      11.836372527817117      2.8458528081488068
   132   1      9.6617758173296515      14.273494626147237      2.5836242038564543
   133   1      9.3904161956664574      16.927344729030889     0.20552278130572169
   134   1      10.968419078229378       19.74070141793014     0.47929987219436621
   135   1      10.916147396131834      17.723623608446008       2.826727552721465
   136   1      9.1548659614632992      20.356063574396149      2.7445739371785693
   137   1      9.7089960221051488      22.432887253053178      51.896564486480386
   138   1      12.164487629275596      24.852361692600716      51.620996521397089
   139   1      11.180837078333379      23.385381773904768      2.2957738814749087
   140   1      9.9294733228949443      26.040794420958026      2.2635151485411016
   141   1      9.8314652184449649      27.723971055640341      51.946809910407566
   142   1       11.52980837769908      30.194766719409213     0.27451785904342973
   143   1      11.936961462220562      28.637000569289096      2.4493637230094301
   144   1      10.046055876857178      30.954922175637741      2.6971616250257582
   145   1      9.5185025083435164      33.660724108304542      52.100971608574106
   146   1      11.104791829987137      36.297388170856188      52.104910916170525
   147   1      11.062210067081997      34.290632347512343      2.5077205307699839
   148   1      9.4013376786989173      37.006569065177139        2.56541392556547
   149   1      10.115979320198173      38.950909329459805      52.016209442160587
   150   1      10.906808199640457      41.749879856137831       51.95757664729981
   151   1       11.05295536786706      39.939113359711335      2.4546747930997017
   152   1      9.6167185771188723      42.614220891489325      2.4420101936414138
   153   1      9.3247634088793028      44.388577010390122     0.15744178914699475
   154   1      11.025955913776169      47.149707974799917      52.003001321561854
   155   1      10.974412760548859      45.613659866060665       2.684260502214709
   156   1      9.5334587548670751      48.509586973533956      2.5614130813377538
   157   1      9.2026857700010787      50.456701914342396    0.012475953940090502
   158   1      10.696832369017619      52.896866627750079     0.29494975787008876
   159   1      11.106624274587436      51.376280151925137      2.5125464629871801
   160   1       9.206331500838953      54.489952907396599      2.4464505672214178
   161   1      12.814911182416974     0.11434589753188164     0.35704083606584991
   162   1      14.346988302809006      2.9866595632225001     0.20192829621230862
   163   1       14.29680517463561      1.1300003951507294      2.6378973326863329
   164   1      12.528153184884703       3.675273183513017      2.8593768789655125
   165   1      13.146752034357114      5.8322911244909887     0.34363165820295732
   166   1      14.816538371096085      8.1507947898690034     0.16796061499629555
   167   1      14.332900802815423      6.5978132177370794      2.8681755103178346
   168   1       12.95291852236122      9.3261474736955243      2.4558012305698207
   169   1      13.326486581124096      11.086038507297584      52.080950403028837
   170   1      14.651990289891692      13.885175020867505      51.844742872288727
   171   1      14.812634576577384      11.970751544898524      2.4186515617080855
   172   1      12.744929934382425      14.633252734674768      2.2862563310654727
   173   1       12.31014265841106      17.067089595260569      52.054094352485635
   174   1      14.209471191989625      19.459838779645253     0.21702389323664781
   175   1        14.0940099688342      17.646054500923235      2.5476357118766142
   176   1      12.790326112897953      20.572500296859911      2.5728303064329419
   177   1      12.820300348251752      22.148336673369013      51.982537352296418
   178   1      14.658063147436138      25.343848894583868    0.042706131591646608
   179   1       14.12559880270865      23.302062113611107      2.6597286384490255
   180   1      13.092523729750276      26.147953197756216       2.496526435283478
   181   1      13.342176793793852      27.840585431026312      51.917611622593341
   182   1       14.20187101920042      31.183079631771783      51.579182062268039
   183   1      14.846314541811591      28.667320943522711       2.769884751552198
   184   1      13.334631897802469      31.310715969525862      2.6968636862335189
   185   1      12.450615463822077      33.390846324896685      52.065405364990603
   186   1      14.098991762741774       36.34104246586859     0.14778756984921493
   187   1       14.23519474619372      34.056303452531999      2.9302395762436269
   188   1      12.179907245832336      37.474260864888095      2.5095946959371176
   189   1      12.935308377878775      39.027563468246662      52.012684550978207
   190   1      14.185577167684844      41.862304584057519      52.065042731295961
   191   1       14.10331922792896      39.838932689068692      2.5452528030232835
   192   1      12.731778995546257      42.851567269194668        2.76350542093259
   193   1      12.468491077190144      44.368977883576029      52.077223949768481
   194   1      14.000041836917424      47.094024954536891      51.916934090730493
   195   1      14.412210667864702      45.130667453298194      2.5297787729004493
   196   1      13.254495498054109      47.845567051401964      2.8209757256257046
   197   1      12.297628959758544      49.897127809370495     0.44417880836818979
   198   1      13.903407279707732      52.605790625813135     0.12842434388500845
   199   1      14.671098330294621      50.898624921057831      2.4371558404926605
   200   1      12.629042112493575      54.067925963697455      2.6636139525546483
   201   1      16.122706283249567     0.63390843983301381     0.19161215050949562
   202   1      17.600960181171608      2.9062200523618666     0.22485651196921333
   203   1      17.315103358931673     0.83181208544033491      2.8745765323535828
   204   1      16.284624127842399       3.920044376115257      2.4162321054036915
   205   1       16.02644993341103      5.8877812393811153      52.089791142882802
   206   1      17.595945005324992      8.3118730837204193       51.84785376914823
   207   1      17.374720608832256      6.4938028610719627      2.5509835315999223
   208   1      16.322908920934886      9.3702254292090821      2.4882146588770579
   209   1      16.422229880089812      11.245754071786635      52.002665663973424
   210   1      17.688909351180456      13.877204816927978      51.934730571116006
   211   1      18.182322042100601      12.115986370307489      2.5375804273563065
   212   1      16.195306902591184      14.783800687850352      2.5245179218593004
   213   1       15.77356822364397      16.472198367087461      52.123419803901037
   214   1       17.37937127137835      19.491381276530124       52.07398035896901
   215   1      17.467650800203721      17.559217125709463      2.7839946167095473
   216   1      16.070247126423848       20.05611731684419      2.5101440635325378
   217   1      15.844566414407478      22.365450222541256      0.4903667710219124
   218   1      17.771002115184722      25.373544694780161       51.91429115474854
   219   1      18.034058190808594      23.206856563341034      2.2396766702640072
   220   1      16.326390167802405      26.049514081058529      2.3258533027332398
   221   1      16.390311167087315      28.056403711055328      51.766068885455155
   222   1      17.422522885977664       30.95066068082377     0.14133945566035455
   223   1      17.960634135395971      28.534209321099532       2.373473500745543
   224   1      16.487637256888913      31.493755739566403      2.6226454081430641
   225   1      15.618338101038637      33.693552172350806     0.23825603779148688
   226   1      17.949752660696515       36.30653982013277     0.22913641343469604
   227   1      17.350912901306515      34.918627666209744      2.9245476216896189
   228   1      15.146526058575811      37.039272608595866      2.7828777842588721
   229   1      15.874859960473865      38.959596448545831    0.016878849649611866
   230   1      17.592293779445633      41.659535052519573     0.27682388744070408
   231   1      17.350862474305409      39.523359427222829      2.8017991547037151
   232   1       16.02691312310073      42.551410557635094      2.7729685431928419
   233   1      16.236379810734974       44.32068200125412      51.967738160939447
   234   1      17.162724378353118      47.182110232970906     0.13339873261848764
   235   1      17.415088662017862      45.252701189396625      2.7737625628177907
   236   1      16.160405760833516        47.9251082583162      2.4581578250685006
   237   1      16.422761932747722      49.977959944334195     0.41964390202337748
   238   1      17.719664599736209      53.139507823202393    0.087644997973394589
   239   1      17.879459741529946      50.912213546615995      2.5576819827039539
   240   1      15.729122801349865      53.932418214259989      2.5358957262040747
   241   1      19.260584068680537    0.093859279390839823      52.013912943583847
   242   1      20.778879814086004      2.6331690065070905      0.2218808453570584
   243   1       21.05605859667023     0.68402945745807431      2.7174383918589089
   244   1      19.759408812369315       3.672500848175122       2.720960329982554
   245   1      19.056022720744366       5.849898197460206     0.39940316724563918
   246   1      20.856515925735483      8.7914990250155469       51.99954305722737
   247   1      20.898204601043179      6.6100025066805568      2.6906430910802466
   248   1      19.100938958116366       8.844551370932578      2.5233589015802438
   249   1      19.197229327252526      11.055890251438356      52.113606178359241
   250   1      20.983135920828722      14.383925477331653     0.10016938561011966
   251   1      21.071106065181294      12.721193988830954       2.629942363006049
   252   1      19.286186439604641      14.911026818481206      2.8744396558051926
   253   1      19.464394584007497      16.993400262404382     0.12930163269351003
   254   1      21.263576797365872      19.616927625411179     0.22487574697069629
   255   1      21.056955673880339      17.641613317549904      2.3601047390784919
   256   1      19.322444402723402      20.627307678878651       2.552147999934149
   257   1      18.965399604516897      22.262390266659324      51.662683395575066
   258   1       21.08613325289982      25.123588421102603     0.22812065965239209
   259   1      21.001996325594167      23.161984910338077      2.5761993261614484
   260   1      19.508783780144281      25.957574908200503      2.4785368696513621
   261   1      19.567648359861494      28.027673884857975      51.726442506338735
   262   1      20.478964144678756      30.570320678247665      52.031050482137445
   263   1      21.026483939989099       28.48420200153366      2.5364639743583086
   264   1       19.54230610008824      31.805063732327092      2.3755080600517084
   265   1      18.985836549254319      33.676591147620883      52.023003529644356
   266   1      21.305805073105347      36.066616830691615     0.11290021275195068
   267   1      20.414676868786994      34.541665337160921      2.5364392592509306
   268   1      19.836081873594541      37.645827617403128      2.6737045048792818
   269   1      19.543420253219693      39.202150516646491      52.096223482221475
   270   1       21.09242540570532      41.859851477383771    0.087767489024527121
   271   1       21.59623563924406      40.241369752271567      2.6967597383491846
   272   1      19.274080603366205      42.193366704353146      2.6751076737875374
   273   1      19.471958778314089      44.169606267200471     0.27910122233890444
   274   1      20.237579001919471      46.876094903626338      51.843709955805686
   275   1      20.957484400879437      45.401174480414305      2.6985180138250993
   276   1       19.50680116766825      47.893919940152244      2.6939246114740736
   277   1      19.214523910467832      50.207261697936623      52.008046554999744
   278   1      20.805656682405051      53.363289216966443      51.930576177882585
   279   1       20.96787137183102      50.790938706427092      2.6553700689466115
   280   1       19.03383259448605      53.659382076344627      2.7391387445791451
   281   1      23.072146773067761     0.20021661430558049    0.035018018536154258
   282   1      24.080359548139263      2.8342727913625834    0.031453003223773507
   283   1       24.03617919807958      1.0419180380074824      2.6350752936035735
   284   1      22.828253806467607      3.7791134212609241      2.5131088928019367
   285   1      22.293285451733762      5.4066308457542114     0.22777799878385538
   286   1      23.574553216391489      8.1523966933407124      51.757368883818053
   287   1      23.916806617505021      6.2589855523598104      2.7004782504574076
   288   1      22.850229505836744      8.9214055954764717      2.3216761498692446
   289   1       22.23292443923626      11.790562076997494       52.07537099849538
   290   1      24.273561246093319      13.966211670320726     0.43391859601356753
   291   1      24.230789745251432      11.625384637616003      2.8899800384363608
   292   1      22.767076593277945      15.011249011624791      2.9733178125088142
   293   1      22.672056422842832      16.808009011661529    0.029771521137111599
   294   1       24.13179407126901      19.615462716465196     0.52326336641421345
   295   1      24.388752779739473      17.287859557020521      2.7694636940111637
   296   1       22.60338313843145      20.206328214476887      2.9808804050672664
   297   1      22.732306313077792      22.268961938110731     0.15705933133496555
   298   1      24.201737430372905      25.017522653215444     0.22840390928330001
   299   1      24.176134256260266      23.534231234568765      2.9369746746016627
   300   1      22.429081477433932      25.986411262306337      2.9204195062885532
   301   1      22.789607227859651      27.832997512754776     0.30778377936628393
   302   1      23.845002142622011      30.651009914722447      0.1244221373827335
   303   1      24.285444456617768      28.347655624107357      2.7203246276413311
   304   1      22.356950171211921      31.170260083042528      2.7372664104759115
   305   1      21.996383577446018      33.071846412275342     0.16428304437688657
   306   1      24.377281587480493      35.846325114695517     0.18828802988897456
   307   1      23.758783374188088      33.894761658473342      2.6063780623556689
   308   1      22.565559863507069      37.185275371107686      2.7439401136750883
   309   1      22.670326372915351      38.988832575989747      51.805985116501724
   310   1       24.15726228545363      41.625318711130376      51.785509308717145
   311   1      24.488660616163116      39.636613187243107      2.6571550332574843
   312   1      22.772576017253552      42.809522207121773      2.5302301994564833
   313   1      22.386755376836746      44.769324623874027      52.123648874653043
   314   1       23.37220120271677      47.767020839258691     0.26021045661942233
   315   1      24.108693974261769      45.826218596168374      2.2021544787950367
   316   1      22.683028598490512      48.486708722494122      2.8051739954327153
   317   1      22.516735540695361      50.902443895265925      52.127743110485554
   318   1      24.648596588039144      53.667610177183974      51.557921522517645
   319   1      24.076349657301485      50.964536246488706      2.6276110741293031
   320   1      21.897942701789116      53.455521307410201      2.3192988423966057
   321   1      26.089922093978217     0.52261422023995285      51.986290976311324
   322   1      27.035704011916689      3.3840064428090528      51.880025370841807
   323   1      27.291201960182924      1.0136592668615494      2.5577344232870898
   324   1      25.826078800115759      3.7773666636149894      2.4184981682118445
   325   1      25.736404294782425      6.0265473255274644     0.26222564119406139
   326   1      27.589990324465848      8.2480871175498969      52.125292747682295
   327   1      27.786190199850221      6.0035611335898578      2.3182339375929284
   328   1      26.034983194934725      8.7924887234597868      2.5398768196316484
   329   1      25.402002431564526       10.57509977784728     0.35097421257838829
   330   1      27.201296593620302      13.268853333977317      52.107534427433556
   331   1      27.429810252410963      11.969030786497882      2.4985161991368487
   332   1      25.542315984563754      14.295431334886674      3.1135959598864975
   333   1       25.55306899644366      16.361258130306606     0.52801798389605226
   334   1      26.778827116784523      19.333601801930918     0.14962247027025039
   335   1      26.972566839685015      17.462404370502011      2.7459559898651316
   336   1      25.656162808073368      20.550810262784218      2.9926328891732812
   337   1      25.778076006229689      22.342265758439115     0.28217244918659407
   338   1      27.968497634937282       24.66505724831805      51.957410583512271
   339   1       27.53640197934299      23.082338380466279      2.7767619992600663
   340   1      25.941893426209962      25.855206284877855      2.6824814254060443
   341   1       25.80017757910414      27.749089843831982      52.030757456055994
   342   1      27.463656579985745      30.164497747280837         51.912291413043
   343   1      27.398398290924906       28.88519554059026      2.5849944067752966
   344   1       25.87645516393933      31.414653733721828      2.7036991460537179
   345   1      26.222488581583598      33.013597622616558     0.18799050444921747
   346   1      27.627827607516387      36.519692706824259      52.051669261511172
   347   1       27.18951688816291      34.227920576252359      2.3608083366005661
   348   1      25.684927648628626      37.072265610733474      2.8022817933665869
   349   1      25.503544135224157      38.929845488596989     0.32453752030080024
   350   1      27.148461077963884      41.913951824852568      52.010936605050183
   351   1       27.22644438163638      39.856765012813696      2.8657722390394764
   352   1      25.309806085356097      42.547978976352304      2.9131916132577427
   353   1      25.480630202697945      44.387329537645456       51.82174746064716
   354   1      26.614958809879514      47.631113815173414      51.677014580180099
   355   1      26.939434142373358      45.107406918644692      2.6592369187913958
   356   1      25.559700717420373       48.54705517747076      2.3477680789151592
   357   1      25.435108264941821      50.407119223657929      52.113733872820909
   358   1      27.355768318165083      53.371137579334942      51.818506464845598
   359   1      26.990936880394621      51.404631141505078      2.4819702219810211