dump/Mg_1000_0/steps_71 (written by ASE) 

4000 	 atoms 
1  atom types
0.0      32.100000000000001  xlo xhi
0.0      55.598830921999998  ylo yhi
0.0      52.130399999999995  zlo zhi


Atoms 

     1   1     0.24228210477043921     0.54287409772902884      52.097559769256897
     2   1      1.6578874934097987      3.1256623126448253      52.020664217683994
     3   1       1.587952603069279      1.2150014840044336      2.6272120635849707
     4   1      32.028446844969658      3.7529114910702996       2.883672976345804
     5   1      31.863669050553177      5.4146146955922321     0.13661113436832248
     6   1      1.6545682310526342      8.4758717801327972      0.2491442605965872
     7   1      1.0055517570495807      6.6673798270657425      3.1031095426710444
     8   1     0.16144255226915968       9.387186107714145      2.4500122846748762
     9   1      32.034532448993353      11.071027444547854       52.07441024233465
    10   1      1.5465713714749083      13.738813669675251     0.52490461096059227
    11   1      1.9471906040892819      11.892668149564241       2.892465068780238
    12   1        31.7105851282167      14.243471087247656      2.9976440281343986
    13   1     0.14124197515927905      16.753187056639216     0.37158831025196037
    14   1      1.5669592719453247      19.511454830388566     0.32551434745798519
    15   1      1.6422928802183385      17.448544563824893      2.7056067436526896
    16   1      31.838324264272803      20.503736173278654      2.6557665119121761
    17   1      31.918263245970625      22.268048771627662      52.111421392003606
    18   1      1.1675424259882587       25.25377226178356    0.094672185148317739
    19   1      1.2928723065482608      23.094771605139435      2.7836080181304705
    20   1       31.96327988954987       25.76730280661134      2.9017333648934032
    21   1       31.83130374922991      27.742941141651936     0.15079570844993492
    22   1     0.99644541448086854      30.542003389616035     0.19300218030155339
    23   1       1.259603801743937      28.142074732770404      2.7853269585655891
    24   1      31.782551850806506      31.324955692624705      2.8692269426314914
    25   1     0.16448717895566989       33.41670174413909      51.869803580171059
    26   1      1.7981469616705745      36.233944390108235      51.755544969878216
    27   1      1.3240126545671522      34.029827404508815      2.5974777655067398
    28   1      31.911925934471501      37.031470265643932      1.9665822995627376
    29   1    0.031812397018217003      39.044476437972804      52.117962287138404
    30   1      1.8426459188267503      41.891820779445794    0.069080951446086031
    31   1      1.4152220979314991      39.855674004371224       2.430543603025582
    32   1      31.903740326944082      42.651989415510904      2.2126946273644741
    33   1      31.736114530682229      44.980893182509973      51.850709860324102
    34   1      1.7491198304301245      47.607560572053352      51.894065936966101
    35   1      1.5061083115927807      45.206378221192828      2.6999776703493756
    36   1     0.19570460562752362       48.10638819575626       2.576970291941612
    37   1      31.969433315954049      49.948310548165935      52.118727110776618
    38   1      1.5935962540164674      53.107455713530712      51.971419547613721
    39   1      1.4823632008465006      50.925065944027303      2.5842229678142332
    40   1      0.1548069601193936      53.593323078706341      2.6810109656936665
    41   1       3.213232351151198     0.20229025881216689      52.052534493911281
    42   1      4.7567486823367755      3.1975657997239808      52.094726654851151
    43   1      4.9151898933701226      1.1720023283657228      2.5588093285467615
    44   1      3.0569700739315779      3.8654493247344872      2.3268317675001899
    45   1      2.7180250934674177      5.9520947614451982     0.16843710106874413
    46   1      4.5994453200495542      8.7511031491993059      52.034605973917337
    47   1      4.6984446173997858      6.5766468627910202      2.1090584353076451
    48   1      3.2079530727674785       8.703338836128415      3.1025367993248731
    49   1      3.0813049648127273      11.076312043760039     0.56095896060636119
    50   1      4.7585157305388099      14.082051435120709     0.55401240378142569
    51   1      4.8212337271565291      11.947216455837344      2.9413138085188342
    52   1      3.0556956305796241      14.793408613241303      2.9007198339074649
    53   1      3.2595382751195547      16.894778248972035     0.44023573150398138
    54   1      4.5381869439338596      19.680184509644118    0.038406876445710787
    55   1      4.9977179911458167       17.06367493984396      2.8421444147488404
    56   1      3.0087318259189497      20.148830903286147      2.8290085152905564
    57   1      3.2006429927959532      22.336722486467469     0.38899108823157769
    58   1      4.7035312942585508       25.36300769764955     0.34045781627873445
    59   1       4.217724262910644       23.07558917045651      2.9564624824174577
    60   1      3.2768813125717235      25.874636170672023      2.8323987725036979
    61   1      2.9484417154990443      28.170908691556559     0.25586286221627208
    62   1      4.9933443004074949       30.81576771046835      52.054876186429524
    63   1      4.7891708925537033      28.394400920268577      2.6515588301766111
    64   1      3.1060144380587107       31.16565217484905      2.4377576442618718
    65   1      3.1354325822034452      33.278652708392912      52.089503833666605
    66   1      4.9324570433455426      36.175660942378279      51.888556351670744
    67   1       4.671575084615684      34.166306717028633      2.5106869697351466
    68   1      3.0823752832192475      36.702887520124939      2.5599775920536918
    69   1       3.301183323974211      38.885814977606387    0.098099851732987603
    70   1      5.1621578833675388      41.671781454296656    0.052437906710310844
    71   1      5.2080863459278195      39.584302092258447      2.3844390844950314
    72   1      3.5279289668726905      42.935780488242159      2.5498037252726604
    73   1      3.4894702188079187      44.780377722705651    0.078101093442220729
    74   1      4.9690800397640418      47.123906137561356      51.931081366658042
    75   1      4.7495718076614697      45.524649620688372      2.5501431099674847
    76   1      3.3219415193407293      48.227015890474959      2.6018186243019854
    77   1      3.5317677020942919      50.306434211335059      51.904007666137929
    78   1      5.0679296304795276      53.096348645713483      52.099269391315616
    79   1       5.015241331953276      51.208236320648062      2.2608979474403834
    80   1      3.4845135036907147      53.936391980866183      2.5320683498974068
    81   1      6.1587776642882437     0.34010265363296721    0.080897401691562398
    82   1       8.135936956832623      2.8077602807589175      51.707439012586171
    83   1      8.0542592583683152     0.68596021191403012      2.2789768588860175
    84   1      6.5656050491261242      3.4116635270645408      2.6762383571200408
    85   1      6.6647433327331118      5.4478410095808902      0.3573286855573245
    86   1      7.6413623855270343      8.4080059858508065     0.11947921644482588
    87   1      7.7995397826757147       6.757200272106628      2.4657990513432781
    88   1      6.1049330888255442      9.3855988292414203      3.0771848916659521
    89   1      6.4198519914446264      11.104950047948494       52.05247825517143
    90   1      7.6775014931422731      14.249822833724235    0.043372373602593703
    91   1      7.7841311461917799      11.847500455170987      2.4784705048928632
    92   1      6.2553446046542032      14.579801383915585      3.3322761097146967
    93   1      6.0995170918019568       16.42216986214483      51.872202358711078
    94   1      7.9918504540013053      19.452866870007437     0.17167064520594705
    95   1      7.7753616778386414      17.145836530277709      2.4735391447208586
    96   1      6.4195909726718536       19.93979559877641      2.6511948784964292
    97   1      6.4456118480839395      22.276928734218046     0.49286280559399742
    98   1       8.203651828607585       24.77953212279424     0.47113691007761438
    99   1      7.9678569848095089      22.965224407416823      3.0815273677251533
   100   1      6.8477486248042059      25.695288777716272      2.7451135732169822
   101   1      6.3246518229732462      28.269365470405187    0.018984712881124393
   102   1      7.9298489442756095      31.377085412892399    0.094791240572170712
   103   1       8.002644181899333      28.989259218884225      2.6883885271826982
   104   1      6.1236274107429267      31.548330265006264      2.5196832028704472
   105   1      6.0658793297168714       33.81684684555745    0.017927706792600757
   106   1      8.1949899913358148      35.996511700612238      52.076054613892609
   107   1      7.8848434329852832      34.279551806516942      2.2928988077681689
   108   1      6.4531899087358893      36.866424284818748      2.6716866935671431
   109   1      6.8487169246214199      38.736964141176685      0.1096009634683382
   110   1      8.3307882844120638      41.875905643294274     0.13334776786835012
   111   1      8.1609467340442503      39.621689809982911      2.5348979175947268
   112   1      6.6008517007328011      42.725107641502611      2.5458832385310886
   113   1      6.5289220178832519      44.493961161675237    0.011004049953539765
   114   1      7.8918087971802802      47.246164876386274     0.33112368713627227
   115   1      8.8867025369525443      45.398809402945503      2.7831488145845018
   116   1      6.2222911077005962      48.589733660136268      2.8033243197495699
   117   1      6.6189412879418557       49.92235595260582      51.786561814324301
   118   1      7.7064530895443726       52.82272144695434      51.938836317946283
   119   1      8.2591143389740651      51.258911320689123       2.500731609665773
   120   1       6.312523688137766      53.890768117212687      2.8846843709739765
   121   1      9.3889559438199885       55.43931221335832      51.976123081296045
   122   1      11.324513768667016      3.0577508185160367      51.834906094026699
   123   1      11.089835144114977      1.4706221810693607       2.081577411114711
   124   1      9.4495345443700121      3.9804880726084479      2.3754118877527235
   125   1      9.4357391655707961       5.696792819308917       51.92761169723304
   126   1      10.531511003662853      8.4962883372630085    0.060019485800038963
   127   1      10.990685439670623      6.5968173805919985      2.3417475878546519
   128   1      9.3600835885318396      9.5661956475361993      2.5724976156350312
   129   1       9.702055356482278      11.683670814703904    0.055969093081601015
   130   1      11.454328987814202      13.889498864256561     0.15925961842939121
   131   1      10.993083755764099      11.904380032526406      3.0195729143361332
   132   1      9.6386301324910839      14.398773394963834      2.9233200885656712
   133   1      9.8280771555198339      16.525213708720312      52.111884514622538
   134   1      11.084963526011624      19.350405535584461    0.052495401660391343
   135   1      11.321946852682988      17.730954159372708      2.6025511282578067
   136   1      9.5099309894296535      20.235368169752967      3.0687117144739231
   137   1      9.6135500398052542      22.037042541907635     0.52071824345243645
   138   1      11.686953458914045      25.151764596444441     0.46827539494981368
   139   1      11.105856000352537      23.101547595032706      2.8415166300876948
   140   1      9.9841393588434268      26.674282922211738      2.7393338431159484
   141   1       9.495775035672855      28.728702062433445     0.40419414612666144
   142   1       10.98554039649105      31.220322128977866      51.819639566944417
   143   1      11.859788712593906      28.767374541075259      2.7545555803875099
   144   1      9.7382686627912811      31.594250388751732      2.5979972355908583
   145   1       10.13101095647129      34.172831693806508      51.670285244499489
   146   1      11.818342084064833      36.474888281262295     0.30483340529618497
   147   1      11.528718742172291      34.183591135076178      2.5420622038062883
   148   1      9.5897340173616872      36.770896519312004        2.70832997166809
   149   1      9.8438565309487931      38.838276593861501       51.95654820477985
   150   1      11.250780035023711      41.561171263457794     0.25749360611850614
   151   1       11.36476762281425      39.494802082229533      2.6203567239201453
   152   1      9.5764161917007069      42.393500847817897      2.4831464160760328
   153   1      9.8451311263435066       44.52882508648139      51.808677436592944
   154   1      10.960381088988425      47.430991420895474      51.750040547518076
   155   1      11.928412951012145      45.490104805404542      2.5081324022564879
   156   1      9.8270322327473263      48.806164663920008      2.3493577095359579
   157   1      9.5163095802638296      50.377208572951623       51.58924516526406
   158   1      10.908756827670171      52.908906287650481      52.008971676858913
   159   1      11.283781318135262      51.290848419264115      2.2820136075638255
   160   1      9.3830798930640356      53.781590143072584      2.5651289161136042
   161   1      12.417457132592212     0.50710970968389191       51.56935466042399
   162   1      14.203128186482964      2.7858297998064954      52.107158444912066
   163   1      13.896408399883473      1.1679672797972127      2.2107703771650709
   164   1      12.768214036942316      3.9627292380723276      2.5379070396870316
   165   1       12.74513970175553      5.9065691479713074      51.941600811501878
   166   1      13.951824380449043      8.7633164775310668     0.10894163514005228
   167   1      14.188671629408161      6.6086700239253222      2.4277085956947095
   168   1      12.414004816204271        9.35363311291208      2.5902000620499033
   169   1      12.616226182238925      11.291416491399463     0.18410660250184313
   170   1      14.424103189378132        13.7059479085222     0.07920706651525683
   171   1      14.471599012119134      11.931542402528997      2.8663219503564537
   172   1      12.925166917257716      14.434811151390344       3.045966547856525
   173   1      12.710523820378778      17.013110964955636     0.21587292915276668
   174   1      13.902294797360685      19.463007340254499       51.99138412356973
   175   1      14.377224474425358       17.30476663885732      2.9393000101738278
   176   1      12.947186276175801      20.139004320441437      2.9031042829856526
   177   1      12.857083855154396      22.347658791563159     0.17315287326722995
   178   1      14.612207506827746       25.01465188759774      51.984269835228815
   179   1      14.463105758217353      22.882174370777037      2.7528079838616373
   180   1      13.327702155453967      26.030657428698447      2.7847795348398394
   181   1      12.982749549031812      27.724948173686343    0.042493387059570502
   182   1      13.923721085056517      30.472260576011003      51.915713090191936
   183   1      14.822320062557047      28.315341189195248      2.6699955881658082
   184   1      12.972930296599406      31.434571846776219      2.9912601738932367
   185   1      13.133145812408985      33.768447073525564      52.105526483879217
   186   1      14.687209053885514      36.541236440811126    0.087014526319618327
   187   1      14.907888167540182      34.192938562914684      2.7895481069653765
   188   1      13.590871363207533      36.871070216584819      2.9205065091628772
   189   1      12.968535950937451      39.042963002765347      51.990883193861023
   190   1      13.894032686366719       42.22284235414125     0.48909279609375239
   191   1      14.459548493452679      39.609701274974036      2.6192070929640958
   192   1      12.606141298236636      42.445292620568942      2.9814025968439068
   193   1       12.58177380004884      44.809436348043633      52.111884394814574
   194   1      14.040885644280829      47.552214350693909      52.029986184300391
   195   1       14.69584006341479      44.891175281848135      2.6854341508132387
   196   1      12.702445944131073      48.555599055009687      2.6727055501125947
   197   1      12.453407131826985       50.24281867415754       51.97250268840272
   198   1      14.171809993988047      52.888300509536009       51.80843085342395
   199   1      14.485196963416017      51.297292660781551      2.3384588195390723
   200   1      12.312438884026722      54.274041434042857      2.6938485597972655
   201   1      15.441614664682984      55.226961049698765     0.11281557240402695
   202   1      17.166017184480996      2.9625370606280033    0.047449204356654506
   203   1      17.087309462763997      1.3390287551390361      2.9018440223977628
   204   1      15.654431535241709      3.8546123599700501      2.4245880579453698
   205   1      15.851059228942269      6.1816794163216393    0.042364007400968857
   206   1      17.950169380336092      8.1774599738925193     0.39501475850759893
   207   1      17.424446751440268      6.1915932712592747      2.7010963914462098
   208   1      16.130761684290082      9.0495577483882599      2.5107253192574759
   209   1       15.98469784405979      11.363566269112445     0.36403384458639082
   210   1        17.3506434197845      13.752126535767333     0.16376561833874603
   211   1      17.542033726045108      11.856569982290429      2.7995189384460661
   212   1      15.884411713512709      14.804028026891269       2.654163124469664
   213   1      15.914381186723489      16.436987553655658      0.5263238862082088
   214   1      17.970951932779755      19.375489131358744      52.078813276070321
   215   1      17.671588842916645      17.610291142254638      2.7408487570724156
   216   1      16.408851834567944      19.887318172874593      2.8542828299869627
   217   1      16.348561769699188      22.192355362773725     0.13272236452074104
   218   1      17.753629515919517      24.951827225464445       52.09546339884654
   219   1      18.026940791541882      22.875441844791219      2.6157472525136169
   220   1      16.338516912298516      25.862237513618599      2.5625437714087327
   221   1      16.142870808415452      27.916861607743012       51.97152631386728
   222   1       17.95496112468917      30.336792190793304     0.12089640214840994
   223   1      17.978998042147289      28.311759006898818      2.4762576632761828
   224   1      16.049815961716401      30.998114946411825       1.954532993521005
   225   1       16.33625961943638      33.887170620619514      51.927448788708915
   226   1      17.740546829924448      36.957468553718449    0.079592477889775026
   227   1        17.9137031020108      34.003225115801733       2.275995068462715
   228   1      16.508231838844207      37.070746074484823      2.6399810408921667
   229   1       16.04736747330977       39.13020447560384      51.898074440947894
   230   1      17.383783981848733      42.068315072202722      51.886490005324049
   231   1      17.834267992257029      39.729899905505057      2.6051969749830106
   232   1      16.096482094317167      42.122776915945408       2.668694868900642
   233   1      16.096730491332639      44.955232012763993       51.98324293486872
   234   1      17.431695737382547       47.67260323504955      52.117623408753829
   235   1      17.384374197350787      45.981078019753667      2.7260577420712377
   236   1      15.721762775952424      48.330629704195147      2.5895090844672328
   237   1      15.735967035008898      50.055727775817317      51.951760086017543
   238   1      17.361367616369186        52.5194192853115      52.089707714245684
   239   1      17.593816990718146      51.196684893311129      2.3975260387903239
   240   1       15.55508062731883      53.721366420066808      2.9758167200187349
   241   1      18.453685886088046     0.14963836437879757     0.11633532075991815
   242   1      20.816123095159178      2.9291941677113273      52.113766264039626
   243   1      20.521369662635131     0.77615292990774531      2.3439819186087232
   244   1      19.289514453432812      3.5061514940294991       2.418280972604995
   245   1      19.056134650965124      5.5184545425532674       52.09479529636419
   246   1      20.708926775164514      7.9227602144292417     0.20203759768868196
   247   1      20.898179061953321      6.2925318753600443      2.9324214097509125
   248   1      19.351562054968358      9.2250622689681663       2.626663628133592
   249   1       18.98815148610003      11.031695678477355      52.107248148226347
   250   1      20.370198630830373      14.087745685638055     0.15178027418714915
   251   1      21.039313674170661       11.69642046141707      2.9585425839501274
   252   1      19.229320981664824       14.60345851501372      2.5019430791155259
   253   1       19.56527418514683      16.974659775923371     0.54082639218879891
   254   1      21.060632766316481      19.691407063987544     0.18167822980642753
   255   1      21.145051156499392      16.927762514758538      3.0261590151499438
   256   1      19.544706934501548      20.464172634314718      3.1370583038278492
   257   1      19.362516415348257      22.484704307695612      52.058167919351718
   258   1      21.009357352992939       24.88032352001628      51.936305853037446
   259   1      21.498663941875105      23.111877235355863      2.8690700508525833
   260   1      19.540370809726593        25.5646566966306      2.4480719293984698
   261   1      19.422283032749689      28.101197800691548      51.570961049801419
   262   1      20.900189545182233      30.518520175333613      51.949378719291502
   263   1      20.682112184752032      28.617178770241576      2.2920030082051164
   264   1       19.12580243219886      31.139663326416212      2.2764929041795701
   265   1      19.319936899390125      33.235066458563168      51.941046911359543
   266   1      20.791917758102837      36.136442463574575    0.096385894481135104
   267   1      20.985077818469033      34.415170955883227      2.9140181456339955
   268   1      19.684036405540237      37.506984055073602      2.3232443992986553
   269   1      19.188572372953661      39.290211505696014      51.791334657920792
   270   1       20.74177237203952      41.769613649689852      51.900649028084189
   271   1      20.988902133078703      40.077763172296514      2.6583608790901674
   272   1      19.326615548837047      42.876994880993429      2.5471603702428061
   273   1      19.050348997542592      44.640970878869581       51.98437257623246
   274   1      20.620276665706466      47.012363863373402      51.960155905192906
   275   1      21.125394793333676      45.876357137264847      2.5913036737877704
   276   1      19.175491820038669      48.321357723943528      2.2957640030878657
   277   1      19.396999313243413      50.399622077014506      51.714878120811257
   278   1      20.519985845590941      53.348780840376477     0.29884338681103778
   279   1      20.443039801663314      51.264869219155422      2.9616167873375061
   280   1      18.433610623126096      54.040759646346004      2.5296420413626453
   281   1      22.929763872495982     0.11993222919229475     0.40504812268136559
   282   1      24.244753977260707      2.9107219114137064      52.037836908198791
   283   1      24.154940751124091     0.88250509142368061      2.8680627562524257
   284   1      22.445247385917469      3.2272267873610527      2.8145026384479155
   285   1      22.605846194022405       5.380843147289184     0.11261053494056525
   286   1      23.994735013726526      8.1592193188012505     0.11030757454727429
   287   1      23.950819690572697      6.3031388467857141      2.9356281549735983
   288   1      22.530094333880179      8.7603958997434237      2.5772944674034104
   289   1      22.529457849939881      10.903317324752539     0.23668074392807978
   290   1      23.925280455761477      13.452043752911974       51.96093466808658
   291   1      24.022108548948033      11.626929410264914      3.0114799153005372
   292   1      22.353537152639987      14.369139838966394      2.3003792412670361
   293   1      22.597706560545856      16.552987943043671     0.39943931173344688
   294   1      24.036877193768063      19.142395936429011     0.24691667843546891
   295   1      23.781839449328224      17.328768690241418      2.5183613844875823
   296   1       22.39099648514949      20.247573955521926      2.6660463823402862
   297   1      22.386382202828091      22.261140591937245     0.19380926704115753
   298   1      24.063335995407886      24.995971994004726      51.990243533426501
   299   1       24.46783218251343      23.303548044438575      2.3829672985829413
   300   1       22.74725674607042      25.884773568224904      2.5079445733562831
   301   1      22.685862992311375      27.811836605621192      51.986615392980347
   302   1       23.86489871998441       30.42895371221908      51.901777057580098
   303   1       24.13559482458189      28.390017764445112      2.8089744305997546
   304   1      22.233967450298088      31.163224087953459       2.416948646045352
   305   1      22.363710266423904      33.060282425721375     0.30375133780067826
   306   1       23.72103086639574      35.869317357903917      51.698739218671349
   307   1      24.226235335548242      33.881912106515124      2.5045099628991538
   308   1      22.624647380556038      37.020230270442624      2.1937613567763252
   309   1      22.336363931781772      39.054823907058314     0.11732410090737001
   310   1      24.168238958188564      41.644565311899711      51.947993275272609
   311   1      23.828075485759452      39.936589149332107       2.411916834541127
   312   1      22.616002629664255      42.941812735092228      2.4836712473026021
   313   1      22.482626234389066      44.719758101684526    0.096998791702615508
   314   1       24.00828013427736      47.833352910758101      51.925617580486929
   315   1       24.04643165560077       45.69833037694606      2.4355876735192008
   316   1       22.46675619612202      48.647920789965696      2.1616453099116928
   317   1      22.492150835103878      50.712153911547411     0.01669056663418049
   318   1      24.104529780808331      52.891851226760302     0.06907902572941152
   319   1      24.019775873430703      51.440617623381137      2.6202952497545784
   320   1      22.565024922354159      54.016752652735725      3.0168116394253337
   321   1      25.665796799139716      0.1732252984602202     0.17327830877175945
   322   1      27.736103965648041      2.9459208891514286      0.1894597597522929
   323   1      27.474367538631757     0.75228983516922365      2.7129064388234614
   324   1      25.806355494016728      3.3402202985988301      2.8600044905479733
   325   1      25.514867926885689       5.537926007559121     0.28357128050146879
   326   1      27.059427457884617       8.263779639114178     0.20402022781287441
   327   1      27.077480943368901      6.0898947748672843      2.7868453547556493
   328   1      26.033418810545093      9.2485421525075004      2.6340652079110987
   329   1      25.832060379509315       11.00156255169262     0.15658712190142771
   330   1      27.129715917822271      13.707568653578539      52.038537275211162
   331   1      27.330714607951574      12.278298220453582      3.0055565995111411
   332   1      25.139174592723464      14.505259041616085      2.8924704660271772
   333   1      25.895885159481555      16.405951071954476     0.28295504664963855
   334   1      27.285601154524038      19.278740372023382     0.12347568305723636
   335   1      27.120456036552177      17.878695627955512      2.7971497018486438
   336   1      25.670671298443025      20.521314778025896      2.6751168214677166
   337   1      25.344936913530525      22.190988554531796      52.035533073430429
   338   1      27.157559718183286      24.952441045691653      51.982882122479928
   339   1      27.668465484558357      23.347100588724828      2.4999016871306559
   340   1      25.789670027106155      25.842941004905736       2.464690144022351
   341   1      25.580056361884921      27.601733835712103      52.078481586125797
   342   1      27.085460220133818      30.519085126032707      52.054195430176129
   343   1      27.040011466355779      29.049896384147079      2.4981191909867695
   344   1      25.550701944474376      31.412224872135862      2.8997083373842849
   345   1       25.42016355187808      32.974777561757243      52.009082251525051
   346   1      27.025563307852828      35.867124037193364      51.887630857491487
   347   1      27.044578511723959      34.142617474456138      2.5607986284468498
   348   1      25.617577927049265      36.896725401561788      2.4598938007748368
   349   1       25.59481598074461       38.60107203896829      51.781234024364387
   350   1      27.105265044838916      40.900315324624529      51.379872070026337
   351   1      27.318943542667427      39.748773193123647      2.2632692383011372
   352   1       25.93325281145577      42.560756704735518      2.1029104438885433
   353   1      25.621526591860931      44.677333344438765      51.820429828716073
   354   1      27.062439963930498      47.433377127505743      51.966046623546653
   355   1      27.003288509977757      45.514811171373395      2.4817280321030375
   356   1      25.697912254443043      48.133861095187847      2.5247601160103192
   357   1      25.877004519317843       50.27153070007428       51.83952473391556
   358   1      26.993826643495076       52.89854491828995      52.027445093934439
   359   1      27.374480148593452      51.246343543742348      2.5158049591392873