dump/Mg_1000_0/steps_1 (written by ASE) 

4000 	 atoms 
1  atom types
0.0      32.100000000000001  xlo xhi
0.0      55.598830921999998  ylo yhi
0.0      52.130399999999995  zlo zhi


Atoms 

     1   1       0.202169755509991     0.38369302186654047      51.840865159528164
     2   1      1.4805348491390424      3.2073762999298956    0.066484716927841789
     3   1      0.8343998847079428      1.5900643503389413      2.8287602865346773
     4   1      31.744617485828741       3.926665207070406      2.5219122498826843
     5   1     0.12305075504222387      5.8804656533194359      51.962316201273353
     6   1      1.6768689671904917      8.5923492285250536      51.972512874335727
     7   1      1.3020466268155015      6.3742190190726102      2.5425478036828166
     8   1      31.903710354176173      9.1990302106504558      2.3904301560552752
     9   1      31.792866982022609      11.495314468181208     0.16796378662583616
    10   1        1.78547379420727      13.819637106061242     0.40986238699859107
    11   1      1.1461508237674607      12.095368885020958       2.767337859873729
    12   1      31.879055272217503      14.806446458117875      2.1755235902015833
    13   1     0.46739162740242896      16.263333837669229       52.10918237268644
    14   1      1.8575622375839806      19.167216693709481      51.959609157095713
    15   1      1.4724876777639337      17.510090310106385      2.4296575601125108
    16   1     0.29136500611655403       20.15775324462583      2.1178911328997314
    17   1      31.842513050414407      22.065374257082329       51.95525182072263
    18   1      1.8046703200249707      25.201769468556222     0.16830657799086476
    19   1      1.5342599545772853      23.063156977283736      2.7848994706097696
    20   1       32.07335595993937      25.711285872725664      2.3962335086052269
    21   1      31.964360943807552      27.957672662414446      51.793501091158952
    22   1      1.8996088877439001       30.35761620806629    0.087963654777155273
    23   1      1.8296092740652197      28.386422735376954      2.5545541368725502
    24   1     0.25081819545024664      31.066734807406704      2.7397546237393917
    25   1     0.28530836109756808      33.311721464249004    0.012533136994133465
    26   1      1.7501916837777372      35.809007247288804      0.2798151608441351
    27   1       1.721550066027898      33.927797068701757      2.9546745660553673
    28   1      32.093528979950506      36.993663169178298      2.7258000883086444
    29   1       32.07764759073293      38.598067104044972     0.39424623850395213
    30   1      1.2348548879413943      41.850959184283809     0.21835289441451602
    31   1      1.4347612235537595      40.017822961475467      2.7421217584122388
    32   1      31.708596279894412      42.430186875933039      3.1860299232800906
    33   1      32.035275664914366      44.387047167879466    0.025317228608956809
    34   1      1.2334105196609384      47.204336674362459    0.094628587129290398
    35   1      1.4185527950738035      45.100479466129258      2.7757931635269033
    36   1    0.031753441112474232      47.620571581549264      2.8400801564764029
    37   1      31.857131395901881      49.654265948625778    0.038689255278195195
    38   1      1.5286733191668356      53.166426442271856      51.821140520333607
    39   1       1.718730961998634      50.751187143636244      2.3130794730830058
    40   1    0.094722882523789076      54.226226912762513      2.1715631799196888
    41   1      2.9285741708599753     0.31098457175776434    0.042496348688081408
    42   1      4.3784447663975543      2.7359286633717348      51.717594815325633
    43   1      4.0269054578346601     0.43990576868060205      2.9132448740207177
    44   1      2.8598485203557527      3.9074383744788657      2.6942302517343419
    45   1      3.0782497419063977      6.0173730797748588      52.128107159310616
    46   1      4.9128957306904697      8.2549636391355552      52.095286800752092
    47   1      4.9697882739486756      6.4172625516094639      2.4401042196655811
    48   1      3.3783901961677123      8.9597223331791191      2.5176597261769107
    49   1      3.4169330465218009      11.201494695597125   0.0061459355437468461
    50   1      4.9996377274775705       13.57202814872962      51.953241397174878
    51   1      4.6353497160636801       11.72141715943218      2.5818456005546513
    52   1      3.4902500585366445      14.653691305276949      2.4552123264016075
    53   1      3.4925549221833707      16.507249202004765    0.088231994080099824
    54   1      5.0438641613294957       18.96684665603351      52.064989231397064
    55   1      4.5701500810089994      17.591771342689682      2.7646283086421177
    56   1      3.3011158349890146      20.504662020952296      2.4271645774182944
    57   1       2.914849386706365      22.453258587693885     0.11338695891027595
    58   1      4.6191484711345252      24.873791003191318     0.16779161416946151
    59   1       4.671390056917315      23.040951854531503      2.8437814047800898
    60   1      3.3463970539275945      25.854816716421627      2.6517926793439943
    61   1      3.5583220823673472      27.907366613147882     0.16509789701787075
    62   1      4.9849247031764659       30.75649457096268     0.24161530472818843
    63   1      5.1471408483380863      28.545474341660331      2.7326146060466869
    64   1      3.0566535361610856      30.989263030018879      2.7818296378858647
    65   1      3.3014384100830503      33.244315930710599     0.21429810484322268
    66   1      4.9571373141771584      35.930422931682394     0.38084855294356779
    67   1       4.617016852862716      33.610828873070815       2.807992259273727
    68   1      2.9585126015495509      37.406448736336053      2.5573999451038807
    69   1      2.8273629277205434      39.088002090022236       51.97026458616137
    70   1      4.8086664574659697      41.710548811517093      52.127239839221502
    71   1      4.3982675922681853      39.618267547069344      2.5215215296022402
    72   1      3.0600546368910648      42.715457108642177      2.6340229390787546
    73   1      3.0048421927151043      44.587538142555118     0.25139866012154161
    74   1      4.4781927019823851      47.402502440610434     0.31968340862300409
    75   1      4.7738737438326959       45.41599104824774      2.4408930960728883
    76   1      2.7254581759624474      48.159017922065246      3.0954038191439612
    77   1      3.0193394627389178       50.05432786924478      52.027139692181883
    78   1      4.6331586612013957      52.495827372387183      51.974620840887518
    79   1      4.6670245212043069       50.55939670756365      2.6637015435017912
    80   1      3.1308864954247428      53.287035904932374      2.2295479313731987
    81   1      6.1612066516547905   0.0066836241833964014     0.10314298204618014
    82   1      8.3448643109702569       2.569667801964695      52.087955988103545
    83   1      7.7992669427175922     0.83122419475832132      2.3453583679825423
    84   1      5.9713232800513794      3.5417280699394844      2.3820436078676992
    85   1      6.2788716371566835      5.8322765042769005      51.960857265763082
    86   1      8.3265713353854807       8.666840987010902    0.071005453493821424
    87   1      8.0761551486463663      6.6639801357367165      2.4085169617118858
    88   1      6.4335591882431302       9.317466033714652      2.7181172898663388
    89   1      6.5398596077524553      10.908328786882405      52.098292516517937
    90   1       7.912718209186612      13.360085486823442      52.023723388013643
    91   1      7.9788238879347047       11.82844403887391      2.5440240484452983
    92   1      6.6834855085770117         15.026571325089      2.5064563037797889
    93   1      7.0220770780446706      16.304301441146418      51.967462314342676
    94   1      8.1081410936762186      19.581564042267647      52.115185164866197
    95   1      7.5920937116142477      17.582551270590958      2.7840253583202057
    96   1      6.3837769747356417      20.610657732512429      2.4596659057950889
    97   1      6.3000144341496416      22.351049788802243      52.009857256372833
    98   1      8.3313476223287939      24.709775540925282     0.06140747443234388
    99   1      8.4861424582356104      23.250730300516079       2.597355720866334
   100   1      6.3472368359819251      25.652195674877014      2.5569395134898634
   101   1       6.582129434845692      27.615554615873808     0.22020626045356964
   102   1      8.0981080593877337      30.425581508993869      52.064475775734984
   103   1      8.2224732343546378      28.428310703249103      2.6698751000186096
   104   1      6.4152655509003003      31.368291902036468      2.6248495110167758
   105   1      6.4165878866793644      33.129558584936554       52.06925812418055
   106   1      7.6788537375683585      36.376477642223556     0.28202667493949085
   107   1      7.6225230283404306       34.25289308838704      2.6301630874113204
   108   1      6.2981130624986159      37.242553242265913      2.8702164293884938
   109   1      6.2631003600896085      39.024047409434864      0.2228696952243307
   110   1      7.8700419625217792      41.672346058758279   0.0028596756778469148
   111   1      7.6242594469522089      39.858853291933244      2.5388684673929554
   112   1      5.9874062336405851      42.608394858459178      2.7220768215386246
   113   1      6.2293480888957449      44.831148163028061      52.091412332241944
   114   1      8.2670444613930538      47.209508477166523    0.083102527948400909
   115   1      7.6088147932222627      45.177140729208986      2.6755072100634085
   116   1      6.8027862278795022      48.176511149648768      2.5175546639014956
   117   1      6.5612752046993874      49.875400945061692     0.33286962156983779
   118   1      7.7573721990190831      52.910108268251648      52.043409589676756
   119   1      8.5609277434575581      51.104950229121158      2.7294851472539943
   120   1      6.3201607877509796      53.323060806161429      2.6717930089443249
   121   1      9.8160221107866423      55.570288685345709      51.861922367043718
   122   1      11.500354702142314      2.8267972738578653      51.925348866920004
   123   1      11.464180446044736     0.95344616681788985      2.4697808525420077
   124   1      9.7558231319379587      3.8537762119137806        2.56982462121249
   125   1      9.7102178499751055      5.7129653778599696      52.111256175183875
   126   1      11.411121136489021      8.3077439775639803      52.091753133169505
   127   1      11.464756585254424      6.2357441869576959      2.6007359656874214
   128   1      9.4343898729303515      9.0699056255702448      2.6795592923081051
   129   1      9.7943650269658775      11.140475242877494    0.059959585830261883
   130   1      10.905487030955564      14.013005150399579     0.25767816454633136
   131   1      11.398824940162195      11.805280600527896      2.4850448201233939
   132   1      9.6158641301264005      14.910440099793206      2.6146974766087183
   133   1      9.6322392711675384      16.741812010316117    0.083523470852367693
   134   1      11.282807426214898      19.164574840652815     0.22142731975675373
   135   1      11.199516305498548        17.5317613521295      2.7711175164777835
   136   1      9.5322641137053381       20.40027476018281      2.6677920861010507
   137   1      9.8859815685818972      22.019599464179439     0.18848178487316172
   138   1       11.37416712377299      24.770592861220248     0.23495284951581863
   139   1      11.206848449782653      23.159024544391034      2.9949598333625782
   140   1      9.6388409903841037      25.915428837488768       2.842544484911171
   141   1      9.7244696308090877      27.551504601524137     0.10047648133387126
   142   1      11.195990378290244       30.40322863107291    0.023047273586932971
   143   1      11.317383751164627      28.403088026384179      2.7432212416687785
   144   1      9.5134754140454518      30.940199881767743       2.994695429910625
   145   1      9.6998717583244094      33.510198533421715     0.39786879990653029
   146   1      10.859499014835906      36.189208725439393    0.042123914297394094
   147   1      11.649198082099561      34.359378242259076       2.665694425959944
   148   1      9.2195173620949689      36.690999238444284       2.525431899970612
   149   1      9.0716121915630676      38.807467804379051      0.1143348792129346
   150   1      10.990868952732843      41.564201490278514      51.825683127638023
   151   1      10.961385847359942      39.289743271345223      2.0573522597559979
   152   1      9.2189099827336616      42.622382716675745      2.4561633247063206
   153   1      9.1112070788298567      44.469932016178859      52.013387262438073
   154   1      11.357798470877549       47.56037925392819    0.065914581051985305
   155   1      10.993156608191665      45.212525546090156      2.7912703034002666
   156   1      9.8897349995796908      48.522075146798855      2.5484949330994691
   157   1      9.4924413765230824      50.244822000312276      52.122007921499836
   158   1      11.431917155462861      52.989058441015118      51.887294781492265
   159   1      11.459517824521228      51.159872182930819      2.3150276675839523
   160   1      9.7018162205911338      53.919450549852129      2.2783859888369586
   161   1      13.118113483088287    0.053100756127591742      51.865302196485459
   162   1      14.557671837672869      2.6908686989682669     0.14354631907506005
   163   1      14.562582017894677     0.80043395951445573      2.1180146802618505
   164   1      12.945634988199515      3.4656895857931684      2.5836715079011614
   165   1      13.091118930370301      5.7764533769916451     0.19230219888768668
   166   1      14.641548157801054       8.366243313334504      51.982059990865068
   167   1      14.522233689227921      6.8421031023992365      2.6901847022202188
   168   1      12.936272628890883      9.5107087991440018      2.8110564046880349
   169   1      12.981785929696173      10.997861648425138     0.34213264118340031
   170   1      14.957191529004472       13.62644217591645        51.8198908113907
   171   1      14.484612599047837      12.046895934317485      2.7652997204216003
   172   1      13.133235470245971      15.132947538546444      2.7906620811878873
   173   1      12.716904636143491      16.308521203202456     0.19683433217293214
   174   1      14.175081337522354      19.355587110083118     0.34999894893736588
   175   1      14.511107424995156      18.147979671810628      2.9371738457147409
   176   1      12.718034821296362      20.563370257494022      2.6639803631445584
   177   1      13.277989443948259       22.32264708311595    0.033744349891598621
   178   1      14.534491548199616      25.184768368902301      51.935118386013784
   179   1      14.640010352587238      23.048277721773989      2.6506585326717067
   180   1       12.94348919317248      25.810342061743267      2.9017303506609249
   181   1      13.023529681291944      28.022122900456797      52.104062712365383
   182   1      14.424508666684567      31.101101851493112      52.070957634352467
   183   1      14.414944580091946      28.860491975095275      2.4622599885228547
   184   1      12.408312833025223      31.335407266101665      2.6284410204179958
   185   1      12.709288048297291      33.330508989403533      52.111855100337635
   186   1      14.398507665035009      35.967319206683314    0.035641250861658327
   187   1      14.316827204368654      34.287368310580291       2.552458717633391
   188   1      12.867138704417405      36.959721148925667      2.5350757350570534
   189   1      13.038654268343327      38.631391637544517      51.571208069495668
   190   1       14.15003160768134      41.772601262138728     0.24335134645618561
   191   1      14.197237377918995      39.846792203897365      2.3518598347483399
   192   1      12.158741027670221      42.325340138035287      2.4452371025129667
   193   1      12.646326411194435      44.703651012156755      52.075724256957393
   194   1       14.59622210957358      47.288030484580545      52.102931129558883
   195   1      14.329555628481728      44.987645590916713      2.5516380509496699
   196   1      13.063474423587223      47.758220782916908      2.7131424769644403
   197   1       13.18470059992033      49.951340293400705    0.073462675532615609
   198   1      14.428819097575266      52.981508171691779      51.948483909466596
   199   1      14.544633622348963       50.88556629889159      2.6175569603140656
   200   1      12.985120977086956      53.799667824777572      2.6658776749305377
   201   1      16.072240815001628      55.283418620521758      51.763181045174534
   202   1      17.730676270739075      2.9355193763741183    0.013528025342224727
   203   1      17.557753568143045     0.71232101154919991       2.051825431742738
   204   1      16.449474875246036      3.8753160317173601      2.7836408475486816
   205   1      15.958930974845302      5.6754113143833651        52.0452384147776
   206   1      17.663029658625813      8.2070739815578957   0.0012684533779675794
   207   1      17.324125848957781      6.7213625130336201      2.2316085004039135
   208   1      16.298091689997044      9.4823529297058293      2.6902260863564016
   209   1      16.118593317011559      10.944108933369636     0.17026979407279094
   210   1      17.585125429912463      14.155641996731154      51.842765288243214
   211   1      17.582188766726425      12.483767584376253      2.1936001098199975
   212   1      16.152159417681073      15.262418788089432      2.7249660978318082
   213   1      15.730546109530614      16.347468078059933    0.077732802444038226
   214   1      16.900910684899422      19.363194649231229     0.21347215247376142
   215   1       17.82093485324058      17.750396511359884      2.5726054260175668
   216   1      16.454205210587418      20.574280683478587      2.8778705861593248
   217   1      16.257792129546058      22.266589596342143     0.21340946208729644
   218   1      17.376428724743445      25.057592350587214     0.18306932818926558
   219   1       17.48686883201303      23.339255302514264      2.8116296722959597
   220   1      15.695909598509264      26.198936186767078      2.8848376374585318
   221   1      16.540204205881853      28.095766488309941      0.2763458371883204
   222   1      18.250169143460358      30.905855831031282     0.21062486341335745
   223   1      17.907682934267267      28.446555146201376       2.526817315459124
   224   1       15.97077284271124      31.517212532035355      2.7686697786873995
   225   1       15.83255086171952      33.189114987793843       52.02520288304494
   226   1      17.428169550045091      36.541145155354343      51.907616809159805
   227   1      17.551897636860168      34.390892643416279      2.3220766871851901
   228   1      15.879177142226784      37.097657316699028      2.2489940710767051
   229   1      16.016716691639495      39.219552805946165      52.122440464273026
   230   1      17.619507271460023      41.589040510993939     0.13413601930420385
   231   1      17.805223643294639      39.321048831962656      2.6301798912748424
   232   1      15.845990100492731      42.597697937584329      2.6136997960600485
   233   1      15.823452027311037      44.570978643209472      52.100528585244767
   234   1      17.939875385974609      47.361348484496169     0.22585132844022365
   235   1      17.321176780563068      45.385481479286696      2.6765118966776438
   236   1      15.912617985729286      47.880489586591366      2.4187696494168067
   237   1        16.2046028285212      50.132315529853372      51.811080340953247
   238   1      17.782135857598327      52.634997046393991      52.116295359188697
   239   1      17.774889131985255      50.677227719515656      2.8267655894884078
   240   1       15.82999043303818      53.425295025718867      2.4978528192418725
   241   1      19.194443706942614      55.568522198240395      51.983467671147679
   242   1      20.936679225196443      2.1657331855249282      51.974738524056505
   243   1        21.0200598964188     0.63350084283107277      3.0973055679706674
   244   1      19.394253587717035      3.7870428720676195       2.290575176959404
   245   1      19.360149311704198      5.6899709722869982      51.983479228529525
   246   1      21.317501610601241      7.8649167626355396      51.923302857890562
   247   1       20.11994806122047      7.0304788736939887      2.4089710606516253
   248   1      19.309178893892735      9.8495543375865502      1.9085912845621165
   249   1      18.834459618435904      11.130821528269218      51.607390610466453
   250   1      20.631948784907372      13.649161642748435      51.753435717296796
   251   1        20.8020956119658       12.44802368374004      2.3355078189032739
   252   1      19.321010351921945      15.327207211654018      2.6813114741330364
   253   1      19.168266187478924      16.481977882644113      52.102961118943412
   254   1      20.601476670013302       19.06999240373365     0.30741464108619082
   255   1      21.373783570385648      17.734675394594017      2.6376639828299742
   256   1       19.23479098856048      20.216358598426744      2.7918687914716673
   257   1      19.199398247402684        21.5101838129955      0.4767485230049005
   258   1      20.901558852913471      24.704009023639802     0.14692870391652221
   259   1        20.6395658390453       22.80770468423739      2.7004690296081555
   260   1      19.567714198765028       25.74114225382019      2.6442929096953787
   261   1      19.510328934775359      27.991524203776706     0.13431118385743324
   262   1      21.336357953066322      30.545631776043411      51.738774163639725
   263   1      21.123141333574608      28.498957673248754      3.0408289653989677
   264   1      19.804857447058179      31.268479911003695      2.7773985703432027
   265   1      19.277483504322969      34.010645681206611      51.784240962025805
   266   1      21.085486008332936       36.44881667811903    0.018727910300107592
   267   1      21.017481056775733      33.868690355684514      2.3884383794895472
   268   1      19.484763088648513      36.746415990744879       2.505058758536022
   269   1      19.309910460695118       38.84321180545367     0.25060844343898975
   270   1      20.952356997656644      41.901742193159251     0.14842035415755703
   271   1      20.980190165913786      39.601586434822302      2.7228028227106758
   272   1       19.26832111545502      42.405704297575738      2.7167602889561318
   273   1      19.268161594042557       44.26253058529359     0.14398404480925842
   274   1      21.011220041195649       47.18682696478222    0.034393076504517561
   275   1      20.632124869857819      45.259401109339073      2.6923082954023698
   276   1       19.45729743696624      48.352865716107466      2.5810194052859372
   277   1      19.437593067393351      49.873057967470949     0.15836270029111937
   278   1      20.906237928337582      52.598389608854127     0.27762834366760536
   279   1        20.6103251113665      50.925525554607674      2.8917897095574534
   280   1      19.270452169037718      53.509005544631165      2.5056108790034948
   281   1      22.394977066917082      55.077224484376607     0.20595644436096788
   282   1      24.011375794880696       2.496652734164031     0.17039715502137387
   283   1      24.025848814870002     0.56578962550081768      2.5978450077680524
   284   1      22.537312494276875      3.5137891418890357      2.3206165104173495
   285   1       22.34650342002174      5.2706636217612175      52.101803186356371
   286   1      24.348925052870076      8.1325358222803121      52.110518414457907
   287   1      23.086622658707171      6.8017479836030654      2.5744659194206951
   288   1      22.285479012740822      9.7509076560114671      2.4095048597945627
   289   1      22.336819923191928      11.066176263878338      51.698488514855924
   290   1      23.769573209392831      13.434439789329563      51.989930712655898
   291   1      24.381082894527079      12.173016473584802      2.6182494210430871
   292   1      22.464274513922071      15.193938629120721      2.8917033162870611
   293   1      22.244064669087596      16.500606939696773      52.072481316776475
   294   1      23.937270196895646      19.455307201948301       0.239096685319938
   295   1      24.300884852292704      17.672503628341584      2.7261401497610365
   296   1      22.792700578363942      20.422066989391404      2.7391413842246464
   297   1      22.389229943338215      21.826575659288814     0.19369947011193925
   298   1      23.941636868913271      25.017797944849775      51.895045340417035
   299   1      23.803579013763184      23.341233108272746        2.51745560336827
   300   1      22.679014553826725      26.144172869061261      2.7209963905979615
   301   1      22.501639640653682      28.006714546417211     0.40849584563859487
   302   1      24.299230109792802      30.647332260489801      52.033816568818189
   303   1      24.390495806925426      28.700772788338991      2.4471026317863078
   304   1       22.82435531068105      30.920059154239866      2.8136836669621563
   305   1      22.432444607422209      33.387389877470476      51.899546280770757
   306   1       23.96077531057772      36.282235949603582     0.28250118770514648
   307   1      23.920027650539978      34.870113579740504      2.6067165409061861
   308   1       22.39647860384996      36.929989448667108      2.5428028593449543
   309   1      22.259323994621003      39.013900354165067     0.32286478333407059
   310   1      24.178766632907593      41.595485459170426       52.08369508749972
   311   1      23.985593826023806      39.726235267101728      2.8424854877786947
   312   1      22.620330984930934      42.552087118608483      2.9420041348932497
   313   1      22.221785810156625      44.393032702850547      52.012620352171659
   314   1      24.155053972918267      47.171649860471497     0.36654518836038175
   315   1       24.01946329308559      45.434690991498933      2.5614931032868915
   316   1      22.395313368911307      48.272065637285394      2.8198723513524544
   317   1       22.67144052587528      49.642537323336107    0.010565931983122915
   318   1      24.067782797816143      52.317634283553225     0.18945252178712474
   319   1      23.375715892014913      50.762681462760028      2.7675983351199318
   320   1      22.771019569793275      53.558825135307607      3.1082147893200789
   321   1      26.185711334523493      55.231222445923223     0.10022267089119533
   322   1      27.017720152172611      2.5422735632571287      52.100735204593711
   323   1      27.133063823758274     0.98298617708395863      2.3450660783389083
   324   1      25.669373035486135       3.689520180576277      2.3903281341483837
   325   1      25.668395892022726      5.1693977641079938       52.06014999029496
   326   1      27.389812671472473      8.0101816886272452      51.974287040724221
   327   1       27.36440138727658      6.6342998125970576      2.6367996257324595
   328   1      25.684836616958297      8.6065841686706879      2.7093021904838253
   329   1      25.681195908783071      10.714499584397096     0.24539606361540492
   330   1      27.166166423342904       13.95766679783493     0.11077300558328666
   331   1       27.50042937725782      12.113131760934943      2.8073263405911191
   332   1      25.747148599443324      15.005621122945204      2.6917552734607018
   333   1       25.43356982481815      16.724691688421967     0.15367778842374885
   334   1      27.080767537424208      19.266817866950486     0.16471444936693017
   335   1      27.289091674259485      17.676377727474403      2.8906348317582076
   336   1      26.046039735394878       20.71886515616481      2.4234646565529641
   337   1      25.379061233007864      22.385755412769001    0.073041726174646243
   338   1      27.182214192204444      24.937366581255532      52.043767749446872
   339   1      27.102030804100099      23.448621075054294      2.4512084645454983
   340   1      25.651756786959119      25.980090373695322       2.190153947794955
   341   1      25.532355571524011      27.910132315317092    0.080728022466981922
   342   1      27.584141055610569      30.723225628670967    0.042960332255517542
   343   1       27.08282939451394       28.57407155846958      2.8228154334251165
   344   1      25.950074635658751      31.373445434895061      2.5084382116661486
   345   1      25.565713943141564      33.416299646609978     0.47397460693175086
   346   1      26.992255797439427      36.038521686483072      52.040612345727439
   347   1      27.427642369383438      34.085133951351473      2.6727559595162687
   348   1      25.961719212617403      36.873942360635667      2.7777267958367164
   349   1      25.574359189198706      38.607250238108413     0.26272458872395871
   350   1      27.532171534109796      41.559470870321888     0.43651172978961972
   351   1      27.024965717428216      39.874616671877959      2.6829676096690807
   352   1      25.714274653962587      42.797331208399605        2.66507142583629
   353   1      25.735790842837549      44.834972343263274     0.14374616022500944
   354   1      27.593355164531022      47.316095673819859    0.048279723095803737
   355   1      27.258642118427279      45.312075713151586      3.0381256958259759
   356   1      25.840336434743985      48.193449083725525      2.6646800206967032
   357   1      25.770961445224753      49.750949365380229    0.027170785364078253
   358   1      27.779756481582421      52.589499450964389      51.802753067832157
   359   1      26.861717448901654      50.913032753440085      2.5777527850916169