dump/Mg_1000_0/steps_11 (written by ASE) 

4000 	 atoms 
1  atom types
0.0      32.100000000000001  xlo xhi
0.0      55.598830921999998  ylo yhi
0.0      52.130399999999995  zlo zhi


Atoms 

     1   1       32.06567708510503      55.365912078899832     0.15130545917979007
     2   1      1.2671776298644197      2.9354910885557253     0.22682814343614788
     3   1        2.16318998337539      1.1593800568162675      2.5022952665301914
     4   1     0.11549565575988979      3.8645747159805386      2.8083141243389775
     5   1      31.917723982618117      5.8067750822583264     0.11236492201734839
     6   1      1.1445658160758063      8.2702298797869638    0.099233451427088212
     7   1      1.3158977728155141      6.4772116908597903      2.7902237883134124
     8   1       31.69259504054364      9.1684646991937111      2.5943006542243241
     9   1      31.835283952819285      11.012886246458395    0.031304266441398804
    10   1      1.2979800740007161      13.551373264939837     0.13279922229592694
    11   1      1.2643841305074501      12.026518551901427      2.6813143890544859
    12   1      31.954151946960483      14.534465247825137       2.857676673906747
    13   1     0.24032950797680291      16.216814329208869      51.987260088742801
    14   1       1.790847380488598      18.873016827669101      52.012619559283536
    15   1      1.3420572054342561      17.310402266412854      2.6424756967790999
    16   1      31.859188513507377      20.042081425013588      2.0336868450558105
    17   1      32.035942376451032      22.190489586766805     0.23102316856479721
    18   1      1.5183173903934177      24.782469578681287     0.40028074064068103
    19   1      1.4367170977278425      22.729301419152552      2.4724719373732982
    20   1       31.57087979549425      26.151910228001817      2.7346297679285998
    21   1      31.936563295435981      27.827040246127542      51.926026724695134
    22   1      1.6299113606837794      30.440872186134985      51.772875695582293
    23   1       1.643454451602578      28.283566363725299      2.1603629712838859
    24   1     0.48677781346222315      31.279553633629362      2.0303032004274502
    25   1      32.039765877389407      33.249476196784443      52.008844585126383
    26   1      1.3563359150405683      36.366374657353639      51.823511577878321
    27   1      1.5731301860883649      34.345209791278521      2.3286982542713122
    28   1     0.29728204274164477      37.478688751027633      2.3492954166129203
    29   1       31.79713142167946      39.096711062447724    0.088915850533416954
    30   1      1.4712844285943012      41.591854637526097     0.19766612300840297
    31   1      2.0574915283620743      39.866944716501891      2.8309174947275939
    32   1       31.94098987077377      42.529082372558776      2.7119691444994252
    33   1     0.14335498280990169      44.349169590369513     0.52339124442973473
    34   1      1.0784425448452815      47.076857033865721    0.039855842972873777
    35   1      2.0146086963070076      45.055270022177226         3.0205577790436
    36   1      31.691430956609203      47.889126214514853       2.567821483427474
    37   1     0.10661886396898437      49.914088829625229    0.056395684144440801
    38   1      1.5287078985042442      52.613492619631621    0.019643699787348562
    39   1      1.4349606310679779       50.73307199496675      2.7417226055598225
    40   1      32.065386534374511      53.662449876566683      2.7993294016354699
    41   1      3.2643968625415987      55.182725440528735     0.20213926568629209
    42   1      4.8842609616674038      3.2742052211325876     0.59977954705213277
    43   1      5.3439121474314693     0.83285077110704098      2.6764900526234632
    44   1      2.8963154957720909      3.9143764589319847      2.6752810693988605
    45   1      2.9734013463480475      5.7561144281188525      52.082210417629739
    46   1      4.3493325380062293       8.277765132218363      0.3078209414944052
    47   1      4.5800220109476681      6.5436576782098053      2.8506286180794991
    48   1      3.0396605706728912      9.3056129776104939      2.6853863433267096
    49   1      2.7685941618807992      10.938863236992647      0.1710568538591811
    50   1      4.8668140381708938      13.554619100760608    0.025601229120670334
    51   1       4.479247975822517      12.424328552140485      2.8177582365040248
    52   1      3.1255857918277234       14.78608803974671       3.017152269084777
    53   1      3.4636241327403376      16.271611534454628      52.117021937537622
    54   1      4.8005400411304633      19.645259379206326      51.861369831493221
    55   1      4.5081678587015501      17.637643435096614      2.5531489393628841
    56   1       2.784135134948396      20.170047828936315       2.549921488461806
    57   1      3.4695776360796469      22.294579018190959      52.052986849147288
    58   1      4.9160298614633025       24.57688402626983      51.789867731519905
    59   1      4.9847104024634641      23.258581134857362      2.6348889080174418
    60   1      3.4426157255159615      25.910466878224149      2.6722320693887425
    61   1      2.9749528454135494      28.011548089726073      51.354880658172299
    62   1      4.4676683595847431      30.755989204595902      51.454352381897912
    63   1       4.895964400064801      28.577312838160974      2.5803673066019552
    64   1      3.4946719807374227      31.126859422713988      2.6060093734021592
    65   1      2.9688796818712984      33.175659512410888      52.004742471650545
    66   1      4.1931350359892985      36.242161854648465      0.1388233665292308
    67   1      4.8633700714279744      34.116076999693448      2.4439781802919778
    68   1      3.3727515124714658      37.388907254667082      2.6585192376878037
    69   1      3.2722890976027923      39.119375586926701     0.01576171356450122
    70   1      4.6381676528893196      42.032814644040705      51.565803747622496
    71   1      5.0655634685495992      40.191472539033647      2.6273932309886612
    72   1      3.7278304691578565      42.969358957671204      3.1243447804709983
    73   1      3.0865121846114461      44.775838514017117     0.21641480414328645
    74   1      4.6559227627778741       47.37876286688779    0.030286847603517363
    75   1       5.167733308143049      45.610215688362651      2.4869317929708825
    76   1      3.2512009823888453      48.118480503861562       2.728575039007572
    77   1      3.0961673848058999       49.84813510691226      52.081008281950581
    78   1      4.9970833833569497      52.704366819706991      51.984117658392044
    79   1      5.0409867766952976      50.836090676719429      2.4907378591098297
    80   1      3.4409007952693988      53.787459088610362      2.6760291622952197
    81   1      6.5705498132616222     0.23325266631568448     0.13665115259105054
    82   1      8.0002231279076987      2.5709392846298096    0.030298501344983832
    83   1       8.443321514315107      1.1098937494089642      2.5757988253352146
    84   1      7.0659250537240315       3.788603358988492      2.7538842337821889
    85   1      6.4502785726454643       5.645471660173456     0.16450133551656673
    86   1      8.4516574161553848      8.6574559087262859     0.13748488391806057
    87   1      8.2599993612873188      6.6471951223642742      3.1219185942600323
    88   1      5.9070054861554668      9.3717245731587191      2.4523582917707833
    89   1      6.3244049424513964       11.06090819834853     0.14006449731172618
    90   1      8.4052638326853018      14.305121808681593      51.908291678308075
    91   1      8.0040872051105847      11.854998479515725      2.4887137306746512
    92   1      6.5230335429128159      14.849284008209734      2.5423780718172329
    93   1      6.3548525685122987      16.922635008615618      52.123440134159772
    94   1      8.1203951523487667      19.702172224954925    0.084355676628632525
    95   1      7.6869031967413148       17.95403464685198      2.6974553587302084
    96   1      6.3837991960978675      20.434682546150896      2.2084357351525541
    97   1      6.4161789692133375      22.195305958157622       51.98083330335767
    98   1      7.9532126818746178      24.805513676511296     0.20581448148972753
    99   1      8.1210740480239583      23.021936827295843       2.502320551474424
   100   1      6.9727956843056766       25.74156997101467      2.8343162459946383
   101   1      6.9616086849423935      27.508591918959059      51.809808227459548
   102   1      8.1004525141704029      30.526582057956666      52.103178154133637
   103   1      7.8567384411351711      28.542290444235327      2.4794462884692714
   104   1       6.958630900105951      31.562904386057074      2.4665358303911824
   105   1      6.0418456132766254      33.355382154355134      51.925054646800689
   106   1      8.1818624506231874      35.842463093484611   0.0035926232174309934
   107   1      8.2676606633840191      34.130322109779151      2.2390353859929979
   108   1      6.7797427837806152      37.080365389039251      2.2523596757489517
   109   1      6.3908447317788077      39.010446874070645      52.093555215995785
   110   1       7.951607595611744      41.474317493696375     0.18510890082700882
   111   1      7.9426541944921949      40.009032124107442      2.5796042901733043
   112   1      6.4992280016762498      42.600977793057254      2.9721330190215749
   113   1      6.3198831831062332      44.695019089174558     0.39806370162885779
   114   1      8.3115462714777433      47.596268200418606    0.054454596217261841
   115   1      8.3196763935540581      45.640400317039905      2.5344951768325732
   116   1      6.5874044876791276      48.435377274586457       2.594989441707356
   117   1      6.1429757755127312      50.241740831348672      51.821996400143398
   118   1      7.8444977591239331      53.146965464475123      0.1035019272221558
   119   1      8.0785508795310985      50.907987375642506      2.6582374662308768
   120   1       6.482899991268213      53.697759116770094      2.6934795325272027
   121   1       9.848579135457685    0.065193923009625857      51.754260182700257
   122   1      11.154739052310507      2.2887529745206185     0.93537792210500814
   123   1      11.919635386632638      0.9934716948431711      3.3114688716154643
   124   1      9.7874156429205055      3.4640628823889394      3.1599247066344409
   125   1      9.6123747311640049       5.278883947398608     0.40945151866793561
   126   1      11.252890655738318      8.0505602588204308      51.986339929012871
   127   1      11.162754326972575        6.46560973344915      2.7522623932029551
   128   1      9.8360238422248916      9.4613463882493694      2.8245568299186083
   129   1      9.6580621870717493      11.158807998917009     0.17230046358311016
   130   1      11.516997489200467      13.928458571802917     0.19890884029018374
   131   1      11.262861079044079      11.797323653052652      2.5012481507410618
   132   1      9.5997379466478048      14.429119519691799      2.7489648464247272
   133   1       10.12512699447738      16.707837864164834      52.001228898539289
   134   1      11.196974404134746      19.597978089991813      51.805325064628811
   135   1      11.382488290701316      17.210440776989024      2.5637116773259989
   136   1      9.8667695435401797      20.422265450859278      2.4250434538610515
   137   1      9.3171845326529272      22.233076179537409      51.809979485853759
   138   1      10.813539838078917       24.82234545451016      51.682540272668241
   139   1      11.075226412085332      23.312477660450671      2.3703721438468892
   140   1      9.7568641502261304       25.98564236878223      2.9290543251741323
   141   1      10.071036058331437      27.907083484316761      51.773397725709593
   142   1       11.63521071350093      30.705085237508058      52.097013079266475
   143   1      11.043748083591341      28.907808898573837      2.4398223648933492
   144   1       9.923755895366746      31.417851577001478      2.4269870930334578
   145   1      9.9157752541619057      33.315581746756983      52.063535317702225
   146   1      11.540639128147127      36.279538744589814      51.959266700609852
   147   1      11.533606444800229      34.185043391439798       2.717203703280064
   148   1      9.6296758302308696      37.141937943692383       2.635512070380134
   149   1      9.8229575749251907       38.64644096409728       51.99807998547498
   150   1      11.199654304836757      41.498482679243999    0.094655608982473938
   151   1      11.209479050880073       39.36170698649785      2.7831189881324141
   152   1      9.7847812314590588      42.412781926545598      2.8030426200986098
   153   1      9.4054031783923033      44.125054943777634     0.31136337368931766
   154   1      11.123569274471789      47.431668242989751    0.069084584527909471
   155   1      11.512460474382113      45.662546523365691      2.4405643956086549
   156   1      9.6811118608586355      47.971392748269331       2.710866956138748
   157   1       9.301625463496606        50.5378841792663      52.016048732474758
   158   1      11.735996452765944      53.015619258072519     0.43585966790352854
   159   1      10.922451574967873      51.015836352732514      2.8200810082904013
   160   1      9.5587623437238385      53.851522327636786       2.606368724818767
   161   1      12.878890509897953     0.21553348422393567     0.22330088134131376
   162   1      14.561660238203972      2.5139000133374729     0.32158978896985629
   163   1      14.678309468722716     0.51468212116555712      2.7006057617386148
   164   1       13.18208265488772      3.5703827699149544      2.9171556669040006
   165   1      12.678029240802047      5.5367321431699787     0.11969696476082517
   166   1      14.857964251201635      7.6713714682227216      51.898855301128599
   167   1      14.179135498222308      6.3402719321488252      2.6465218144232354
   168   1      12.801286007403839      8.9417785056029668       2.260738147514064
   169   1      12.925832120905872      10.995263113871003     0.16787295364185312
   170   1      14.707831323947472      13.438595155416033      52.012951764748173
   171   1       14.74687456931521      11.872382993394728       2.633508183675997
   172   1      12.835574155855701      14.439578259994676      2.7741261121095873
   173   1      13.445421828646818        16.3290215007362     0.46334886944790299
   174   1      14.403205600823421      19.424192152186759      52.048273850062962
   175   1      14.724851053319531      17.672548396424837      2.5802992938266893
   176   1      13.349133126258895      20.484621374585174      2.8050036633508322
   177   1      12.575692016718618      22.114602696615258      51.919069881526802
   178   1      13.887027725255214      24.760504452444806      51.904251671119631
   179   1      13.925753372319218      23.125757653615064      2.6256905940392592
   180   1      12.800158699776023      26.194080865305349       2.319677692397577
   181   1       12.85631281406819      28.206816353454624   0.0052009741137576341
   182   1      14.644760357283907      30.838108342117806      51.957513900857158
   183   1      14.383116798811479      29.016953160817931      2.3656475128455745
   184   1      13.025905742803156      31.627061635505211      2.8162441060243313
   185   1      12.861419566491108      33.315100727452403      52.077343403227673
   186   1      14.600656835466234       36.56507543492495     0.23123927951994153
   187   1      14.834445446645756      34.344455823670323      2.5609713314471159
   188   1      13.201236340971429      37.017304711214237      2.6658900565282027
   189   1      13.008820399060951      39.268400078153725     0.34343847355345225
   190   1      14.505238108179421      42.143055271437163      51.548127801812704
   191   1      14.746925743425336      39.553215596410638      2.8126968022192003
   192   1       13.19059600773503       42.67059331021845      2.4612289585909584
   193   1      12.566466350252604      44.394025143894929    0.090216051866370869
   194   1      14.036887482996926      47.158224189867923      52.099470827878363
   195   1      14.549145254831489      45.194015502057297      2.5913837314087549
   196   1      12.840183667253736      48.606215605792364      2.7737789611518631
   197   1      12.853946701167224      50.301053660958367     0.11479225324775892
   198   1      14.734126596548993       52.80546433556411      52.077117977134975
   199   1      14.249581539232652      51.133479067986308      2.6074458663636046
   200   1       12.87728998469175      53.642153014887469       2.974419165624389
   201   1      16.278216324992432      55.337975999959092     0.14697161219293381
   202   1      17.795479734089895      2.7963839728878725    0.020761688808289724
   203   1      17.822137256454972     0.90736703442999578      2.5720166656035137
   204   1      16.052722057945953      3.2213361876160316      2.8447758911665102
   205   1      16.043276752220436       5.067945936652988     0.15296827610182107
   206   1      17.767071213761767      8.4809355648487923     0.20535474383801741
   207   1      17.562925648060936      6.1872152268902605      3.0344984137206734
   208   1      16.055935137264573       8.743677496416101       2.707683388009182
   209   1      16.115706104436409      10.825552085243604      52.085649976039818
   210   1       17.89976535293674      13.977254704960218       0.129498224013219
   211   1       17.65695384730315      11.641273861446665       2.846735506211417
   212   1      15.965441533606059      14.637075839587043      2.6701854958770745
   213   1      16.139447776460941      16.677674342662705      51.894565479419889
   214   1      17.808112280640731      19.142806601245422    0.055369285086698784
   215   1      17.698046291965959      17.128218180580422      2.4389339782173036
   216   1      16.117723970094573      20.087132982856531      2.3407375966015946
   217   1      15.860494295459969      22.306861155650214      51.852969861546825
   218   1      17.317090827616315      24.929622097908354      51.730544971228795
   219   1      16.970840354709662        22.8597092897298      2.2672276204853667
   220   1      15.919553209627608       25.63021804369431      1.9865218586378541
   221   1      15.772296001398031      27.988721974560658      51.873983754862415
   222   1      17.571244640624087      30.882421022503262     0.16165964465430144
   223   1      17.511652299373988      28.469814221628592      2.8271760197529092
   224   1      15.915050879280759       31.41826693601368      2.9596632715915727
   225   1      16.055120111895842      33.491266180766999      52.060712767565001
   226   1      18.195796712100304      35.689082910177369       51.87488133486189
   227   1      17.824787583917832      34.180917183667269      2.3346162605384269
   228   1       16.56359038274929      37.104131372761636      2.8562401796236809
   229   1      16.182964828142023      39.233943245414309      52.075610209667524
   230   1      17.530121100809147      41.891629869845012    0.023917218570403367
   231   1      17.862355349540437      39.967565511830209      2.4742204387455708
   232   1       16.25122063736389      42.678963335104683      2.3837085006138183
   233   1      16.177208309339949      44.795658784030792      51.849376736831459
   234   1      17.840538710302575      47.464994859179463    0.033894114389404609
   235   1      17.720304939336234      45.519297276205471      2.4976505208771869
   236   1      15.730696220199174      47.995925798959291       2.834014562304541
   237   1      16.026181829156407      50.233725761030321      52.086313268115319
   238   1      17.925354101682363      52.700506479388473    0.065589768854545372
   239   1      17.552383962456826      50.684867499905316      2.4847292402667698
   240   1      16.122059749925882       53.72118535079882      2.4023883969408022
   241   1      19.695411555322959      55.509643624746786      51.955137713954009
   242   1      20.859235588271638      2.7696052840716576    0.091297710217239619
   243   1      20.794631459860476      1.1365665136739125      2.5602170466792229
   244   1      19.192268760982575      3.7569711684657872      2.4750547629933055
   245   1      19.129403230814361      5.6989913819363949     0.35732973678926749
   246   1      21.054317507740318      8.4059868626714618     0.29616628168085984
   247   1      20.804018055295948      6.3413638015676526      3.2834596861381464
   248   1      19.367902084768751      9.0782268314066492      2.8880623819990467
   249   1       19.34614363606628      11.082628937780141     0.23901252234298412
   250   1       21.09925440517058      13.760562830453344    0.016317022516596891
   251   1      20.663908980163242      12.201070454430736      2.7419400158733733
   252   1      19.333980422451013      14.869718077067194      2.6624303263647149
   253   1      19.308383947062381       16.62758735097901      52.114947366927964
   254   1      20.716623061453596      19.068025407168633      51.940519139155491
   255   1       20.96882212241783      17.473448103728689      2.5554221030731035
   256   1      19.455530152552875      20.495554008920003      2.1704789009475154
   257   1      18.770607686964343       22.04535033448466      51.950221650893781
   258   1      20.315574792436564      24.735895681992009      52.048957810515212
   259   1      20.824543102237431      23.051548230029333         2.3995033642757
   260   1      18.774724276960594      25.481816623386333      2.4581133906309094
   261   1      18.736512841036934      28.273406870308101     0.28337805842586111
   262   1      20.818319324515198      30.568603305739543      52.051901434309208
   263   1      20.876354436848356      28.626477209372137       2.391499004610012
   264   1      19.708927583111407      31.329777567786486      2.6925867242490664
   265   1      19.716037362752211      33.338085540830448      51.499186463034441
   266   1      21.210353261392523      36.158440495456674      51.877492106756847
   267   1       21.19490338994596       34.05141145300545       1.983354546368334
   268   1      19.512497852579017      36.850391486730182      2.4690692177837508
   269   1      19.241971903902812      38.670901211207884      52.048532723261609
   270   1      20.627138512667472      41.453387952639638      52.013837296707528
   271   1      20.970321332581488      39.643484610584927      2.2074603161887643
   272   1      19.423664404694584      42.758283798657708      2.3747204105627042
   273   1      19.171966057915924      44.814250256013828    0.012574371668896021
   274   1      20.853580039820326      47.532133711327333      51.714472048779307
   275   1      20.907669461673162      45.010785196079723       2.940867830877314
   276   1      18.983605814460162      48.084589627722181      3.0058761858808984
   277   1      19.397565762187437      50.326554555817623      52.038126754848413
   278   1      21.331636275371256      52.991897819003768      52.119864145973544
   279   1      20.759013394248818      50.588509984394214      2.6734272437803082
   280   1      19.555464572808891      53.488275691275575      2.5428852743362511
   281   1      22.623751665968484     0.19589921561632531     0.58345744231977881
   282   1      23.904226041019847      3.1816111174574813     0.12299984915313844
   283   1      24.485074800447364      1.5806144592495641      2.2456734612142131
   284   1      22.577856520034864      3.7653194441550144      2.9198540601373932
   285   1      22.147308572574861      5.8894110498522938     0.25645042119021771
   286   1      24.477698528136621      8.0366401765496764      52.086688952428105
   287   1      24.182410631509686      6.4157998479846103      2.6832932002168417
   288   1      22.362568739084381      9.3854734720612907        2.98540801534139
   289   1      22.833131252432921      10.709331292935575     0.23519641762853385
   290   1       23.89967205665906      13.729257471793538      51.952806153872864
   291   1      24.035769672628643      12.394785211618007      2.7087124816040418
   292   1      22.612468002520995      15.263436261408366      2.6969037430558078
   293   1      22.188440947117016      16.369449713043011      51.700887598743151
   294   1      23.889588577286961      19.736556676120525      52.050510633699474
   295   1      24.064556683207115      17.809925060085291      2.4999375506471155
   296   1      22.590979958658327      20.475295548832175      2.6253583785024701
   297   1       21.65543797303814      21.862667541123134        51.8818091160989
   298   1      23.344698156659732      24.428125715827925      51.946930435909742
   299   1      23.699130112562937      23.081533775867108      2.6532813233948596
   300   1      22.103294610992389       25.70275205369644      2.5889524066147067
   301   1      22.178862392573169      27.637419598524779       52.06879684947765
   302   1      23.874070164215496      30.476586909197604      51.728088074186658
   303   1      24.285779876239904      29.201041196065784      2.3909836453816937
   304   1      22.670038705475879      31.431761633580393      2.4298867515822198
   305   1      22.929248368614466      33.308045838669585      51.852789765546063
   306   1      24.199025626425573      36.036612139533197      51.581958659025013
   307   1      24.357258035579083      34.273721746261259      2.3299167519815311
   308   1      22.452744070306192      36.980102229528761      2.4206668146750014
   309   1      22.294423674264333      39.226008462302531      51.620338801214771
   310   1      24.298626072215637      41.612375811631182     0.13927834305328499
   311   1      24.157165155552104      39.718899081739359       2.287562294578013
   312   1      22.298466828619837      42.044839274401028      2.5561689938300218
   313   1      22.139943031878431      44.414387064392862     0.41171518893768339
   314   1      24.081970734947028      47.115117773335399    0.020023384500040823
   315   1      23.971534576669232      45.468815928358985      2.3860609475358516
   316   1      22.201028676461942      47.895595292303462      2.6102352022456841
   317   1      22.535432992650797      50.145929275577537      51.857971209575879
   318   1      24.145182677809128      52.573546384321141     0.18068323697343008
   319   1      23.954689987967981      50.963308760692883       2.182906137274133
   320   1      22.590655066549754       53.81351130247954      2.9011135173691693
   321   1      25.493150913356345      55.305298443744455     0.18913230414007165
   322   1      27.105644122667044      2.1152194592616524     0.27568626682012776
   323   1      27.966798252655416     0.87694157619878133      2.9776969380622575
   324   1      26.149048965933545      3.8353278740738266      2.7599796231732667
   325   1      25.485028541238709      5.2248041766966686     0.27507901090643988
   326   1      27.308184166686754       7.978595340334957    0.064625276593886297
   327   1      27.433386043672055      6.5733073258912098      2.5869727742531436
   328   1      25.255515334633095      9.3690083127004797       2.565120782553366
   329   1      25.911397444594243      10.707575284736913      52.093491546118152
   330   1      27.177663121657879      13.347646986764477      51.996338312443186
   331   1      27.424638107965308      12.068316763085146      2.4863610585203779
   332   1      25.457583131516202      15.156526955007145      2.5688795117967897
   333   1      25.156488455682421      16.647681405159894      0.1611672886521866
   334   1      26.731438453235121      19.422509235747913      0.1213288073547379
   335   1      27.106280487339376      17.758701513095989      2.6281012451167514
   336   1      25.609318038102842       20.76478055491291      2.7546442381948837
   337   1      25.171860709978301      22.382226786276529     0.19980948004093885
   338   1      26.575363866587956       25.03928582317053      52.021961556607629
   339   1      26.799010222654235      23.402571596339467      2.5889967627271386
   340   1      24.998930156537401      26.284615707099665      1.8678048863105012
   341   1      25.585081232110014      27.932942571671582      51.672871882120603
   342   1      27.579966165014596      30.108838108032153      51.959079065566783
   343   1      27.329942786802729      28.261813819715755      2.4412906515211912
   344   1      26.133529245629326      31.434232851957006      2.5179712462467401
   345   1      25.857850167983635       32.69839077697069      51.926026354822724
   346   1      27.170437693308291      36.171671370416604      51.950468843317026
   347   1       27.57293659310503      34.636198900247464      2.6614080910689983
   348   1      25.550680996307449       37.16868308380446      2.0493702548996713
   349   1      25.149806794779405      38.693175799685442      51.735258049216114
   350   1      27.156319161008032      41.576213271610598      51.944613203862097
   351   1      27.188789780702582      40.189058712834537      2.2916541557910044
   352   1      25.473285400648425      42.715189584706906      2.5670699059921018
   353   1      25.641974469824483      44.353825047253643     0.26169712398536843
   354   1      27.065474419473169      47.304656432157401    0.061044668696147074
   355   1      27.192866140430791      45.508458160529869       2.657359787367124
   356   1       25.30229656629254      48.279258209377559      2.7447885301926478
   357   1      25.760245915044795      49.918004323988583      51.836665219033634
   358   1      27.174850214501639      52.978585462555984      0.1154418511628567
   359   1      27.348637254153907      50.843749658002764      2.3837890557560071