dump/Si_1400_20/steps_61 (written by ASE) 

3980 	 atoms 
1  atom types
0.0      38.395898218429522  xlo xhi
0.0      38.395898217999999  ylo yhi
0.0      54.299999999999997  zlo zhi


Atoms 

     1   1     0.10530498697284749      2.0688157384433277      53.137548054872525
     2   1      1.6500315603343731      36.521863390189218      2.8518403143143045
     3   1      4.1141244470656142      2.2040643237181681       4.042811544376173
     4   1      2.0112705238326316      4.3670858375850372      1.5289561663440983
     5   1      36.536457651268542      7.9622547301316358      1.4536743602411228
     6   1      2.1071268811406041       2.559533321567864      2.9313099053043423
     7   1       4.020440776511772      6.2606108101493945      4.3115018485794625
     8   1      38.075543691721727      6.2054060628448102      52.838855714883842
     9   1       1.713867564481417      8.1103295486580667      1.3682365573384105
    10   1      1.9154703507889055      11.612160100546523       1.133632578262542
    11   1      34.591109674693634      9.9780435533129097      4.5885568905930896
    12   1      2.1875302290431073      13.422508347087005      51.511425994248647
    13   1      38.372444922944368      10.021147599114519      53.004062927654935
    14   1      2.2049979680685667      13.777393224156796      2.4569066648482005
    15   1      34.706256605407411      15.570028903313837      5.4755220814877132
    16   1      2.0632935232620917      15.808464046377189      1.3729549257368963
    17   1      3.9324974965972732      15.299165094370982     0.15857052291819404
    18   1     0.25979875875665293      13.829082728747915      4.0139707524184134
    19   1    0.095081345376777662      15.450730718172171      54.179407367335877
    20   1      36.340603111784745      13.712623977890178      51.797265439685283
    21   1      36.746350755173921      15.484208036080879      50.260003315708666
    22   1      7.5967629747419574      17.369637920891495      52.939575675496492
    23   1       2.216875283026793      21.116016234126239      2.6254212529999474
    24   1      38.242184021088455      26.965532592589849      54.131528765871593
    25   1     0.31998513274181101      25.396676190592284      3.7384959940868123
    26   1      3.9447867001973096      28.756040557677313      4.2153979733685336
    27   1      1.4404569698594827      26.814385068014868      1.6766293041597684
    28   1      36.398814267123669      24.987263498479489      51.415100563842806
    29   1      1.5384268268862646      30.543523777828032      1.4473787830168379
    30   1       2.224455641109468      32.503718122042422      2.6201768364934077
    31   1      38.049782884903387      28.978797492489271      4.1633882895968792
    32   1      1.6728776174350319      32.708550020476466      51.863315661114278
    33   1      36.229368276053577      28.610003908149405      51.435932613745123
    34   1        4.27251511578008      32.674337318005882      4.1178006117372572
    35   1      38.250909201602219      32.787886479886915      4.5229820835483903
    36   1      38.123626291477514      32.498725154344214      53.336562900134965
    37   1      1.7605170596552338      34.560958650994223      1.5412375247590613
    38   1      6.0068154621798948       34.51063454639695      1.6371882134376265
    39   1      38.375760629920428      36.513242042614614      4.4300245121016788
    40   1      3.7599229173867537    0.054910790198686311    0.053810682489051936
    41   1      9.5305866266996038      2.3324065465541155      2.6625925995757251
    42   1       4.496228645345516      4.2297574608739774      5.1674331116864085
    43   1      1.5767624328579939    0.014488345887004447      6.8119694666593089
    44   1      5.6794513778123825      6.1850041990320275      2.6677924363031043
    45   1      2.2018743527402034     0.37574525668966891      1.8185238158287433
    46   1      7.5695758670394273      5.9060469255140058      3.9005072346385323
    47   1      2.4412668837323426       4.025485194478061      6.6783063941120249
    48   1      3.8138131399954371      7.7341937846220237     0.27943057246668529
    49   1       5.940399628077043      8.0343891663784994      1.3660176565544253
    50   1      8.1701907242732972      8.0253962903632896      54.077302407586224
    51   1      5.8784345487995742      9.9271397170258826      2.7254431248392486
    52   1      4.0447881057677151      11.519573321157219      54.230089342130384
    53   1      9.5772528039726783      15.262975807586431      50.219423006903618
    54   1      7.2872563555053489      15.398902538806247      5.7360520123070557
    55   1      3.9189494247098766      14.016490346480348       3.945659382502027
    56   1      7.7725705976993948      13.670461535826879      52.849236010814401
    57   1      5.9400237023704223      11.641370890823579       1.234263318736212
    58   1      5.6558179577241914      17.142919371604464      51.642564618923821
    59   1      3.9597850603605482      15.807632598175335      5.7221306230629096
    60   1      1.6526395814469645      19.236655406926232      1.4056787778342164
    61   1       3.781257478414886      21.232698288556907      53.231353163261339
    62   1       9.587426735746579      20.966010844310965      51.551817564793353
    63   1      36.175448544042879      17.369513493022509      8.2837676912300946
    64   1      38.357571059304561      23.443594738876282       54.20483326202168
    65   1      7.7522149485663956      25.172105173717103      53.084927129234053
    66   1      5.8467929233388336      25.278264261842519      2.6357356947462098
    67   1      3.7922751946448838      30.887842502346086      5.7964861099703251
    68   1      5.7109621354202433        23.3963371861492      1.4666253962333504
    69   1      7.7309477745821811      27.211513335963325    0.064481679389734647
    70   1      5.9158754364467976      28.892758664650092      3.0112083880066831
    71   1       1.848728478020645      29.022420474503338      8.4129040335162628
    72   1      3.6760464755139552       30.59153086003634    0.092158193721547682
    73   1       5.652739584250364       27.25213092076314      1.4121532969085604
    74   1      5.7387428403300804      30.479931440069855      1.3001729542510494
    75   1      3.6816932275840859      36.957548575236956      3.7919363414791154
    76   1       4.014013209312929      34.492473419926654     0.24955650427871223
    77   1       7.560294740201595      34.489352007956576     0.01618204510126588
    78   1      5.6056408196294099     0.19237880941593447        1.28379740371963
    79   1       3.507502355982576     0.28322623192142388      5.4028591274970603
    80   1      5.7737104678222977      4.1490651913986252      50.202582569282882
    81   1      7.3653569009701405      2.3363316975470823      53.024943295406771
    82   1      9.5070899371625988      34.620165739650751      7.3125126602974495
    83   1      7.6494943131554685     0.24252527100911905      54.256612559611085
    84   1      3.6241277305664368      5.8127587007116821      52.956475811946753
    85   1      5.9820185858559496       4.087673580274175      1.2907793011902311
    86   1      7.8861025021305604       4.147722038846851      54.157586062101529
    87   1      7.9602994635108626      4.3672443995005308      5.4356976243931037
    88   1      8.0421594013995783      9.7873798990492826      52.861675070043489
    89   1      9.9369053237687375      7.8975732306555679      1.1146531598836431
    90   1      13.295792482398657      10.134542133526704      2.4447025022094531
    91   1      4.0479266871752628       10.01310386574187      4.2030082269166771
    92   1      3.7245705223555725      15.430327471868457      48.648058737850775
    93   1      11.195686449185164      13.530732367855089      4.2319053800609945
    94   1      7.7762704944355763      11.793285915388777      54.203134001825227
    95   1      7.7134689908899929      15.323557830848948      48.904054118100227
    96   1      9.4934913588469403      15.221730697561572      1.5826626299007349
    97   1      5.8374153445191359      15.768832338570219      1.4800165155026441
    98   1      2.3443289502649689      24.975961117005632      2.7797260436498146
    99   1      9.6578045029862434      17.245818276236715      51.800890152305762
   100   1      11.772992776920374      19.074693413230957     0.17299801691726766
   101   1      7.5240469235615119      23.096687319221164      49.154744221011448
   102   1      7.9246362804243367      23.155211539826276      5.5890578803655195
   103   1      9.8011120364907516      23.021163804569913       1.448298462224759
   104   1      9.8775784185931066      26.493554363243202      6.4131884827237622
   105   1      9.2787125990667132      25.020288082782486       2.869737742988796
   106   1      7.8483343747627572      28.671142351249813      4.1708253529730674
   107   1      5.4054941893989232      25.079143765119454      51.739030909484924
   108   1      13.370975089582561      30.482521580987548      50.151511578148295
   109   1      9.5934307338282938      28.694914966813169      2.6898497952407863
   110   1      9.5862422724797671      32.789474779903763      2.5583532095616555
   111   1      11.640297132960798      31.057492292031309      54.120621949673058
   112   1      7.4907145585266415      32.556095774429608      53.249566958968515
   113   1      9.5180683524198511      34.827344800051165      1.4963010432819397
   114   1      7.8407131841959972      30.553726984715329     0.11880154508893376
   115   1      5.8754515413691371      36.370713788403265      51.799822172306939
   116   1      11.361236948852346      34.741377690067537     0.22327532368568645
   117   1       7.847071291736416      34.608312979742657      5.6119185542429024
   118   1      8.1773799116135386      32.519523014993695      4.4553847373453337
   119   1      11.298338308299689      34.561417240918679      48.942108940303577
   120   1      13.340279051449198      0.3255767836103487      1.3017675140398086
   121   1      13.437643780682434       36.52343322413725      2.3962403735003273
   122   1      9.4853342548303736     0.48736010335900437      1.1642383130263416
   123   1      11.580247816866326       3.936876918311786      54.219768446826983
   124   1      13.758300041405722      4.1384047763160119      1.1955027476668172
   125   1      13.442097555905212      8.2539919549461764      1.1492494623533982
   126   1      13.560798071692545      6.1319602545398055      2.3817616470485508
   127   1      13.150604954368465      10.262592362437989      51.409181191951753
   128   1      11.734605464102536      9.8703756285266433      52.968876507866078
   129   1       13.20145047129078      12.102221257797568      1.3896809617766142
   130   1      9.5696438618298387      13.328185036160724      51.527094807492837
   131   1      7.6202534356143019      11.590361054744633         48.651270403416
   132   1      11.291131419332388      11.714435714257126     0.14617936050818808
   133   1       13.25910947406053      13.819810638801737       2.920065768303755
   134   1      9.1815592484107835      13.289209953625312      2.8962804611612905
   135   1      9.2898509589224076      17.469334082114703      2.7159944293098559
   136   1      15.135573852162382      15.741460445259118    0.071799820319426805
   137   1      13.354314392543884       17.45044228912727       2.791713252056363
   138   1      7.4463024101237032       17.32018675001785      4.3437309143704512
   139   1      11.643252178140767      13.597410489818598      53.078083191757756
   140   1      13.660531535368484      19.426960194902463        1.38031984770224
   141   1      9.6257454495307311      21.277525259682861      2.7823922601956039
   142   1      7.7616771636136228      21.294548813337535      3.9962223887362716
   143   1      11.681601886149084      25.251682248798318      53.168153703501737
   144   1      13.685434356815694      21.037101770425334      2.9841801036950537
   145   1      15.510208687306363       26.56354270021307     0.51821727653306193
   146   1      11.063239740238306      25.082871356834868      4.2777753113730226
   147   1      13.440385086289716       28.90754404816099      3.1256124509192871
   148   1      17.658078268345754      27.063627994485188      1.6262868197460554
   149   1      15.847618844594962      27.033447817991942      5.7874712125594527
   150   1      11.513422838342983      29.089698139776637      4.3782165860259061
   151   1      9.7151905617180834      30.817164329073343      1.4920502004581651
   152   1      13.498248383493834      30.686146040245998      1.3296853501687003
   153   1      13.515291801250353      32.630640668936472      2.6664407632102525
   154   1      11.480287830193054      32.876422967369415      4.3666464914738521
   155   1      11.629804150981279      36.712699131616958      53.267629936554535
   156   1      11.499631318623992      36.310838131453821       3.983583836265872
   157   1      15.191481997816938      36.717125140757162      3.8856780069676695
   158   1      7.3670002679013633    0.016886876423249635      5.4535225335485285
   159   1      13.370045333149633      36.755026280046557      51.504044186260714
   160   1      17.074941847324002     0.13229156940132031       1.107378839998022
   161   1      15.040559748977769      2.5518441095324258      3.9456249471717251
   162   1      15.644110920258134      4.2291810774972598      5.3811827980564342
   163   1      15.012415845139992      1.9235147399627224      52.835296517270685
   164   1       17.47362233221337      5.6276525220408748      2.4020047920812799
   165   1       15.74904522573922      6.2069659928314644      3.6283851128640419
   166   1      17.288473373510964      4.3330171072623989      6.9352817928556272
   167   1      14.963493708885554      6.0450501926454718      53.384160606975151
   168   1      15.502464611901434      8.0293035672419286      54.276203356664077
   169   1      15.152609549613867      10.061134441154842      3.9865701428644713
   170   1      13.876725010834786      7.9936069192410928      6.4934917655894555
   171   1       15.09705113259535      11.739347263297141    0.033808238822587079
   172   1      16.875127210739951       11.90945032755595       1.342338373880533
   173   1      16.730937339082509      13.942656202343743      2.7105492406086804
   174   1      15.071295260745769      13.724962404580857      4.1540764262066654
   175   1      19.094816412190248      15.747355910437285      48.945923096518264
   176   1      17.182947614182389      15.689185729379274       1.427845877886772
   177   1      13.389175134044342      15.600164446308977      1.4611595320689712
   178   1      15.612985463090382      15.579570245616699      5.2978306415788001
   179   1      15.261753476879466      17.541172868357545      52.774041401196719
   180   1      17.134499648100149      21.400832859814809      2.6827577601633248
   181   1      17.251746724907083      23.216311051870655      1.2223815084905356
   182   1      15.582082419188009      21.542432529493837      4.2999008967057843
   183   1      15.333848144354436      23.221020978197505      54.225344710033042
   184   1      19.233639663511806      30.884727278711384    0.085987322468440791
   185   1      19.045721305164623      25.166230839299004      4.1837536254743428
   186   1      15.507236659258076      23.485376720802165      5.6298613789103031
   187   1      17.303449863927508      25.068866577251296       2.639941799689121
   188   1      19.135434750272847      28.927599845314358      4.2193964490055604
   189   1      17.407533803683098       29.00114646156895      2.8569788873750426
   190   1      15.429510557707207      25.345142724080933      4.0772734550757841
   191   1      13.297844005197414       28.48492181426893      51.782477948074124
   192   1      15.402566722769253      30.484794580124849     0.20924087903690644
   193   1      15.397499190230739      34.524235605691558      54.234222710640502
   194   1      15.401200112143158      32.735485746562063      3.9526546683306627
   195   1      15.162364057373024      36.462558872667941      52.811416157171593
   196   1      17.051537949568903      32.335545481697672      51.453910033856957
   197   1      17.046149053077293      1.7835976072650279      2.9065452903506874
   198   1      17.307090531723357      36.622070501283957      2.6105835360805627
   199   1      18.984552763965578      2.2379145940706024      52.719066535266158
   200   1      20.967567832523429     0.50980368022785816      1.4582209483627819
   201   1      21.138150710369139       2.276488373142147      2.8216604194017334
   202   1       19.04411260500207      2.6471993581567208      4.1167505507680762
   203   1      17.081701749778361      3.5077632350097057      1.4496263489775867
   204   1      21.248617676444319      4.0631555043747385      1.6695386179254803
   205   1      19.306622266426288      5.7177916506843669      52.956028533267336
   206   1      19.096453924607747      4.2788218701356033      5.5844938149032597
   207   1      17.506255953300276      7.7199013528818217      1.3952763971678797
   208   1      20.868976363535321      11.694174595930434      1.6817339838967551
   209   1      18.906450015565994      8.1087705448993503      5.4297452692276469
   210   1      19.253435612030824      5.9700374930100937      4.1085411941289296
   211   1      18.965759478930213      11.686993479745267     0.34566518849519501
   212   1      22.904442879433947      11.824808780994649     0.24490958104106533
   213   1      20.864285258634148      13.447861271716757      3.0044027506698634
   214   1      18.697509688135806      13.372487182359841      4.1701725213481726
   215   1      19.578620923875782      15.868316365305933     0.29828797464671186
   216   1      21.324440631882624      15.483582135994331      1.9303154057682925
   217   1      23.345028536689014       19.44331039819863      54.161390910211857
   218   1       15.39405104117353      17.408945292831262       4.143506194909742
   219   1      21.398294335061813       19.32116597448152      1.5074046930376215
   220   1      17.349011268358314      17.587711005297919      2.8726692275512722
   221   1      21.246445899195436      21.165866249689955      2.9752020069792136
   222   1      23.157274092303517      21.055673324828181      4.3101079664366813
   223   1      23.280621902823153      24.977597561612885      53.097905938018279
   224   1      19.316191879427077      23.157704246769839      54.217496097805196
   225   1      19.430996044550856      27.104179854570301     0.16288620087987063
   226   1      21.013208822624939      24.913159871600136      2.9562788832521711
   227   1      21.089244274793614      26.914259197857383      1.9077230160134941
   228   1      21.083462442209388      19.726672466439489       50.39247634906193
   229   1      17.387656162813606      33.008642035295374       2.794048523732386
   230   1      21.310970595659658      29.229942868466328      2.7011613887957884
   231   1      19.228202570480615      28.898493531467548      53.075751548513082
   232   1      23.167140856001925      32.808158636302089      4.0717155042399424
   233   1      22.931633313475544      35.022005718917093     0.11697989700243155
   234   1      17.470100400207187      34.946037051761827      1.2965377471183179
   235   1      18.961369033557855      30.451502091733602      48.995278939756794
   236   1      13.369872280135437      34.554699759780263      1.2837358940141232
   237   1      19.385055884631591      34.802927809914308      54.232636460185581
   238   1      19.062285500254017       37.13936772304335      4.2050062876457437
   239   1      23.020878145255441     0.44301681797454207     0.16508515598345661
   240   1      26.761618271027004      2.2555097391821977      53.254786855713128
   241   1      25.062860596769838      3.8883789803617232      1.4557607407949238
   242   1      19.146921186902887     0.79120761546728047       5.565597318525648
   243   1      23.012671888194955      4.0088551590337715     0.23684508814596941
   244   1      24.906094711062085      2.1561644273322229      3.0941045883480021
   245   1      24.667759331370888      3.8173561121517037      7.1508685194893813
   246   1      23.249960564716226      5.7413354081269743      4.5094251760513178
   247   1      23.058347475053182      7.8033980641044236     0.14616182765820449
   248   1      24.796253360285043      7.3428140346773265      1.4465868735122198
   249   1      25.098787021878067      9.2589911056677554      2.7976086975283443
   250   1      21.337261268781837      9.5071238799197477      2.7637693500424914
   251   1       22.74910740703557      13.457729639173289      53.136756919505117
   252   1      24.625069363687818      11.279011299069452      1.7890376080623798
   253   1      24.893643163603642      13.594015604104756      3.2886977059379894
   254   1      23.273796570442972      9.4705551644248356      4.0340316354838004
   255   1      22.946929956645487      15.153630493368395     0.30398776197188232
   256   1      25.291609999346015      15.338826383368557      1.7902660634117955
   257   1      22.810546817161139      11.471688025010732      5.4764264385409813
   258   1      22.899349143705003      21.435671942560024      53.262649566126967
   259   1      25.197141003079231      19.372975287993629      1.5208999535373227
   260   1      26.692593232387029      21.047069810222347      4.5911364085495538
   261   1      24.538343832636151      21.297973596162301        8.72405229616583
   262   1      22.957447794123247      26.927576204088222     0.37919411542379722
   263   1      25.074602054469132      21.213403304209425      3.0215309712777296
   264   1      26.455899562640742      27.125081283253483      0.2292151091514027
   265   1      24.807419955284729      23.183616928223039      1.8641863029381514
   266   1       24.87077116856706      29.165398606470202      2.9702931288602694
   267   1       22.92373016396639      28.752459447047457      4.1652327845495067
   268   1      24.740732056547422      30.774091092131524      1.5949792774544693
   269   1      17.577623649125808      30.923204096152837      1.4846918626932735
   270   1      19.321767723962893      32.839834363380625      3.9852839075430184
   271   1      22.743252146538481      32.768639170627509      53.228838511722365
   272   1      22.971258206187876      36.592520763114422      4.2278209593472065
   273   1       23.18108859610069      37.847330998221487      6.0789274857314206
   274   1      24.739449867830754      32.774000931956202       51.53716237624247
   275   1      24.987171693059462      34.963522288445745      1.0403275987132801
   276   1      26.532934699364201     0.33921673387603346     0.17825896651863771
   277   1      20.729807654347233      36.896388748933575      2.7675248962157082
   278   1      28.670101549533726      36.564040046889239      2.9016844583958674
   279   1      30.804061928805957      1.9308080280675406      53.204283005703083
   280   1      29.463272169476447      5.9421693080705031      3.1384583645690074
   281   1      28.278747374409043    0.037210643329179026      1.3106341724935739
   282   1      28.885560369179927       3.824907181575802      7.2480186202385406
   283   1      27.136199145401207      6.2387161226475678      53.362579949730538
   284   1       34.61120630768589     0.42147658197692872      5.6354174419336029
   285   1      27.211616457969168      5.9603558991593344      4.3347698800885954
   286   1      26.981793283457854      7.8619144352016566      0.5442492557761196
   287   1      28.954214535228047      7.9044257525397841      1.7141536265540507
   288   1      30.826305448892153      8.1117745277181825      6.0292610344834419
   289   1      29.291440087199817      9.7801629459976063      2.9551654349877934
   290   1      32.823226177865948      8.5047881323160901      7.1184514692716201
   291   1      27.075733191776347      13.537415512971261      4.3775183886382836
   292   1      30.973719707684459      13.973471194692074      4.0289634733699673
   293   1      26.946063252605924      15.459201432334499      5.8874245670610366
   294   1      27.082022397126281      15.312248786809938      0.1029793549372018
   295   1      28.914568058500272      13.504189534804647      2.8441866503991364
   296   1      21.466405703832006      17.434280430303989      3.1370984696751534
   297   1      23.070889399179503      19.341385367947606        5.62091008992466
   298   1      27.210983798084737      17.283234544389277      53.172292988386786
   299   1      28.825345548343048      17.210439040552533      2.9220020269462652
   300   1      28.809657220631223      15.509377306341369      1.4726707728401973
   301   1      28.540092152390482      20.949356186587465      3.1522502814129316
   302   1      26.838835049756771      21.574498331166257      53.454299261012736
   303   1      28.836491987682397      23.235810246632919      1.9076503146753205
   304   1       30.50127668403308      24.792815169028248      4.0802791340439653
   305   1       26.64602533409878      25.148620594095025      4.6867851342941105
   306   1      28.723471873475923      26.993352476262196       1.136176876713876
   307   1       28.42244576703094      25.147148728870871       3.172270301573874
   308   1       28.64371545854997      28.840160473828963      2.8995986148791877
   309   1      27.070275032785108      28.974487491456781      4.2967396091335575
   310   1      21.167336308105209      31.125119913454462      1.3554048031220283
   311   1      30.515533232143536      30.680789465473442    0.042219583479527513
   312   1      30.659968867999059      32.681519753300599      3.9563069449595081
   313   1      26.587641357214299      30.939093295277001     0.17587656139158997
   314   1      25.007901440005636      36.791519983633371      2.8176371068888324
   315   1      26.883575024446092      34.817066286272656      54.263468018121728
   316   1      28.714762506514024      35.002362539033761      6.6686943465076292
   317   1       26.47778445080656      34.846213525510514      5.5349240527648487
   318   1      34.442720723269609      34.484260648129883      54.205319494640584
   319   1      30.693510724893585      2.2103051020944253      4.1151373877343076
   320   1      26.809089806799943      2.5254389648951037      4.4557431008447095
   321   1       30.90257137040409      4.5427497728317574    0.042946192875001538
   322   1       29.07746803953081      3.8468865953223972      1.5057087478254267
   323   1      36.446213353405305      4.2946645638635621      1.7553895115063691
   324   1      31.005948986240583      5.8548300758394216      9.8987871161721888
   325   1      30.891861673899637      8.1583706240290006     0.47200797029133817
   326   1      32.956237236380517      7.8355944760490308      1.5638237143046705
   327   1       30.86526508185629      9.8736133301888565      4.3786424290810251
   328   1      34.537882902288416      13.515743544052349      9.7053927369473101
   329   1      30.943117563863275      9.4954426756955002      52.877364238386754
   330   1       30.78465314011909      11.141568642541088     0.35577024723573936
   331   1      34.437406903763289      15.408398571211281      54.204428201003807
   332   1      31.014487279018471      15.467826484305823      5.6471775135828679
   333   1      36.780744714574453      13.454764943668776      2.6077936113062838
   334   1      34.974535910272337       17.41336605590579      3.9980930159604195
   335   1      32.920123855536765      23.382109074842141      1.1309548274655732
   336   1      26.816632092805669      17.384554769271134      4.6029738040255754
   337   1      32.345994693265197      19.527746587002646       1.718687658865657
   338   1       30.85578575082236      19.882813408331934      6.0100426591783345
   339   1       36.56592113915319      17.355183185115802      2.4153421704631817
   340   1      29.045997453686748      18.966992356888927       1.737605696731678
   341   1      30.728686023100511      23.665936247174152     0.15829603894443364
   342   1      34.642452843737388      23.348784753274785      54.048525311617389
   343   1      32.446246233860208      25.167814029607456      2.8355378746384856
   344   1       30.69320534941096      23.233088008805037      5.4822031576641974
   345   1      30.556149149577202      26.796383972637642      54.245763816688516
   346   1       32.44282909829473      27.017421993646593      1.3841670629426057
   347   1      32.693859197719739      28.925846642285279      2.9403438080574587
   348   1      30.773288076947789      28.762117849750346      4.0500330841952037
   349   1      30.453500746515267      28.753573867739284      52.777630190706709
   350   1      30.749086623620627      36.751764574621326      53.104352977610731
   351   1      28.784859660674613      35.112527903776289      1.0677847556126583
   352   1      32.655916590375149       33.04186401771608      2.9788131965610654
   353   1      30.600589522390315      36.618867533390443      4.1700801524135267
   354   1      36.127210695940555      32.874796427092392      3.1615094932748335
   355   1      34.855536207019071     0.18664730125683826       54.22062369640804
   356   1      34.399817719979225      36.922994915885198      4.5107724186357343
   357   1      34.924165902191788      2.0409853891533132      53.119693223829003
   358   1      38.335148147665464      36.239270276447236      53.123458266265573
   359   1      34.789521228249328      3.9617521593067631      5.3632958217250781