dump/Si_1400_20/steps_71 (written by ASE) 

3980 	 atoms 
1  atom types
0.0      38.395898218429522  xlo xhi
0.0      38.395898217999999  ylo yhi
0.0      54.299999999999997  zlo zhi


Atoms 

     1   1     0.22022175136038638      1.9269354596094284      52.933847065942281
     2   1      2.0885838746633612      36.583067374008429      3.0569544263511856
     3   1       3.907596235034569      1.9985870105140879      4.2757661622271135
     4   1      1.7914606902031556      3.8101843147698631      1.6115610313145208
     5   1      36.714322065306646      7.9604992211337295      1.2078820085760891
     6   1      1.9198222055007401      1.6689725958755979      2.8572588266693844
     7   1      3.4735976122784282      5.9451666823075167       4.365600152046321
     8   1      36.809368315544837      5.5757130029413933      51.543496338114167
     9   1      2.0992625900564623      7.7844572821094857       1.400443589538541
    10   1       1.894151978000435      11.568848149898894      1.5397851352751699
    11   1      34.545224665640681      9.5344169983266234      3.7893681400020203
    12   1      2.3091341685938112       13.34912426111584       51.58568205139165
    13   1     0.25314969924729586      7.8679213450680443      54.167853999192268
    14   1      2.1327108839592328      13.525869610921285      2.9810391705366546
    15   1      34.324531487980231      15.538446611621879      5.5005239177799323
    16   1      2.0357957185909337      15.681273174100856      1.5732883546110452
    17   1      3.8216630957716249      15.427171052721079     0.13750442554853645
    18   1      38.341666375609073      13.736386083337942      4.1174540203237493
    19   1     0.13253390725719622      15.479942211362582      0.2754012778497556
    20   1      37.201669360413327       13.46142694487286      51.591123644777589
    21   1      36.555364148136405      15.467641970905133      50.500742477453016
    22   1      8.0545787611521558       19.38446939066591      0.3690291436994016
    23   1      1.9085979588707545      21.112775825704055      2.5391158366184321
    24   1      38.146230395348738      26.899924652840479    0.051581729267684305
    25   1     0.64414442047553222       24.93159778219443      4.1993946162631905
    26   1       3.962363198574999      28.279509521687565       4.134480418804003
    27   1      1.9358636392551043      26.740153109585123      1.3554181074443585
    28   1      36.476907237971041      25.253562282352373      51.753373277685938
    29   1      1.8455093331450627      30.481488420304071      1.2564993062281233
    30   1      1.5474732223807395      32.404033723245099      2.5501805974723206
    31   1   0.0046142616359391214      28.715267150259521      3.9350960437813591
    32   1      1.3343443239310777      32.595181628553561      51.651186516910101
    33   1      36.346514545550377      28.973954493681028      51.680695571051814
    34   1      4.0617835967789135      32.460981375856214      4.0063096454384759
    35   1      38.327430919780255      32.459156280149053      4.1166532808966503
    36   1      38.117561833717538       32.68446474082586      53.340567697861651
    37   1      1.8246414239052644      34.489211209984404      1.8243488970170012
    38   1        5.99064814694494      34.530955793474313      1.4032423948308086
    39   1      38.316240587930842      36.478544047174069      4.2417936602461284
    40   1      3.9018596103574588      38.159855380758685     0.12313437849612686
    41   1      9.2199092693362221      1.8948749741368718      2.5713000428054884
    42   1      3.8829681521168906      3.8525694092977809      5.4995248797266694
    43   1      2.2299954906658548      38.129896168773222      6.7798254320899183
    44   1      5.6404616112226362      5.5608317146541895      2.9794394067998269
    45   1      2.0044756460575708      38.215427373725937      1.4159447297796743
    46   1      7.6089247194902381      5.9040802768673695      4.2447898695203916
    47   1        1.83835290392555      4.0688680223704692      6.6747856723059007
    48   1      3.9595326365394024      7.5707415608890321     0.14797600955514534
    49   1      5.7592092897260212      7.5595289874185347       1.642549670510594
    50   1      7.4899074118034585      9.4362192936940072      53.007299681277132
    51   1      5.9363836981452405      9.6832911151683501      2.9329516580475552
    52   1      3.8725951956069644      11.441592767787331     0.31945825620604157
    53   1      9.7435567960020961      16.820063970404824      51.833404268960386
    54   1      7.7086136237308009      13.598104386575748      3.9773732559834585
    55   1      3.8106675046340643      11.807624324002262      5.7996023332354794
    56   1      7.4376720887376466      13.682219827841008      53.216079446463802
    57   1      5.8873926765321869      11.493018485490852      1.5718115493928262
    58   1      7.8428848116343834      17.511482700984558      53.380737226538358
    59   1      5.6990108341383179      15.524891557905482       6.810045938688785
    60   1      38.262439437232992      19.325238368908767    0.010425048917227312
    61   1      3.9312875078929119      21.067919423887709        52.7207150342809
    62   1      9.4593746180820393      21.225816611573389      51.777320366198701
    63   1      38.235239691501022      17.031466745553423      9.1297172786519365
    64   1     0.46943049885257615      23.164602284100482      54.076084438933783
    65   1      6.0868247538724614      24.862291701621743      51.613105199991502
    66   1      5.6543668398988221      25.227021862211565      2.6931111949902298
    67   1      3.8455028296936762      30.733363827910726      5.4606440093906583
    68   1      6.2391567516771298      23.122751963458501      1.4195321919199619
    69   1      7.6156835395679572      27.283522618043936      54.228371543603153
    70   1      5.6104482837457983      28.921248908289321      2.6172811280236967
    71   1      1.7615717572240772      28.895004680272748      8.1356239738241918
    72   1      3.6538276301843289      30.835535743799845      54.247877718630946
    73   1      5.7488182484678596      27.101734826433923      1.0901268016368355
    74   1      5.6482873927630477      30.793910420248675      1.2920699795640436
    75   1      4.1407204231747476      36.350813614644373      4.2680856390540844
    76   1      3.6958032508924115       34.66952589393383     0.47521825119956701
    77   1      7.9496784424999491      34.441125826228607    0.044296690826047314
    78   1      5.8040996665423288      38.374462847263359      1.3550441225014553
    79   1       4.250640264469193       38.34290066992471      5.4948652896972403
    80   1      5.7669718203153622      3.6389387448960764      50.407944979336811
    81   1      7.5572072312240754      2.1977711231418491      52.925247363340141
    82   1      9.6368327784947674      34.918905300105699      7.0179594106733232
    83   1      7.5664178580846659    0.023627116186293297      54.298527801581237
    84   1      3.9352009665025691      5.6527328184919421      53.262103108540181
    85   1      5.7264678804361706      3.9618909448243524      1.3583600506219464
    86   1      7.5747710755938265      3.9249538150443373    0.051476016434355655
    87   1      5.7616930855848354      3.6494387218698039      6.6233450139525578
    88   1      9.3820266189644936      9.8184789451467189      51.586165152965897
    89   1      7.7075760313318913      7.7048998381510687      0.3543599541780057
    90   1      13.528264893283001      11.924909520137108      1.1764510931740895
    91   1      3.7804377871344625      9.7539384365718771      4.3603409537372393
    92   1       3.654029218338914      15.580609291705812       48.86497899734055
    93   1      11.399814704638324      13.758639597718968      3.5706962033411385
    94   1      7.7929911879926737      11.649473037572829      54.071615934747548
    95   1      7.3290323700275195      15.321992820932643      48.693527237823282
    96   1      9.8652873244777606      15.032186445010396      1.3533486252224876
    97   1      5.6496061850382091      15.457325279047378       1.554456294008822
    98   1      2.4538373038440553       24.99416845126342      2.6625697765936933
    99   1      9.4600195363646886      18.912939123076004      50.714333716817741
   100   1      13.526003127524762      19.454336637734517      1.4783718867788609
   101   1      7.7432182804112939      23.394016593372342      48.913206033642481
   102   1      7.8401135497689687       23.06700414408807      5.4657011241394029
   103   1      9.5974690313473943      23.329588444167978      1.5447485910087397
   104   1       9.525648973364973      26.621527854965766      6.7564494362165064
   105   1      9.5370023568554405      25.086951505191585       2.972853121969226
   106   1      7.5151491222360081      29.000986417057547      4.2398827514781932
   107   1      5.7424819481876153       22.86906111596053      50.019575956274046
   108   1      13.233025646568979      32.755248343344675      51.670003018164962
   109   1      9.4295204630902294      29.052172675084435      2.9071401940876149
   110   1      9.3408515061999609      32.493023186099244      2.9650463902631157
   111   1      13.343090801208314      31.014480076439312      1.7748951142480893
   112   1      7.3765762660908107      32.412968784815838      52.980823194097681
   113   1      9.7485558446453666      34.632083526144307      1.6745472432252897
   114   1      7.6828232894607424      30.651849117581982     0.18647486213958481
   115   1      5.6718716910309848      36.490672725467697      52.126207239463078
   116   1      11.133543868298208      32.915812952928881      52.998720445373074
   117   1       7.910663754289347      34.933653185987936      5.6722043460625438
   118   1      7.5418654165345762      32.658909522936909       4.289202075429885
   119   1      11.138965404218929      34.568389218128267      49.221316186683175
   120   1      13.299985084364208     0.18544777452527567      1.3493715527325754
   121   1      13.281473727440444      36.561376921317986      2.4959726037577163
   122   1      9.4297751454794749    0.075157028133257781       1.306230118592814
   123   1       11.40848992167348      4.0922399150861679   0.0070201482121547264
   124   1      13.209939711972247      3.8494033183189438      1.3890751856414654
   125   1       13.15364345172287      7.8057069015836724      1.8567239806926288
   126   1      13.029442866811044       5.924371614541653      2.6982911909136185
   127   1      13.306459317228617      9.1318211209145286      51.635732818869265
   128   1        11.4806454999257      9.7467625862394041      52.932599798212358
   129   1      11.692326865115763      11.561504377248133       54.21129523694097
   130   1      9.4414928879167217      13.612671787013229      51.709481508823451
   131   1      7.5611184858818747      11.631187945053261       49.09160656295257
   132   1      9.7685058071434536      11.360577561658378      1.0286359762621016
   133   1      13.623770196577079       13.63080452250518      2.6327134251675384
   134   1      9.6315999832110908      13.146204965600598      2.4470219231324348
   135   1      9.7664600579860625       17.06571422711562      2.7609434708441856
   136   1      15.436679442077793      15.801817562914735      53.893263684982323
   137   1      15.494368351247406      17.233477199563001      3.8539701386780134
   138   1      7.6165643140649024      17.483901253759431      3.9888031277317757
   139   1      11.427920555452912      13.658788079687202      53.017611603446092
   140   1      13.404687466357828      17.616566325132275      2.9162573127910694
   141   1      9.6616309439661379      21.343598437252879      2.8346241134691685
   142   1      7.5997422442123703      21.129682911290789      4.1404258041788795
   143   1      11.634537701365685      25.216368823319424      53.233917057980968
   144   1      13.638972392554615      21.254529322875996      2.7752336481329372
   145   1      15.388601865967933      27.276574398669311     0.25641990490759103
   146   1      11.628977559132549      25.240354452847942      4.0601102516863046
   147   1      13.231123851191127      33.020967605266861      2.9580534502795559
   148   1      17.612917364107183      27.174489675730189      1.5324402174071663
   149   1      15.688655741887821      26.765384311307397      5.4625384461722382
   150   1      11.228965604388534      28.555184328908645      4.2366100157729543
   151   1      9.7077329937157799      30.880295331421987      1.5320101195389286
   152   1      17.093775383939256      30.911062105152048      1.5415047479995441
   153   1      13.311423159479775      34.723930222539515      1.3606124463425293
   154   1      11.223604968829942      33.055530617622566      4.1173465062137646
   155   1      11.329676649230151       34.53492231704621     0.10020126228312144
   156   1      11.604875111122464      36.510023116893684      3.8480764935505345
   157   1      15.137439251350576      36.461578073007544      4.3387500332869173
   158   1      7.6209577342759749      38.302981501021868      5.3290140813290447
   159   1      11.306049111561816      36.582482588400687      52.919870587038595
   160   1      16.473168388260738      38.282486948079281      1.6407728601378742
   161   1      15.454722413894229       1.992784554570044      4.0531376866980171
   162   1      15.013819685988219      3.9306198558773664      5.3472546469772189
   163   1      15.080948749860289       2.409025779569034      52.746440530746121
   164   1      17.086723175446295      5.9224828431190399      2.7284723300522185
   165   1      14.992837686289484      5.8031629947482752      3.8354837317315496
   166   1      16.821855484767255      3.4821551495792264      6.7031831948893661
   167   1      15.263864009354823      6.0520066226009623      52.936830956651654
   168   1      14.915733003552686      7.5501101111959201     0.28032651566464867
   169   1      15.110107871263606      9.7228277341600045      4.2479588397699688
   170   1      13.506348167126378      7.9728618351162703      6.8050096785370471
   171   1      15.585169158483462      11.518500922773255    0.053483647177938576
   172   1      17.561352873295508      11.771162590789103       1.563521522437715
   173   1      15.497828998395253      13.989467122843143      4.0643186558234579
   174   1      15.197070733281345      15.632925972038311      5.5470722383132784
   175   1      19.174875099172745      15.395206645603347      48.913369137122928
   176   1      17.252000977664927      13.873551986341733      2.6686551468511892
   177   1      13.759807370419315      15.559121722048754      1.2535349045586492
   178   1      17.405446806011874      15.712106715483428      6.4713226481983623
   179   1      17.485790117917915      17.113288264438545      51.822208836643355
   180   1      17.590487511247545      21.290123138237263      2.4053905741597861
   181   1      17.492049126741076      23.194511081015015      1.1941813573624818
   182   1      15.658226476921753      21.365981052246493      3.8719034479945069
   183   1      15.681646783668759      23.296880825853666        54.0268259926697
   184   1      18.979964188272245      31.334928922532161     0.37289544523730472
   185   1      19.255104621615871      24.997047910272549      4.3348138079721572
   186   1       15.70023813996198      22.971731721109883      5.5539523660851851
   187   1      17.739590715196535      24.922719358213143      2.6380715941682862
   188   1      19.266026604151282      28.621654311000029      4.3188102786099742
   189   1      15.505487960606002      28.503917457415742      3.9265110015333886
   190   1      15.628847210258488      25.032559488090008      3.8000640184848642
   191   1      13.373110493405834      28.869852379510277      51.669453503127279
   192   1      17.543337349646443      29.059671889209444      2.8061675772623067
   193   1       15.32943658602729      32.725704413676297       53.33338270995479
   194   1      15.200988908102417      32.556593868223644      4.4735344679373821
   195   1      15.226427013729792       36.74571635763953      52.858073072840206
   196   1      17.028870068888541      32.931424089847205      51.912284005427338
   197   1      17.094557923019465      1.9444691649800485      2.5019719317167985
   198   1      17.053977857171454      36.361804526726232      3.0354967105346868
   199   1      18.995374581331017       2.145068809363845      52.906399380851141
   200   1      20.836226199636727    0.093374231682567227      1.3875390753077685
   201   1      20.996262481497293      1.9757347152331177      2.8914788739666295
   202   1      18.861227002109718      2.0249777598625003      3.9492360679347946
   203   1      16.832276461239367       3.999175165990406       1.372584911201832
   204   1      20.923366092325519      3.7162138896969243      1.6256475324017612
   205   1      19.067809891984311      5.8385246104373145      53.116713808837467
   206   1      19.348332988025959      3.8251326566503572      5.4777803955247313
   207   1      16.981098045868865       7.923068307894618        1.53370459721592
   208   1      21.224329216819221      11.502871289472598       1.317406295127227
   209   1      18.984028152313545      7.5894451822618345      5.4356803810783019
   210   1      18.864894388305366      5.7252441217373358      4.1313261720820051
   211   1      19.251977806152457      11.476639830048068    0.022492829541499768
   212   1      23.284825055704967      11.719507707189759    0.081996983059593728
   213   1      21.418463242301556      13.113714370590253      2.9245282298485233
   214   1       19.10397983219044      11.820733327665444      4.8545007471759867
   215   1      19.296498901882277      15.448294140248029     0.29234355856843902
   216   1      21.019461650446079      15.538233692663342      1.6549093046899428
   217   1       23.37530043550861      19.175140639563022     0.41786346935949731
   218   1      15.763386498365891      19.559212433430034      5.4537557694413632
   219   1      21.480051956777405      19.247500304823252      1.5277331142196668
   220   1      17.210996715477368      15.862449840424441      1.3936723794574819
   221   1      21.372371846689873       21.29941028977991      2.6832251518352557
   222   1      23.227387328029216      21.212825309645019      4.2064505240054277
   223   1      22.862283732721334      25.155295939600901      53.089823817554773
   224   1      19.365393620451133      23.292363235681709      54.064528640563694
   225   1      19.485320361953885      27.097116289349092     0.15248243039269488
   226   1        21.3795595246586      25.030900073039088       2.798057770693902
   227   1      21.355477429851831      27.073893204243113      1.5298100512662478
   228   1       21.16817228508069      19.113736263294943      49.959074835355992
   229   1      19.182671109653491      32.884966128849278      4.5856516272455323
   230   1      21.098479896464827      29.102456683464798      2.9396897997845017
   231   1      19.395212485995934      29.314796091012841      53.404414118626946
   232   1      23.066514014177056      32.722244888020803      4.1584389552821079
   233   1      23.026085036122883      34.544976797802946      53.979635750782229
   234   1      17.240224397305031      34.729499724708297      1.5673888058161518
   235   1      19.045730019575096      30.716119296622381      49.175940536932337
   236   1      15.247962299825856      34.738646053777472      0.1000233090085543
   237   1        19.0771121225578      35.008206396506139      0.3350104796813978
   238   1      19.050261339260967      36.663664521111684      4.2577981081921141
   239   1       22.79884574511161    0.091009765674114548     0.18987653081887845
   240   1      26.582840987180202      1.9290534187097121      52.969981748975343
   241   1      26.744105151829821      3.9187988432466052      54.258882573115564
   242   1      19.361832348164395     0.18795312129890146      5.6530176263843179
   243   1      22.719966199228963      3.9917274479029765      54.143663952201663
   244   1      24.673583512624624      3.7915343582517793      1.0548197178504986
   245   1      24.744140835222275      3.9847400729748164      6.3997813726192749
   246   1      23.077973162245559       5.954665693156862      4.2538097517555817
   247   1      23.098002741864939      7.7011307457713043    0.025616088878825875
   248   1       25.00722985032667      7.6774422132540199      1.5697121896527146
   249   1      24.714386600046421      9.6481846090293377      2.5280465463738686
   250   1      21.202417507909288      9.5730565968662606      2.8594679743789229
   251   1      23.278700732654787      13.369711965121466      52.888596736982016
   252   1      25.095874571599012      11.861093689098448      1.5839763520470795
   253   1      25.003012731748068      13.588195536040207      3.0307585689780909
   254   1      22.868422606095962      8.1038886092862654      5.1381511536546087
   255   1      22.912250635530505      15.241490878662715    0.055805463955050559
   256   1      25.006380750404009      15.113316300074619      1.2749132853027958
   257   1       22.90408970832074      10.015812758635031      4.3328713163963446
   258   1      23.200908436996052      20.929510820870217      53.307938523387591
   259   1      25.323030196907798       19.12295211350942      1.7325036396767146
   260   1      26.920181578017939      21.402299892925232       4.197666672459901
   261   1      25.284787532353885       21.16080854298399      8.4837226163947452
   262   1      23.024766061141751      27.024325971348254     0.21603356319509434
   263   1      25.068528234656362      21.132430881121895      2.7639421951461132
   264   1      26.913973190377398      27.179751398359208    0.042186566805060048
   265   1      25.178573639393992      23.319427522197753      1.3469755538961525
   266   1      25.088738103958416      28.916429695270224      2.9678073147672399
   267   1      23.146801907873485      28.715125465231871      4.2715415454518713
   268   1      24.844502169695822      30.851089165008055      1.5774682802303346
   269   1      17.226518817649584      32.759022456480679      3.0862820617562639
   270   1      19.209955911590942      30.571288325354832      5.4340603406481875
   271   1      22.969276114045755      32.627370588629844      52.876745349860087
   272   1      22.701672195877599       36.70401870062166      4.1892057512296441
   273   1      23.112496641025359     0.37733229566592885      5.4505845145106937
   274   1      24.918871356164633      32.551393278852736      51.347236132632545
   275   1      24.831026599938589      35.255548336907182      1.4240084679213982
   276   1      26.865853407573209      38.329621330047061    0.080501106705207631
   277   1      20.883618079486954      36.722515313492885      2.7214947598803985
   278   1      28.612008384611705      36.432784223882535      3.0353265651730794
   279   1      30.854381363335992      2.2164176950859478      53.040169029815459
   280   1      28.696030808777852      5.8815760370066261      2.6847346374863363
   281   1      28.724703769628448    0.027899216563977581      1.7318332786650008
   282   1      28.846321637881658      4.1439505241812142      6.8158942155286812
   283   1      25.121554860040909      5.7780006443149379       51.82423529269105
   284   1      34.508830553759509    0.047759796145776037      5.5788119592596956
   285   1      26.740280604420771      6.0656699322765659      3.7706128835978938
   286   1      26.776034407036736      7.9138263935139967      53.991239286295539
   287   1      28.712286155578671      7.6082990554883674      1.1395826499321953
   288   1      30.624825996705948      8.0217556176043541      5.5411849250753935
   289   1      28.748660314397302      9.3949089738888247      2.3460165920204519
   290   1      32.753075053157765      7.9313271229972546      6.5284421549911125
   291   1      27.462755891460947      13.018592395581374      3.9902997369308641
   292   1      30.714181609380812      13.525180552533049        3.87593639513676
   293   1      26.577056282773764      15.303583279822893      5.0992902900889696
   294   1      26.747438560956731      15.697939226952553      54.174716584551938
   295   1      28.879473344377772       13.46003661563226      2.2181409149277531
   296   1      21.132869462493034      17.415464049062052      3.0316911228971679
   297   1      23.324028942011559      19.234577586672494      5.4254632325628585
   298   1       26.81629204632895      17.616622826949428      53.087829312231243
   299   1      28.632695414425189      17.275441958100352      2.7690199372318238
   300   1      28.872178468879429      15.759392113502317      1.2519168693613687
   301   1      28.888854762340753      21.069199189881967       2.773085251504936
   302   1      26.951381937396469      21.265507013695373       53.05347468748031
   303   1      29.048392209478205       23.07521924805307      1.5575664967726679
   304   1      30.669416055192094       25.29144634426228      4.1599494485159534
   305   1      27.241408464169194      24.948035482383105       4.263495072607677
   306   1      28.753915498478317      26.874520670670123       1.349855993022878
   307   1      29.053296305052285      25.079473379646604      2.5773773969343203
   308   1      28.490004603271089      28.829193051132268      2.6119033992783693
   309   1      26.912442778448757       28.96708063138934      4.4235056103212607
   310   1      20.976207422706157      31.147430477299075       1.744381662241133
   311   1      30.556620068420337      30.869074443249655       54.04782469861523
   312   1      30.297161337239515        32.6334659825012      4.0152431979327634
   313   1      26.710535514967347      30.602738127591131     0.36501902430488814
   314   1      24.855861433668075      36.930556334151596      3.3116579675364619
   315   1      26.789195163886184      34.681007911716655     0.32800335534948294
   316   1      28.709914934792188       34.78470845786309       7.011686247376633
   317   1      26.962342771202447      34.633656592321884      5.4218764100767229
   318   1      34.430041660904067      36.733011973080366      52.671247543863942
   319   1      30.748679201881362      2.1475329028263901      4.2828962838453064
   320   1      27.239496015491486      1.7797147791306613      3.8019870414386316
   321   1      30.471175552696248      4.2431832478199221       54.13908372355786
   322   1      28.622816093493302      4.1388056607993118       1.161327918321319
   323   1      36.642223218812347      4.1624416740627339      1.1005404917450976
   324   1      30.822017498518267      5.9909255690978203       9.379774504393847
   325   1      30.462426253632412      8.1003261574512777      54.154880928285031
   326   1      32.560536994389466      7.8845786927589518       1.324702666740551
   327   1      30.614460431529057      9.6919248665210667      3.7962120659344327
   328   1      34.569830773176065      13.724404418790945      9.5808118102051907
   329   1        28.5649156583716      9.9599229972325123      51.533790104427162
   330   1      30.730634740781685      11.776778287763566      53.916077711405855
   331   1      34.846700475284905       15.49303035969967      53.912906244392005
   332   1      30.492549688302148      15.654964667329198      5.6223811364899685
   333   1       36.58850122486966      13.731264817565378      2.7633838067359067
   334   1      34.261284663782313      17.418947668547979      4.1188909229459467
   335   1      33.139966225408543      23.576081308135013      1.6491038307304851
   336   1       26.73745948656752       17.14525057691543      3.9872968109299927
   337   1      32.413936780675506      21.315006889355605      2.5193320868091202
   338   1      30.705072911748271      19.215402404702729      5.4878180144278375
   339   1      36.106228742629824      17.406483145722476      2.7452549664774666
   340   1      28.901291448805626       19.21233934539493      1.1916010731951929
   341   1       31.12431631985848      23.146535621292166     0.38411775864061604
   342   1      34.912777649020576      23.227457370462222     0.16534088098718458
   343   1      32.912979364416898      25.598977147505945       3.375140702341298
   344   1      30.669608060004705      23.444458658564049      5.3958224894271307
   345   1      30.757967212944529      27.075826593868484      54.142087774037122
   346   1      32.575660467346459      27.036330948471761      1.5888835896578943
   347   1      32.534832493613173      29.189485237340048      2.3497681213757451
   348   1      30.668558896153428      28.984215485247145      3.8615653053761108
   349   1      30.432433556071864      28.874371695144099      52.744967392118852
   350   1      30.899157637492866      36.742226731502726       53.33944036723237
   351   1       28.73522228468012      34.679444312035884      1.5725995452274419
   352   1      32.325937302035172      32.411460720320768      2.7372777423835695
   353   1      30.803401635756529      36.361928841303232      4.6797568607618141
   354   1      36.425139097650082      32.708331578516692      2.5432812716371482
   355   1      34.618707810162235     0.04096223244128834     0.22482882126221307
   356   1      34.735772929094878      36.582285308946254      4.3038885349713043
   357   1      34.695058030151465      1.9497458491658761      53.075569440693513
   358   1      38.363402198265852      36.460496247390957      52.920204011131489
   359   1      34.214252570794599      3.6880702515635768      5.4487455886197633