dump/Si_1400_20/steps_81 (written by ASE) 

3980 	 atoms 
1  atom types
0.0      38.395898218429522  xlo xhi
0.0      38.395898217999999  ylo yhi
0.0      54.299999999999997  zlo zhi


Atoms 

     1   1      38.177292743276489      2.4203439956695179      52.507911221551318
     2   1      2.1765460609442302      36.957658515475366      2.8780473198298973
     3   1      3.8283926678911344      2.2627995127943099      3.8081897157345335
     4   1      1.7282892736300151      4.1582859621770503     0.98372762760390275
     5   1      36.269115575279876      7.9266487472799705      1.0921446728348068
     6   1      1.7000526466603909      2.2878526135515505       2.568182801228569
     7   1      3.0840449035434867      5.8499131918819964      3.9909895029436702
     8   1      36.276536250402131      5.9580269979620279      51.427879234530671
     9   1      1.5170326559355056      8.0530218323884952      1.2250601662965683
    10   1     0.02580291046123525      12.116720288343398     0.13042367981925032
    11   1      34.477210231340891      9.4301309500661503      4.1484828800847797
    12   1      1.7663292049567147      13.863399086807572      51.224513526460846
    13   1   0.0071259715850340976      5.9059819296545495      52.672853030597288
    14   1      1.8440764692769871      12.097583348672286      1.3625511680837936
    15   1      33.929102025500789      17.417994558943036      4.1542535792684454
    16   1    0.093019160137599491      15.526222689197986     0.08664702357566513
    17   1      1.7299556388543296      15.576132576599507      1.6395939927327954
    18   1      2.0179372917131397      13.856189171026266      2.9987112648540006
    19   1      36.533528580488436      15.554088093074713      1.7004585513840291
    20   1      36.624526308168434      13.537691073974489      51.681196018631958
    21   1      36.158215921278192      15.720063229335695      50.365348443283473
    22   1      7.4597616797155357      19.644176255584217      54.224924603388786
    23   1      1.6369586248751822      21.271415332641922      2.3737023910108297
    24   1      1.6451606797158087      27.239916553679048      1.5440655093132718
    25   1      36.665554976579784       24.99960521158599      2.7687233722632385
    26   1       3.866808322994566      28.927249995887024      3.9085404094138441
    27   1      3.7259797469013427      27.024872288998679     0.30866961404358317
    28   1      36.433187549691723      27.544042069448363      50.323945682096209
    29   1      1.6320355250602812      31.016967843935525      1.5127912790588547
    30   1      1.7020612133149999      32.762185281756132      2.8204243588547477
    31   1       38.12213001526284      28.995004355019869      4.4073123867671038
    32   1      2.3419800903609538      32.976054498271715      51.451282919166594
    33   1      34.941644583277743      29.018132719367696      52.904769022866503
    34   1      3.6744309725309692      32.869179791375203      4.1203662756977346
    35   1      38.031701926450474      32.805730428625836      4.1594943884189322
    36   1      0.3684133180260778      33.058216061974854      52.686630573754776
    37   1      1.7264611012242759      34.823497473158881       1.823339078706649
    38   1       6.064297845943206      34.622959086342654      1.7303502834357125
    39   1       38.38894840025101      36.866430489467092      4.2876278424299112
    40   1      3.6388265716552235     0.56430584022454455      54.113822819914986
    41   1      9.5489912628814544      2.2864147511980342      2.7491794131874574
    42   1      3.5836326697670335      4.1127819443974882      5.2817034405704826
    43   1      1.9770580817534917     0.13458414885591066      7.1173791419820818
    44   1      4.9247270377125938      5.8379769349414028      2.5784645340279759
    45   1      1.9964762301491192     0.26046833683805132      1.4449887182569805
    46   1      7.0378382150319352      5.7399417923527674      3.7745160886145177
    47   1      1.7651613783833193      4.2692031256284864      6.7144955159492357
    48   1      3.5288552647043443      8.2168849662283066       54.14000303183699
    49   1      5.3640004463128355      7.8142597824833686      1.3348262762786378
    50   1      7.7575001734576894      10.110861189182611      53.237335395435743
    51   1      5.5196071239823867      9.8599629058544735      2.7580864522833179
    52   1      3.4449027021314063      14.009229996801446      52.809292342083765
    53   1      9.5136033482485658      17.660445250143972      51.444574606704364
    54   1      7.8417446465642389      13.775509107838408      4.0447132115374052
    55   1       3.519327022540828      11.670267132216416       5.353344103001052
    56   1      7.7141908121350733      13.821369589096591       52.72978606840551
    57   1      5.5375444190511391      11.940514432795206      1.6932867507958349
    58   1      7.6998861439180954      17.518681522005139      52.897546849081927
    59   1      5.6096547346359724      15.827341028238038      7.0406346266522943
    60   1      3.5763549357432347      17.067544982399536      4.0481225740366629
    61   1      3.5499583887974353      21.545461788100983       53.03211664895484
    62   1      9.5545936972166583      21.484111623884516      51.175206210370952
    63   1      1.6498895889512644      15.024009271099185      12.479462524200541
    64   1      1.7664854722221144      23.355709778585599       1.390012700395836
    65   1      5.7674569423521076      25.174654500746044      51.829742284985038
    66   1       5.723321988375881      23.250728040429532      1.4925113670305794
    67   1      3.8907911019504757       30.97593341856232      5.4507299360029382
    68   1      3.8252661182802625      23.301241986133796    0.064472475427180542
    69   1      9.8057324990510644      27.032460897829917     0.97302751833401768
    70   1      5.8951903017363065      28.842006155028724      2.6270516265873431
    71   1      1.7047675492412588      29.303491996976064      8.1257087421536696
    72   1      3.7822317281124955      31.065368284019382     0.57041968456021686
    73   1      5.6484138712813552      26.925808629114837      1.3366743592405197
    74   1      5.8540086343208699      31.231378328273617      1.5626753632447727
    75   1       3.847639402981831      36.693202333089616      4.2975311682723012
    76   1      3.3759784035156115      34.870431725618865     0.27947054509143099
    77   1      8.1783025683332653      34.807531348557013     0.77956393660842704
    78   1       5.514302094856852     0.39770666281075229      1.0385613901799737
    79   1      3.7314369606196385     0.73129392424724926      5.8143296087773946
    80   1      5.4739460329197156       4.275684177904985      50.219734888004915
    81   1      7.4783916232601202      2.2869726817300577      52.773839249262075
    82   1      9.9028626376153159      34.939712069925818      6.5898680697791256
    83   1       7.871039997496049     0.14289898398122811      54.095258293561912
    84   1      3.6831537710095303        6.40586637196943      52.705757040676474
    85   1      5.5105373287402166      4.4683104649593002      1.0287514383857117
    86   1      7.3285204102358277      4.1366557335799667      54.123279302525901
    87   1      5.6517434412999314        4.09205080384708      6.4925431229159374
    88   1      11.516535100330344      10.126628531888155      52.889666448688679
    89   1      7.1799864527508763      8.2799694194467008      54.275672876936405
    90   1      13.574240951594984      11.674938883248984      1.6522391579114681
    91   1      3.7887710133514099      9.7722779851351227      4.0413646950510813
    92   1      3.9841906170351109      15.775856240278932      48.712761399584501
    93   1      11.597459976581904      13.503021999903456      4.2924199544550321
    94   1      7.5690539081553609      12.126012379948888    0.041495043363806855
    95   1      7.7529670330240421      15.622153267160716      48.747662810882574
    96   1      9.2914238387404033      15.569067534046734      1.3600307930976647
    97   1      5.1643165586368562      15.771206229052543      1.3556377449793566
    98   1      3.4352509825881197      25.067932292887203      4.1364532284481328
    99   1      9.4082692319567762      19.617786690502761       49.91258896336312
   100   1      13.493893645802597      19.351170437627935      1.6427410146989008
   101   1       6.943062483001289      22.939549788229314      48.898117709606915
   102   1      5.3944656099073258       21.23957042269349      8.5458874590536649
   103   1      9.3491568347787339      23.307585311156494      1.4751135130803641
   104   1      7.6022005264324992       26.73977331884576      5.4702135951775164
   105   1      7.4442069311039232      25.252470688156045      3.8253555275644655
   106   1      7.7755024521155685      28.795817137927109       3.985767052382116
   107   1      5.1497775649443049      23.511578308546866      50.324363996362486
   108   1       13.73330840979267      32.767304583478833      51.781234411762952
   109   1       9.645548415026747      28.979757830285649      2.6749825909491052
   110   1      9.3988662813513049      32.778604186482731       2.171691855664553
   111   1      13.598022875167056      30.677043733843526      1.2656174347799063
   112   1      7.7526727014747951      31.212485250713438     0.14466413860058103
   113   1      9.3592976763911899       36.83713676160076      2.5446642680969975
   114   1      7.6834685802093352      26.848094197694849      54.278722777715593
   115   1      6.0395645693250408      36.673060333080116      51.806407705446063
   116   1      11.408227166426839      33.206935255074747      53.243428521868658
   117   1      7.7483513416318006      32.552419979071239      4.1097301169592111
   118   1       7.874588940220228      30.465975624542828      5.4327623353212173
   119   1       9.882263844021363      35.200624890273559      50.099840138506593
   120   1       13.38337993767248     0.39499030601901436      1.5594054824015962
   121   1      13.261155096516296      36.634677956215796      2.3144181693039489
   122   1      9.6843705606696027     0.46644872391829323      1.3926606059356821
   123   1      13.166195301140664       4.014893079432361      1.6180830546946037
   124   1      13.837559491699524      2.0968516062182951      2.9606492470260721
   125   1      12.949661965151193      7.9761982845934352      1.4732430699162042
   126   1      13.024474958588117      6.3311142782843222      3.3031580697265226
   127   1      13.351576153468828      9.8658781534500708      51.565175322047288
   128   1      11.125759282772465      8.2320238584673078       54.29416975872423
   129   1      11.670187424592932      11.646957101561684     0.33103886776546015
   130   1      9.8645206688304192      13.929991202750747      51.763837926897807
   131   1      5.6727711779001249      11.974275659771521      50.425332982827335
   132   1       9.440289049466525       11.98068136331726      1.3038283310030137
   133   1      13.474847818590538      13.537960440561696      2.8920839193806511
   134   1      9.6452817735853387      13.795281741545796      2.6600337071413156
   135   1      9.6682565069446138      17.471520284474874      2.8827685433373751
   136   1      15.278187718239485      14.916636010243316     0.39930754410398778
   137   1      15.288442314511805      17.706460687664045      4.3236211790759613
   138   1      7.4141774131350342      17.197779013162695      3.9900138149275257
   139   1      11.793407653771494      13.706939541089771      53.342600358371875
   140   1      13.681057716953736      17.504079192276937      2.9697643615029037
   141   1      9.3095367793135093      21.433526515243454      2.5275164810836741
   142   1      7.7427741687891594      21.112033144051868      3.9867511692050357
   143   1      11.579107050266851      24.820086244891264      53.267209842781376
   144   1       13.45980615335824       21.41237236047721      2.7562911399368542
   145   1      15.732642732365914      27.089103096465063      54.261679622334391
   146   1      11.426789221599165      25.392963141715153      3.9995171374694576
   147   1      13.344539349744085      32.543256855789345      2.5016997390047218
   148   1      17.515107405098796      27.236018720659725      1.6429373229263864
   149   1      15.449956982911129      26.821393938909839      5.4997291854088779
   150   1      11.506406390209252      28.638707581639412      4.2775951326553825
   151   1       9.970306308030267      30.636419016622728     0.91681268753885548
   152   1      17.229464485258763      31.112349855667073      1.5506817473640022
   153   1      13.714904943385587      34.372867962867936      1.0710090710766638
   154   1      11.340940138589227      32.512166402202354      3.8362954260739688
   155   1      11.244839040683594      34.951163075838537     0.31825650857489318
   156   1      11.179879772715994      36.467521756869473      4.0201490493772658
   157   1      15.162708106226241      36.884051414628651      3.5320174899339225
   158   1      7.4504048807011989     0.32876376011740416      4.9704157712938439
   159   1      11.513335709660465       36.74563959210159      53.099988688748688
   160   1      17.329080010824896     0.02707717012869473      1.2247050440889304
   161   1      17.580134947240062      1.8565152321987146      2.6590858123195749
   162   1      15.472001013665325      4.2492364445695712      5.3936536459293487
   163   1      15.450131381251669      2.3916346084143187      53.100113565603159
   164   1      17.462626310209053      5.9938109795871721       2.745037453879752
   165   1      15.296623357030853      5.9224139851209614      3.7693581049227278
   166   1      17.238034438096943       4.548154848164919      6.7387629973501708
   167   1      15.117221751948399      5.8935626545983144      53.478145204557286
   168   1      15.060977295629501      7.9774170534205648     0.37112534549825094
   169   1      14.938304380542043      9.7871188126883037      4.6468293780026428
   170   1      13.019736472833348      7.8363000880888531      6.8351561507084808
   171   1       15.05529346194297      9.8281063756692646      53.217146556113086
   172   1      17.356510154515362      11.838134154225719      1.2780248987652258
   173   1      15.261404076041227      13.643553475893373      4.3839404623937286
   174   1      15.007958901922443      15.920346438349084      5.8750623882967377
   175   1      19.246517276113028      15.739996021339772      48.679472907803103
   176   1      17.067283651141747      13.891378384141523      2.7120821460539672
   177   1      13.295897287277095      15.653324868843384      1.6107702439239582
   178   1      16.892146082104709      15.536969860680484      7.2227078008361625
   179   1      17.210176977560145      17.580193162134943      51.453043995987478
   180   1        17.2529668208843      21.416146966407709      2.6089424492090512
   181   1      17.572898999943568      23.325667002495575      1.1857400889747625
   182   1      15.569129555084462      21.381108436292298      4.1042040814936289
   183   1      15.490326190974164      23.457528739473634    0.073752715834359564
   184   1      19.080669993163696      31.005908004354286     0.14687375372594694
   185   1      19.191722614411109      25.182921024341745       4.505890530313045
   186   1      15.720559361704462      23.030726958559192      5.3809815232710978
   187   1      17.567230443319612      25.344270022114021      2.5642174570565763
   188   1      19.107112299294826      28.905536934083479      4.5836626663804303
   189   1      15.336286466872675      28.641862540317597      4.1353261391259695
   190   1       15.45429970821297      24.954352057105766      3.9274667842603548
   191   1      13.634846570428969       28.93923047978576      51.545338976916618
   192   1      17.389563523128267      29.026139927142687      2.8819574554496645
   193   1       15.53933956839308       32.50557203242721      53.007071014607568
   194   1      14.777236663861407      32.739290805609166      4.2420068427979931
   195   1      15.597491965446366      36.597853271203078      53.417248179642947
   196   1      17.458925570884759      32.804566198491315       51.63294065257692
   197   1      19.252919169648333      2.1545748500410671      4.0500986777348427
   198   1      17.289277037157152      36.672216060360441      2.6714460258965125
   199   1      19.351740152475049      1.9832055587168289      53.185615969772279
   200   1      21.188266428850323    0.091898963743039269      1.4382266733214244
   201   1      21.249009375295017      2.1334635831268494      2.7702304050630779
   202   1      18.900334779357316      3.8187417182709362      5.4893688991315805
   203   1      17.339974985601792      4.1565500242292606      1.5007916374172174
   204   1      21.398119506548568      4.1316972417249778      1.3488127675834587
   205   1      19.135247504087371      6.1183332201316576      53.013851833260908
   206   1      20.757182075724131      3.7370878310446618      7.0642219426554744
   207   1      16.984146044767506      8.0769001099236881       1.586976580386305
   208   1      21.212309254719852      11.589855486558315      1.6402968714457773
   209   1      18.610627855980457       7.990331302095818      5.4304940287021557
   210   1      19.001054729849113      5.8400680840269601      4.5091875167184048
   211   1      19.375218241967136      12.055905995462183    0.054377383569703945
   212   1       23.10535130691575      11.821728198361404    0.034954686346850408
   213   1      20.780788162237815      13.870057375386654      2.4128830712246341
   214   1      19.215099420396864      11.917737085213732      5.5955804052745197
   215   1      18.994501119355117      15.725154225203985      54.130090264848633
   216   1      21.263650879883752      15.503366896238708     0.95370938035331143
   217   1      23.477807622403539      21.604188263692073      53.321922454418321
   218   1      15.243058580786025      19.568067633455232      5.7477800122683425
   219   1      20.859474704021121      19.206644139086766      1.5543052888429203
   220   1      17.273810634591246      15.710415751669368      1.2541901069806713
   221   1      21.026740234216792      21.246383147021515      2.7726709352190819
   222   1      26.529761289692068      23.444875236781339     0.23538805365980109
   223   1      24.688572932247375      25.399967136203685      52.116480565866574
   224   1      19.794532375809233      25.352592485763633      52.879185474471122
   225   1      19.312231090228014      27.155644442781444         0.2938623588366
   226   1       23.34479581128317      24.992641094635562      4.1754224898537045
   227   1      21.613024172860793      23.407379051847208       1.569377119835339
   228   1      21.103594169495565      19.944799363703968      50.103781035954832
   229   1      19.314411414481057      32.803473987112369      4.4036418694017945
   230   1      21.062370176349241      26.984459567232285      1.7584666752673026
   231   1      19.277396463494039      28.836500956836609      53.159117693207392
   232   1      20.892087986492889      32.371305939348559      2.7575001280408507
   233   1      22.792939348288069      34.481896664182166    0.085644808968970879
   234   1      17.355711086573031      34.320134946236763      1.8711433315371997
   235   1      19.360692964518517      28.998690760363136      47.439980918242533
   236   1      15.804955164174332      34.477911882209284     0.21153144177200153
   237   1      19.168273446297345       34.62319966652943     0.31737388279877926
   238   1      18.923862736064294        36.8041770502576      4.2041915232251545
   239   1        22.9867383572035     0.13067636410563976      0.1209456090845149
   240   1       26.66320295222831      2.1335857017706519      52.947580633642481
   241   1      26.760619887348653       3.901472684351063     0.17128394239479094
   242   1      19.236215082351119     0.21611711411535389      5.5048918669702118
   243   1       23.23424644791865      4.5645393471126319      54.107880447763151
   244   1      24.756907442156013       4.080439280151352      1.3914351927554189
   245   1      24.790849069671715      4.2386725695872913      6.9324302820998129
   246   1       22.84511576776249      5.7818230221778322      4.4027076943584236
   247   1      22.851665260924911      7.9872945684983465      54.122102352512186
   248   1      24.635757082243241      8.0356572227516132      1.5620483799120746
   249   1      22.460782900516385      9.6800246268874659      4.2997999155772622
   250   1      20.775710233713859      9.6252726796168453      2.6837445684993919
   251   1      23.235883832923054      13.768760604161567      52.722461003561342
   252   1      24.809404768342855      11.476308224176014      1.5358011784193519
   253   1      24.804654419481015      13.472042062624766      2.8681011414128297
   254   1      22.744200535387975      7.9576343282551312      5.8563643598760455
   255   1      23.292629363950923      15.681440456804227      54.001169720493493
   256   1      25.047501833382071      15.424952985603211      1.5166697359886725
   257   1      22.899614974746601      11.710416337718829      5.3582304918485528
   258   1      21.575146517846783      21.786708466544226      51.748597302103164
   259   1      23.008534919787206      19.639327199485528     0.35418550628447748
   260   1      29.091597544644618      17.514064723961955      8.3413322178127824
   261   1      24.650949990767661      21.021595216445856       8.391456223122459
   262   1      21.146882251024579      25.146674217286115      3.1478003162118267
   263   1      26.802973664901131      21.526696621840369      4.1578426280310428
   264   1      26.737554100699153      25.740800444072701      53.611892549282437
   265   1      24.785272360512682      17.316987838737301      2.7820413813683342
   266   1      23.254396273122619      29.077818932251649      4.0521980278324241
   267   1      20.924129512083166       28.99101125650742      3.1059221551195013
   268   1      26.931527663619278      30.763902646604198      54.131117002942773
   269   1      17.030694975599676      32.415801859180725      3.6105445812094525
   270   1      18.989418004899225      31.004782317457767      5.6186622435773641
   271   1      23.127613411323715      32.211095201407566      53.075198453469689
   272   1      22.719909129454507      36.407424264075516      4.4462370189523881
   273   1      24.959800679919766    0.015543486527263816      6.8800034029689634
   274   1      25.070058595871163      32.808943308859519      51.558836595928788
   275   1      24.973342076491587      34.773465957974331      1.1595148581248287
   276   1      26.838965799337032     0.13823860495481965     0.11930708272477671
   277   1      21.072483975618468      36.497822658912789      2.9890280351718044
   278   1      28.507045461572588      36.623038281819106      2.8144196031877882
   279   1      30.435474518219554      2.0094890998760624      53.267518309590216
   280   1      28.517051564105333      6.0493462209358615       2.788351043268563
   281   1      28.485010551860494     0.22433992332139677      1.6353469375223764
   282   1      26.706325229367678       4.095926774060235      5.7251110589281238
   283   1      25.242976117803408      6.4104406402914647      51.950524125973637
   284   1      34.258110663078853      38.233121608117429      5.1490382400216053
   285   1      26.656268911842673      7.6892565099562109      5.9938215109468791
   286   1      26.650486593295316      7.8176954006286596     0.39284707682097603
   287   1      28.583698655117452      7.8891892223800921      1.5688374174773796
   288   1      30.950048760092777      7.8949755915252133      5.4799831664654972
   289   1       30.59876501378578      9.8349779640276207      4.2134333890811719
   290   1      32.749467065726975       7.477213123459439      7.0353842534444793
   291   1      26.860297227841262      13.313772527364035      3.9505501651521389
   292   1      30.464267359775338      13.607678935605856      4.3426223894638971
   293   1      26.840767207548623       15.55226232143052      5.6931306083113267
   294   1      27.093472610036468      15.413586714877194     0.39545236467005201
   295   1      28.791070734087693      13.422171591683629      2.5364051151681659
   296   1      21.157367277480841      17.061706039750945        2.74556109513304
   297   1      22.717732883338737      19.563428309917029      5.6608196401642283
   298   1      26.836926333883937      17.137079729656797      53.070261022374879
   299   1      28.739330934264746        19.4764131800417      1.2062882874097356
   300   1      29.138419913225853      15.688646854543999      1.5107160319183093
   301   1      26.455918202526007      27.358686913833601      5.3750565915503419
   302   1      26.902837926802111      19.098921675642782      54.267825453798693
   303   1      30.921133595405351      21.756483669329491      53.222706749210872
   304   1      30.357233089951109      24.914339277696946      3.8511434608102277
   305   1      26.714392739471993      23.335728389464709      5.7282222335010191
   306   1      28.786228605324087      26.736989761216897      1.0580212879727464
   307   1      25.003960728597757      27.145837769852974      7.0191887702045168
   308   1      30.962925577423643      26.949452523528841     0.18444976413004494
   309   1      28.352669806680296      28.694703480513727      2.7215526867806488
   310   1       22.90870006367804      30.466032839064287     0.36708418540117693
   311   1        30.6683916680139      30.997659691745742      54.103354695277503
   312   1       30.52438533216937      30.668590135331733      5.3789402897513714
   313   1      26.749611729090628      32.690846693276384      52.842540286228882
   314   1      24.855453515423932      36.459479649434144      2.8246215593276678
   315   1       26.90857216444601      34.857939256012784       54.11533576204306
   316   1      28.432348196793544      34.484605514642098      6.8575106867426703
   317   1      24.477367932857124      34.807535967836792       7.276514624201571
   318   1       34.70168560433612      36.747706470451952      53.052392411410636
   319   1      30.525788779799939      2.0437923541426435      4.1935802460502725
   320   1      26.667339515008344      2.2525744963071119        4.30399678180253
   321   1      30.871485645023419      4.0398634344511795     0.17960183574606411
   322   1      28.917170464900707      3.8535056979886155      1.3577280009663923
   323   1      36.440456993432093          3.904587220132      1.6671819366266611
   324   1      30.452044355761345      5.9643812817635684       9.526300236691803
   325   1      30.533427596250387      7.5620693220756703     0.32293921018321065
   326   1       32.60827629490332      7.5872244280487626      1.3546201651414307
   327   1      30.476805298501084      11.630229510880541      5.5807451695104628
   328   1      34.037605185308863      13.456660824840013      9.7712301905242764
   329   1      28.958641565354018      9.7912151862047665      52.040017247317181
   330   1      30.881775366461952      11.899406370896244      54.282812341725801
   331   1      34.482226706810202      15.275892736839747     0.46726227809587062
   332   1      30.964879361524488      17.440863061216195      4.0705962537337523
   333   1      36.624432990949728       13.58402048734043       3.094246356734641
   334   1      34.186450582315381      19.553438095479198      5.4246573597720049
   335   1       32.77406272790752      23.301504850276803      1.3705319932123861
   336   1      26.676780658141549      19.450760791359738      5.3263844860790552
   337   1      32.115692084880934      21.330103236447211       2.528584650077959
   338   1      30.351047227862392       19.38068673423173       5.230312386995787
   339   1       38.11675012213653      17.241217205146064      4.1127685662296383
   340   1      28.530384753123968      21.364376768469132      2.6801682798425768
   341   1      28.704978051109062      25.066012178101651      52.016873661103709
   342   1      36.198416790194337      23.184314711786026      1.1921535226767002
   343   1      30.441902983810074      23.194448205694588     0.63855115165757848
   344   1      30.324314769629098      21.317255162577322      4.0233717365560659
   345   1      31.146753104785045      29.119347739221663      53.039547718575093
   346   1      34.591177054781788      29.082330550990463      4.0288352393559554
   347   1      32.855187231947959      30.331647761864975      1.4016566988738872
   348   1      32.344725791750321      28.891443873930832       3.014156857727083
   349   1      28.386565898744269      30.627882449289299      50.714790194703262
   350   1      28.420966653470309     0.27871068306175945      50.101020994618878
   351   1      28.509941123230636      34.491555331864561      1.5110677181439645
   352   1       32.64897533654775      32.385928649391722      2.5858261279002841
   353   1      30.408464656955406      36.366635477840077       4.023526153832198
   354   1       36.21933934119135      32.568805229101322      2.5397264967202422
   355   1      34.432327204472074    0.096266258427767093     0.10693209988922923
   356   1       34.25092999288109      36.550522693615406      3.6519035931221997
   357   1      34.314689134530255      2.0033815966356796      52.709555303984466
   358   1      38.275409031847047      36.710938569458442      52.714017897252873
   359   1      34.443867099251456      3.7280708591604674      5.0429313236719748