dump/Mg_900_0/steps_31 (written by ASE) 

4000 	 atoms 
1  atom types
0.0      32.100000000000001  xlo xhi
0.0      55.598830921999998  ylo yhi
0.0      52.130399999999995  zlo zhi


Atoms 

     1   1     0.46262683866262805    0.084871563132749461     0.39663418175178605
     2   1      1.4627584811371688      3.0681232563704448       52.06985267045367
     3   1      1.8430550419079419      1.1300929317259998      2.7717442323999864
     4   1     0.17945833845383297      3.3747317807322927      2.5140110027851081
     5   1    0.088940235057850939      5.4700288356982698     0.28178482325360549
     6   1      1.6904959519697893      8.4319835291172947      51.907613226163164
     7   1      1.2130695277097532      6.7474286578529039      2.6417001168376326
     8   1      31.877106320983334      9.1667322061695309      2.5616322654055543
     9   1      31.940720085784768      11.098997203593832    0.079463896482816349
    10   1      1.8257509317316178      14.003140129877785       51.74704187219767
    11   1      1.4799815959654892      12.289029425546232      2.4731743367207906
    12   1       31.84553867239763      15.126808743624386      2.5061542254710045
    13   1      31.986094687631788      16.442953124698423      51.751093799315186
    14   1      1.1363591854621675      19.466437104657967      51.769653809077333
    15   1      1.4865852652364224      17.794714090325986      2.7082459264811241
    16   1      31.988473581640626      20.232451444943795       2.673456895251292
    17   1      31.802431095364934      22.132583594560025      52.083966034000369
    18   1      1.7253444482442259      24.654655772650504      52.004820166848845
    19   1      1.5628391321849691      22.807311836654129      2.5466696011607604
    20   1      0.2203087865129435      26.140107776974641      2.2461304156499842
    21   1       31.57673758882019      28.134299888440129      52.116252127880273
    22   1      1.4547335357188222      30.364064458466107     0.13104532862538243
    23   1      1.8817863765785459      28.536035947422896      2.3985638630976953
    24   1     0.10697127278532656      31.769286182409289      2.8462527443298375
    25   1   0.0060030054680789797      33.619205541561527      51.873056135416917
    26   1      1.5824234421302039      36.190473698837195      51.957936568372517
    27   1      1.5734471100109118       34.35132323707419      2.3786073750497874
    28   1      32.083901694622234      37.028840978845771      2.4093054101163061
    29   1      31.905369748577797      38.758772927467433       52.06224316148181
    30   1      1.4423471046843985       41.50289734334261      52.075734599122882
    31   1      1.5211478341240785      39.698982694246844      2.5485187886510712
    32   1     0.19828893437458245        42.6628788754334      2.7434002347374227
    33   1     0.17993772911517272      44.273525898455482     0.22875839601188747
    34   1      1.8580952084067486      46.930692824201373     0.10453077607460658
    35   1       1.776599951946735      45.415795156928127      2.8195941114023788
    36   1       32.01519400143119      48.151866757902297      2.7269239913945436
    37   1      31.986333994155508       49.95972590176779     0.39007033380490858
    38   1      1.2319451735224627      52.707431690098772      52.083126342825878
    39   1      1.6398374784111909       50.98409801732619      2.9933138669933586
    40   1  0.00033501053028778678      54.008433302139785       2.810004585377218
    41   1      3.3952892350202406     0.11335337684474991     0.19070479077319644
    42   1      4.9338912252826175      2.9112796119084763      0.1706179175046639
    43   1      5.0498000751898138     0.68784687602152206       2.586150721487948
    44   1      3.4972002773885125      3.5222420349576984      2.5481131759052595
    45   1      3.0108709457675711      5.7169387634070601      51.882140600751022
    46   1      4.6511042734518266       8.668771723806401       51.91855855712268
    47   1      4.2541959685455186      6.7114678388451008      2.4611606380623003
    48   1      2.7463212633743299      9.6789386716358674      3.0314273489045949
    49   1       3.211421229221171      11.439813802778593    0.066256286265894693
    50   1      5.0536690341321338      14.074333978695062      52.085092264074163
    51   1      4.7139700797041124      12.117405448179392      2.8571767117590698
    52   1      3.0530978016882608      14.669529864677772      2.3005599525523306
    53   1      3.1236657468998654      16.367475569417397      51.781478883244993
    54   1       4.775197167106346      19.326742671540149      52.119804594285803
    55   1      4.5631619222487503       17.67221344609337      2.4924626585997589
    56   1      2.9634231834076008      20.408541588282848      2.5508412640570977
    57   1      2.8002539994233913      21.920880245449041       52.05794316697034
    58   1      4.7591386340929667      25.043830641346325       52.11033909996334
    59   1      4.9233620600277606      22.730330057440582      2.4225265067150503
    60   1      3.1797909303584366      25.828035850285691      2.4523559229089082
    61   1      2.6583669153063227      27.531034145298001      51.809122744476134
    62   1      4.7993705621430207      30.247108944296389      51.843980258079547
    63   1      4.7931227198059645      28.906159888934589      2.3135497304030559
    64   1      3.5545869275609232      31.463760244158816      2.4144897460785342
    65   1       3.431378863161886      33.436087264027108      52.087551151257436
    66   1      4.9378498486526698      36.276788976601487      51.834498367710665
    67   1      4.5989214798577285      34.297453392986654       2.475488802170509
    68   1      3.2835905584691263      36.891239967021306      2.2476407922649577
    69   1      3.2043708431998272      38.909802456783332       51.99532493758899
    70   1      4.8328085677742392      41.787109656648262      52.057850813935445
    71   1      4.8544979665232448        39.3882900396857      2.8197983489251328
    72   1      3.1392852261648745      42.028936872503643      2.2707233270659093
    73   1      3.3488763150627889      44.344309662546522     0.42778698658907094
    74   1       4.857498336631199      47.347172030358401     0.10929147229625251
    75   1      5.2318123669957668      45.337790108430575      2.9818675681522624
    76   1      3.4557919898310967      48.297917803234164       2.742756431165243
    77   1      3.0343168738503365      50.127559805855192     0.33257650272616768
    78   1      4.7197927016735903      52.833233564718199     0.18170716545208634
    79   1      4.6612530511605792      50.992312282179924      2.7685295036592845
    80   1      3.0099065796842113      53.604997861768801      2.6060191210200951
    81   1      6.7244511357395877    0.055285512072948489    0.034280416902232429
    82   1      8.0866244710069548      2.6726922627804921      51.993703912009792
    83   1      8.1914994093717013      1.0819893104036744      2.7674423615695489
    84   1      6.3097123570398406      3.9607069744265941      3.0080920176564594
    85   1      6.4880465826506653       5.365482495884649      51.832609937909169
    86   1      7.7016200028210706       8.263263415496489      52.004173396711344
    87   1      7.5641689175584084      6.7058260620897778      2.6282639084865846
    88   1      6.0169266243785637      9.6072396964673459      2.5841423624090534
    89   1      6.5360741193608911      10.950893835643599    0.018773677889237832
    90   1      8.0659973145270936      14.038148033811577      52.071571870933532
    91   1       7.784091038016288      12.298092422318277      2.6733544403395078
    92   1      6.1921405944225132      14.751303137691606      2.7908261092028988
    93   1      6.5612369556109984      16.749793133160164      52.062979475764493
    94   1      8.0653214837929106      19.476000806482052      51.657831827843957
    95   1      7.8293943468895195      17.523968628602791      2.3826450158921793
    96   1      6.4437945210625474      20.359679268419722       2.303299848405298
    97   1       5.787418533785921      22.184396866075808      51.837260475439649
    98   1      8.0965573638976256       24.76934883695721      51.755113169561248
    99   1      8.0225070989066793      23.204731956553267      2.4419159078846735
   100   1      6.1985735884517954      26.113335017525198      2.5733646589547297
   101   1      6.6238437273903772       27.85257213940287      52.058181823569434
   102   1      8.2910429899015465      30.459199624084935     0.12745604580165457
   103   1      7.9645135142539605      28.924617247197556      2.6376758951700991
   104   1      6.5371366211205331      31.852518291499997      2.5357490294257792
   105   1      6.6356355116259538      33.006150114028777      51.843492234470283
   106   1      7.9530022989478395      36.255007182442306      51.820979331881119
   107   1      8.0781358965138477      34.381650142167153      1.9670993332105697
   108   1      6.3787029573027265      36.753603201114693      2.3692854244202346
   109   1      6.2457039266986962      39.041302869988392     0.19711038387245128
   110   1      7.8972456719347335      41.683951893950407     0.28478520382339034
   111   1      7.8299606637563635      39.627979023391291      2.6963478901065718
   112   1      6.4470496980276355       42.43613681362968      2.8949030168801793
   113   1      6.6009464093506489      44.563468655141833     0.26254388919099642
   114   1      7.6594125302052278      47.241970166989532    0.061770051492982411
   115   1      8.2170174334637185      45.445685756895479      2.7680189580677701
   116   1       6.319041008661352      48.362728287462176      2.5667271855262732
   117   1      6.4479354574434042       50.05143300864696    0.030146071800524456
   118   1      8.0161503445928108      52.780311591263953    0.026699857538959239
   119   1      7.6581862498101421      51.251010376958689      2.6368222069949225
   120   1      5.9394640476103717      53.788545473581074       2.958428921186067
   121   1      9.7843970571602519      55.448807289432388     0.33864919506796742
   122   1      11.016042878258832      2.6283129282619675    0.053549509848492612
   123   1      11.079988059043481       1.140163264814835      2.9829159956092273
   124   1      9.5230272749590394      4.0243476713070789      2.4691942073220474
   125   1      9.6176699469634812      5.5492022434978603      52.068457929595446
   126   1      10.894239131014983      8.1898568694436644      51.921691362620848
   127   1       11.22478904622392      6.2709097413401533      2.2190776025693184
   128   1      9.2964185678657714       9.182696749083993      2.2909140300968973
   129   1      9.3427123130419041      10.977483754759378      51.909828840363573
   130   1      11.217908879031251      14.093537820148999      52.012282774286369
   131   1       10.74851652419691      12.199729036805266      2.0593246136326409
   132   1      9.3042125156932993      14.781447207065112      2.5704443929422029
   133   1      9.6118698314432649      16.854647077762035      51.985992942872237
   134   1       11.08302813465429      19.701316295699918      51.958948261404942
   135   1      11.179214224517922      17.274756683279708      2.5385833253466057
   136   1      9.5741586653204696      19.850999807969504      2.4607806235613454
   137   1       9.556570977798458      22.135401277154781      51.953316561876775
   138   1       11.08202009705578      24.842732977120402      51.974735574224773
   139   1      11.383055398775895      22.537835800707587       2.360433957368262
   140   1      9.5537902667550032      25.976417152537611      2.4785722386454392
   141   1      10.051411655738688      27.863244573720539    0.021716781925659154
   142   1      11.272566739339251       30.68695913314037    0.048411989181046076
   143   1      11.364122021366082      29.108899879683673      2.6324343556657785
   144   1      9.6902735769219106      31.604453246763111      2.5167845715748483
   145   1      10.065509953720886      33.210144566384756      51.738084368105532
   146   1      11.269114682011182      36.336616542670676    0.046617121953179408
   147   1      11.150197055038037       34.25742759845518      2.2911332551111734
   148   1      9.3651984716207313      37.168903850900541      2.5187194719272314
   149   1      9.4556188400862151      38.947716942241264      52.126210969397988
   150   1      11.131041688590368      41.803139716378041     0.26266400401356538
   151   1       10.76620277725549      39.799201989082349      2.5991764845507115
   152   1      9.1852977067097878      42.621033406855645      2.8131761904651054
   153   1      9.4933838135970809      44.699587377596153     0.43581958509929047
   154   1       10.98177774546428      47.362141301098539     0.14018684942697363
   155   1      11.311459088169636       45.76133315865706      2.7324971294176157
   156   1      9.1981515494844484      48.454334119746228      2.7528037342181149
   157   1      9.6704747976711278      49.860547542595839     0.17607473062102633
   158   1      11.426900260532706       52.89779217062582     0.19853522381546915
   159   1      10.986381178388694      51.251564587968367      2.4377235782354623
   160   1      9.4240633323121639      53.917809237396433      2.9058357596546998
   161   1      12.858274579004378      55.450119046681536    0.041243753380772796
   162   1      14.565240312609307      3.0640716327875088    0.044471810400982935
   163   1      14.110942392578078      1.1373504858195134      2.6616247115406635
   164   1      12.655267795702379      3.9039353300362634      2.7501197826359509
   165   1      12.830137223547402      5.6044178292826894      51.844066630002537
   166   1      14.240607107467275      8.2687292193882822      52.090207929095108
   167   1      14.384210560122657      6.5123710760559046      2.2716539139686653
   168   1       12.31031803354149      9.5273502582387088      2.2927790070344605
   169   1      12.901414895431898      11.455669403344308      51.945616003285139
   170   1      14.414960302053887      13.938106096593572     0.53495157890317047
   171   1      14.519260067859072      11.846096124157807      2.5916560112802154
   172   1      12.237601360676276      14.529316455778659      2.6637860164960712
   173   1      12.981587616132241      16.869052101402765     0.22992390355310596
   174   1      14.465384680280346      19.361751377558857      52.010129282087576
   175   1      14.682833421676076      17.406108266050119      2.5209377207829977
   176   1      12.951463189422803      19.887312282539128      2.2253548834865637
   177   1      12.835247664059304      22.317906411387664      51.903437547401616
   178   1      14.453415085989409      24.690620601305437     0.13561071218432083
   179   1      14.672028741206725      22.696594467768911      2.8631267051881921
   180   1      12.886376450790122      25.760527470699031      2.7208198647243487
   181   1      12.808429866275455      27.172361941906107      52.013834894713348
   182   1      14.156836349109055      30.811306483814715       52.09982906617514
   183   1      14.687481140654823      28.407969506964641        2.53884386186138
   184   1      13.114783548542817      31.710840896702045      2.6029365263153879
   185   1      12.931706624666953      33.575483115364939      51.996647229114231
   186   1      14.406999630301131      35.936916643019686      51.814752579141356
   187   1      14.638645801532286      34.104131101078302      2.1746527566459939
   188   1      12.539765508089122      37.187483824261783      2.4438421368314343
   189   1      12.494782163150772      39.429485835310757      51.963841665316146
   190   1      14.129434864202926      41.976729104502141   0.0084996877151698926
   191   1      13.794876309605064      39.928509364378222      2.5641029983264954
   192   1      12.331700189918983      42.936407216243708       2.816751399130518
   193   1      12.405811589487072      44.491465397932238     0.23025587333404768
   194   1      14.580899866775081       47.10950491698329     0.12881293160066695
   195   1      14.574572451255325      45.124748599405969      2.7562612787505771
   196   1      13.086301865844392      48.410445122383145       2.353629367966148
   197   1      12.843396524217587      50.332958104370533     0.04197048467296096
   198   1      14.469530707187099      52.948330190363109      52.105389185568569
   199   1      14.612807323248456      51.321068233247736      2.5698685578147655
   200   1      12.888038777528205      53.731494507726758      2.7643696640686608
   201   1      15.910890797298972      0.1572011051036081       52.00225048746281
   202   1      17.546436364411313       2.950111284817309     0.14183325169916391
   203   1      17.523558067091862       1.336909081494374      2.4545662041949798
   204   1      15.840875598063644      3.8700787163835924      2.6829142379434874
   205   1      16.498923897776958      6.0243862512289281       51.78487616216384
   206   1       17.30423132273669       8.687333685113126      52.123995820593962
   207   1      17.818647525004181       6.687281395698613      2.6267204209308797
   208   1       15.85781430236378       9.286575672747972      2.6541193113705619
   209   1      15.978411296009767      11.201032125756644      52.024612062378779
   210   1      18.064178513888788      13.454807115953855     0.28806682227774866
   211   1      17.549359976271717      11.798524942209141      2.8967029431984459
   212   1      16.295881527972394      14.436846182493733      2.5552391242401464
   213   1      16.004668087303955      16.482641525464416      51.920325183203559
   214   1      17.787589892668535      18.700281696687291    0.078753458992385075
   215   1      17.723126623603775      17.242136937525203       2.426890893833904
   216   1      16.207470271296408       19.86249840379034      2.6212492779319163
   217   1      16.027758099492686      21.707153450660734     0.38915013615104677
   218   1      17.662734135790707      25.105914211264004      51.850656640916519
   219   1      18.122655489216172      22.706095355240475      2.4048399154786924
   220   1      16.407272490747527       25.24030750217667      2.9741002940546597
   221   1       15.99653629931143       27.67590955629526    0.052845202166866473
   222   1      17.145308384890317      30.459864943410992    0.023252554216343913
   223   1      17.616811006839363      28.749893833184508      2.5961287647325686
   224   1      16.074472387014495        30.9955700191008      2.7102129819595961
   225   1      16.130286291488932      33.476712117439682      51.819050193616455
   226   1      17.386050937256105      35.805979751311469      52.122157080000022
   227   1      17.550457544669811      33.966871199739167      2.4874789242100155
   228   1       15.63762957625085      37.219829784673443      2.4222836893823945
   229   1      15.605690408662987      39.035301668271813      51.979862315490294
   230   1      17.383734154891584      41.568870686995368      51.911824092311804
   231   1      17.132262591864212      40.159601592096429      2.2862744154647117
   232   1      16.011470121620157      42.548677640357901      2.7746593093945715
   233   1      15.952689959463029      44.449098735136253      52.039111391958961
   234   1      17.557476242958021      47.215551174868061    0.013285756250104176
   235   1      17.793597306935201      45.293476624563212      2.3204350704935583
   236   1      16.042192249409666      48.426243711444819      2.5566889991281472
   237   1      15.975860069194615      50.242288124934525    0.061528231549646858
   238   1      17.369560176814101      53.177189667692225      52.110866183293012
   239   1      17.537729533265082      51.197708639181322      2.6385712132136034
   240   1      16.092919221235277      54.111893880901718      2.6533414593416964
   241   1      18.922315321240021     0.18851545368200048      52.031794232456193
   242   1      20.392170536659009       3.033273145705019      51.964759334141903
   243   1      21.069476220803512      1.2603165869053845      3.0316326633686232
   244   1      19.065528658374959      4.0113527901497159       2.426847630990363
   245   1      19.430597782092448      5.8891378777208567      51.731500102219712
   246   1       20.77025957116096      8.5397654094500783       52.08919560431125
   247   1      20.831969760632802      6.9573386931849202      2.4819522419955691
   248   1      19.134975186921576       9.352469364389572      2.7321710532254357
   249   1      19.463398783835235       11.03579389079629      51.662388106630864
   250   1      21.321014501347687      13.698243978853274      51.978693976375524
   251   1      20.733138297930559      12.046629536695429      2.5245179508163762
   252   1        19.4940820607079      14.628775572184191      2.7534832963832829
   253   1      19.565487387895256      16.433372885077087    0.064623055415470296
   254   1      21.111800360369077      19.310476385748021     0.15119969341810954
   255   1      20.752705555390939      17.333497523159529      2.5690024672456944
   256   1      19.303744767932638      19.949387763778418       2.861078901836438
   257   1      19.112366600306842      21.443176747443722      52.057497216442748
   258   1      20.604531398319896      25.303165999089771     0.12913787865653187
   259   1      21.000163688242612      23.341522346122044      2.5860093684695595
   260   1      19.382056958362487      26.370399735625178      2.4769446212480712
   261   1       19.19602448864973      28.202781182375297      52.000365832891227
   262   1      20.713006725120806      30.524807630469724    0.024596738200792584
   263   1      20.902402802532329      28.865377526944933      2.7106114890858111
   264   1      19.007359099113469      31.343146074231036      2.2057392857769766
   265   1      19.497978043641332      33.293619153097559     0.25402639185470399
   266   1      20.552106431402436      35.909024890369118       52.12818691977192
   267   1      20.723667287723085      34.235322445945322       2.836349492785474
   268   1      19.155980086181494      37.057441270447733      2.5909695007443476
   269   1      18.603756531943002      38.757945887725683    0.043710739003600986
   270   1      20.442451474107415      41.648751621720479      52.018903132076751
   271   1      20.503711857791224      39.621185429125973      2.5805448658508485
   272   1      18.984067493600975      42.496189704201164      2.4605324955507282
   273   1       18.91085976005234      44.414180138313725      52.023583011869853
   274   1      20.703995083272744      47.002965199554424     0.10094561063772471
   275   1      20.920953648346007      45.077060707548569      2.8442517255319006
   276   1      19.225045069849852      48.499683936506223      2.3313645363831803
   277   1      19.101144116951158      50.230468113591648      52.093670065585087
   278   1      20.819869640371003      53.064550472438981      52.007443379076427
   279   1      20.535482989152158      51.304777411463007      2.6407179359995072
   280   1      19.223680736945607      54.517434933523781      2.6962983406320475
   281   1      22.077550466085913     0.26315749294172508     0.24673936258958704
   282   1      23.916857538660626      2.9889919708704644    0.062530540578144403
   283   1      23.881899779083074     0.90340423814851356      2.3534920886619313
   284   1      22.501765111997273      3.9719028831098471      2.5574674540758138
   285   1      22.392355414194871      5.9102936113672095     0.16767317461389977
   286   1      23.964677899224256      8.4716001383866288     0.06862630283158129
   287   1      23.954760107786036      6.6259144495360243      2.6562771461351038
   288   1      22.604871210428907      9.4099593966034867      2.4166821516329264
   289   1      22.237655912969704      11.183993422772152      51.725474117256319
   290   1      24.498643928807279      13.796321943277025      52.066260378141664
   291   1      24.105603811721583      11.968621423802974      2.3133234148937207
   292   1      22.695188101514908      14.605838228517705      2.1235818107999069
   293   1      22.371028151765803      17.050680693679684      51.823433887773888
   294   1      24.056779038930724      19.637189603459497      51.901095458187434
   295   1      24.031122949086047      17.354316686742536      2.4070606920157576
   296   1      22.347874265281479      19.906166682070566      2.8396032133550912
   297   1      22.309076108646106      22.394229903163499      51.909363855904232
   298   1         24.354923904202      25.116552607946748      51.748167657549814
   299   1      24.220281224340766      22.779704987945802      2.5835176772336728
   300   1      22.687089463873868      26.133109611174056      2.3397429578675308
   301   1      22.455135570630134      27.737151222866277      51.909214021034693
   302   1      23.711710765958109       30.44516186853755      51.889664200627145
   303   1       24.20015486143069      28.967428036368439      2.5446222258178248
   304   1      22.513320648252822      31.564410284491618      2.5671073546684426
   305   1      22.126885070803773      33.300718108525665   0.0099337096411873087
   306   1      24.219626590031307      36.516423353698904     0.14964461114335301
   307   1      23.808786876274038      34.127656205678612      2.3137652857391218
   308   1      22.434269726789442      36.795392369208784      2.9621002975159154
   309   1      22.030201754151314      38.840547698188942     0.25511427799786912
   310   1      24.281148544407905      41.810868276283472     0.17877509052941384
   311   1      23.908249748914933      39.942366482700734      2.6555055012326854
   312   1      22.523616875566059      42.472731989329823      2.5233515113978098
   313   1      22.429649121594014      44.590245377792812     0.10010521109350037
   314   1      24.037859336264589       47.12701497343312     0.17472603839439729
   315   1      24.196543780410074       45.42817964620167      2.8414365672691373
   316   1      22.349805511509249      48.365154168866006      2.4546766615778499
   317   1      22.195127326892795      50.307762269055445      52.109790313388153
   318   1      23.728152466006645      53.081260180399596     0.15989135561288295
   319   1      23.479681155738785      51.093759396628265      2.3470347406032097
   320   1      22.210252195721235      53.882317366484131      2.7766985079846518
   321   1      25.465094955317873    0.084475263148918511     0.41569193458415732
   322   1      27.017032857630046      2.9749017901052159     0.18538011139650382
   323   1      27.715313670555314      1.1126611252141887      3.0497165496707352
   324   1      25.622698002995417       3.737781740186354      2.8360790829330633
   325   1      25.334401529152547      5.4944398995640169     0.38248486442150675
   326   1      27.124766938701352      8.4746973522471798      51.598939001403714
   327   1      26.949516984671547      6.4665934761876001      2.7220172008570587
   328   1      25.837796570763452       9.321770633013287      2.5277613224968389
   329   1      25.944669641374094      11.149689507785251      52.105545319843777
   330   1      27.449484462473343      13.950283822398323    0.089764265711577695
   331   1      27.308448124910388      11.924838100691577      2.6004099381047228
   332   1      25.751206530641813      14.491741063543033      2.7635603613541426
   333   1      25.594758821908943      16.719125800379654      52.036325327044139
   334   1      27.455263053601978      19.110385089066639      52.019131935206964
   335   1      27.282242172672461      17.419909617154264      2.2993555234294787
   336   1      25.367806220346687      20.019893885041309      2.4259182715985648
   337   1      25.770623928245957      21.906518953081619     0.17676725543965241
   338   1      27.364923911674296       25.07537475767224      51.992396270415149
   339   1      27.267991032558072      23.677768046725944      2.9567747357484837
   340   1      25.982451323728974      26.158831643373514      2.6080051740887678
   341   1      25.995524706683359      28.011961480796916      51.712375319795484
   342   1      27.105607242397802      30.628427196376787     0.11784191007263679
   343   1      27.278680354007491      28.856934957463718      2.6592931347407371
   344   1      25.588227114267148      31.776572057290771      2.6456860238901561
   345   1      25.813149308546294      33.252110207606485      51.699379434674569
   346   1      27.120391472482492      36.042170952654857      51.768627847902017
   347   1      27.425326099161055      34.293678227697249      2.5269092589463784
   348   1      25.722713013587544      37.063234860796989       2.521816517463372
   349   1      25.847616396209098      39.220907237586879     0.26481037962866483
   350   1      27.602381203000213      42.038537081666277      52.077970973389533
   351   1      27.202271842200204      40.035581342142578      2.5485701345903573
   352   1      25.964617720627398      42.826322807849685      2.4851762864397995
   353   1      25.892747239354019      44.579567439091058     0.16592828278916116
   354   1      27.813094455077266      47.441490144059081      51.922274236347597
   355   1      27.416701031521249      45.521421421412796      2.6097051444032004
   356   1      25.384949700858456      48.137528592608817      2.6228968964013002
   357   1      25.357000215846647       50.42538229245141      52.117394056520794
   358   1      27.045152434163047      52.912457784944159     0.34751167846199521
   359   1      27.141665792269212      51.043626045623945       2.636151650610782