dump/Mg_900_0/steps_51 (written by ASE) 

4000 	 atoms 
1  atom types
0.0      32.100000000000001  xlo xhi
0.0      55.598830921999998  ylo yhi
0.0      52.130399999999995  zlo zhi


Atoms 

     1   1      31.887527406770598      55.328528334367007     0.14349292706291975
     2   1       1.598876862627495      2.5217464742789808      52.086127767563156
     3   1      1.7145606604899752     0.86246769895066788      2.7967061881425619
     4   1       32.06656871849956      3.7124704365427879      2.3445250395417405
     5   1     0.34134503151946349      5.4993384860728138      52.098055820922134
     6   1      1.6667603759685825      8.5131127425467685      52.106194620365073
     7   1      1.9106193581296813      6.2436182816291597       2.820262762717908
     8   1     0.21676579126262896      9.0674775944498922      2.5542482196887559
     9   1      32.085503044929474      10.893250880740595     0.11387636871659097
    10   1      1.2006662096737963       13.91295063371251    0.067011089457901768
    11   1      1.7529275875743338      11.804686045894567      2.7310279780956925
    12   1      32.056933980351594      15.028204440659593      2.7196669548802319
    13   1    0.045066067632024871      16.791506531973877     0.24668950737669626
    14   1      1.3607920783426262      19.378633527199231    0.055646281921236024
    15   1      1.7563841439165127      17.760442366001197      2.9378487027699118
    16   1      31.802580269811642      20.833295501682048      2.8126000666796021
    17   1   0.0062117900281137006      22.318204481102534     0.31838654984101356
    18   1      1.2297367651223938      25.111833346295271     0.28864094455205669
    19   1      1.5643148630708885       23.28759678188122      2.8882937539377611
    20   1      32.020184268612731      26.000292000944405      2.5675612206655174
    21   1     0.16004673854247853      27.811348826895138      51.940414386269183
    22   1      1.5218030731851433      30.612354664045679      52.012705438228011
    23   1      1.5740930544211238      28.468855983319916      2.0473632895000691
    24   1     0.32905328615213608      31.226396490826914      2.5059217836910097
    25   1     0.24459217340484182      33.595735397960844    0.093983672627124912
    26   1      1.8505980150690917      36.091275317976923     0.04767456510627243
    27   1      1.7362131271015542      34.049093496185293      2.8602462141968803
    28   1      32.028264262124289      36.984096758437893      2.7010221616116059
    29   1     0.27366532802455146      38.969025146401641     0.46651026798435336
    30   1      1.6058452763595876      41.672314352027165      52.082820468665801
    31   1      1.3815924319128765       40.28021784659807       2.890279331774952
    32   1      31.991925117845515       42.77543777136303      2.5733185983811508
    33   1    0.095141941092199714      44.193876559184723    0.027066996921458499
    34   1      1.5326675123765348      47.058107483392028   0.0017670679844620301
    35   1      1.6786140929191353      45.517639725238737      2.6311875794387674
    36   1      0.2437861501516326      48.052956009937724      2.5238373566983028
    37   1     0.18907700776391673       49.76376012594627      52.117718971671145
    38   1      1.4525612032170816      52.629109650134261    0.059669837777520517
    39   1      1.3598543198999826      50.772574983076431      2.3915474152524063
    40   1     0.15652190868201268      53.495000169478999      2.7593537863288669
    41   1      3.0568187034425618      55.512789831784083     0.18338343262182613
    42   1      4.9557800279184168      2.8156789320493814     0.23560363432136822
    43   1      5.0390508449863685     0.49380230725062896      2.7417512387978333
    44   1      3.4994868364848046      3.6457909448464454       2.453985813715299
    45   1      3.3343705432964676      5.8085714707099187      0.1541836973093976
    46   1      4.8380991242839055      8.3399837867331748     0.12557710939618769
    47   1      4.7908110475752865      6.4789457171844695      2.8948289236345528
    48   1      3.3849396360947837      9.3853402185211348      2.4945461810974487
    49   1      3.4538188514698498      11.050644831592438     0.25330320903112308
    50   1      5.0916038060048265      13.905092369781073      0.1611194629533973
    51   1      5.0193429221095007      12.023206053781093      2.8433186398278743
    52   1      3.2638582163630621      14.377806374130319      2.8835835681495259
    53   1      2.8910246495334162      16.451184233013279     0.21609748407662288
    54   1      4.5815361189848973      19.441253886591703    0.057403986671316416
    55   1      5.3003774007066644      17.700602130605663      2.9445839684045501
    56   1      3.0736827590259983      20.836117606783279      3.0196355311801608
    57   1      3.0656161658417926      21.922315684330155      52.093510092245246
    58   1      4.4126337519657497      24.697528582704294     0.56826239972082171
    59   1      5.0359790930028598       23.31405526108081       3.178897532238774
    60   1       3.045991618650945      25.881482519604514      3.0261035088623243
    61   1      3.1956616716905462      27.444027004957992      52.077803537507158
    62   1      4.4897294765775513      29.969085386869359    0.081792062179489589
    63   1       4.692344248263943      28.608034377528089      3.1652467399412618
    64   1      3.3422387209028819       31.44625301741689      2.5270255755203745
    65   1      3.4584931372385439      33.454144417029028    0.068209597753613169
    66   1       4.845020863073259      35.896538721049225      52.068736808361393
    67   1      4.9123218382708762      34.250390712959835      2.7120887459058038
    68   1       2.932126829640834      37.006081178705784      2.8130594888734226
    69   1      3.2705991568580419      38.962767209400539     0.21638183652408055
    70   1      4.9176943533628803      41.441061158502229     0.19134185774181448
    71   1      4.9347437801395033      39.675730899130194       2.609782122214531
    72   1      3.1759170483623991      42.661694972276038      2.8029492815689516
    73   1      3.6015619264089098      44.462417022006441    0.027510065716234017
    74   1      4.8246569974426201      47.557980997797038      52.090335119584552
    75   1      5.0522016946835677      45.278188659922385      2.3392399805035655
    76   1      3.1859452847843754      47.951666097941064       2.562450148061401
    77   1      3.4786690154222843       50.08443829443128      51.882373627634649
    78   1      4.8745984012390355      52.831665955375456     0.31939654987720212
    79   1      4.8129387056790716      50.733991606301345      2.5122626797898469
    80   1      3.3153393680122272       53.42331418534939      2.7451569210471085
    81   1      6.9057894378268596      55.493240802242163     0.30924879485204354
    82   1      7.9266661941402665      2.5286076965441935      51.829962743636862
    83   1      8.3135117829800311      1.0212902379131734       2.407686615215777
    84   1      6.8366839145936398      4.0103070514893986      2.6051001730720831
    85   1      6.8417797489608185      5.5841434323212802      52.102016027651068
    86   1      8.2640426963475626      8.2510905296906749      52.029001925605378
    87   1      8.1225096751245403      6.5949736048211953      2.5691708659123256
    88   1      6.8594990611116033       9.220179312885195      2.5256982888609887
    89   1      6.8644987312128318      10.876191643863597    0.092988834156796957
    90   1      8.1189435000473615      13.404621420840927      0.4722537911496214
    91   1      8.7092039318504746      11.842765020789573      2.9659319608447916
    92   1      6.4182274510284918      14.781934602134207      3.1435478188361059
    93   1      6.5418065995023191      16.431181194919628    0.037653845455204067
    94   1       7.483724147658763       19.67481527530499      51.932974697026822
    95   1      8.5493740600742711      17.926311695157075      2.4686617712181977
    96   1      6.4793264190987099      20.294894122010067      2.3666065138999319
    97   1      6.2121945429544247      22.161112872648822     0.21604461434084898
    98   1      8.0395202865861695      24.950917986836675      51.975593957660038
    99   1      8.1931330195513148      23.288283012897221      2.6933159305533958
   100   1      6.6377248083528642      25.918565752066101       2.637729792479071
   101   1      6.3647814629625028      27.575658634662176     0.17240783402077631
   102   1      7.8663849069594356      30.418270095063235     0.21384721637556642
   103   1      8.0994054805058475      28.439880472051946      3.0779142039605278
   104   1      6.5401249894150197       31.44443525614993      2.9096339858282918
   105   1      6.4215864115350518      33.129102059932244       0.188485808999969
   106   1        7.93752914889021      35.575163924259584      51.921615877518356
   107   1      7.8557753813247801      33.990342101741383      2.5204213260932549
   108   1      6.6570790659868013      37.097106808003858      2.5660642742013531
   109   1      6.2370238082286926      38.951529662323395     0.14468993611579825
   110   1      8.3945328998686257      41.749703018246265     0.18405224655569871
   111   1      8.1475600024622779       39.67572267584287      2.8861731256437193
   112   1      6.5544338895403218      42.294870003063579      2.8675093072264759
   113   1      6.7045764683113722      44.440401826183162     0.11764615514778391
   114   1      7.8707831181124268      47.281834184236558      52.023944768060225
   115   1      8.1115615755104855      45.178227590285459       2.680074584856921
   116   1      6.5363611912998234      47.874750772748563      2.5975225767241317
   117   1      6.5241655826932989      50.101613474212925      52.012773442000878
   118   1      8.4430324838297697      53.131098366684547       51.89331425892177
   119   1      8.1331329100549024      50.775910493003622       2.631474528096112
   120   1      6.3594233924914967      53.462779330865168      2.6083330298550682
   121   1      10.056540156612224      55.593043791763932      51.855916261441948
   122   1      11.377428904692168      2.5637372818595301     0.13103488712218028
   123   1      11.350645472036351      0.7157786650894471      2.7870571774854955
   124   1      9.6212596630288427      3.7311352565963309      2.5906634962744652
   125   1      9.8368540641188584       5.213399499683101    0.074347357089739552
   126   1      11.270350561332382      7.9090322012822183      51.767675040088236
   127   1      10.846786416340848      6.4408892526312265      2.6551231998694678
   128   1      10.006871414744181      9.3570383911565695      2.5611866904428231
   129   1      9.9413361371943818      10.935280728521128      51.852131344117709
   130   1      11.147974305403004      13.977737454933916      51.995453312734554
   131   1      11.779791709000703      12.478076020696431       2.444649229230885
   132   1      9.5816467388547846      15.085062196766549      2.6135957494514037
   133   1      9.7448961380222201      16.719654232735579      51.991700571682294
   134   1      10.887681813621022      19.520241826813052      52.088854715087116
   135   1      11.476342393675811      17.565557107765979      2.2909712244765612
   136   1      9.5371080584489967      20.441271655299722      2.7196296676843303
   137   1       9.244024029547047      22.195377315013307        0.10396276454935
   138   1      10.696072633890926      24.555506274908254     0.29701782900595014
   139   1       11.44154640816895      23.519830461090084      2.8017564333977965
   140   1      9.4805135054008112      25.969379138232373      3.1634917902382771
   141   1      9.3300513041862683      27.693248962136522     0.24623737123599101
   142   1      10.744034116929875      30.302492721282881      52.073724442509494
   143   1      10.964608264939091      28.438199139398236      2.8590449595897995
   144   1      9.6212946497064085      31.545077755538063      2.5288167636468297
   145   1      9.4139788418080386      32.902212498031602      51.984409189693345
   146   1      10.957032971518013      35.976990522585389    0.050319553674361639
   147   1      11.039604536854149      34.176414196614587      2.3587329895696798
   148   1      9.4303787486058024      36.890640942588909      2.8167500900822198
   149   1      9.3711592050582464       38.86748430759453     0.35356743778910465
   150   1      11.621358570882354      41.797322781074932   0.0087925638136743863
   151   1      11.178251006650662      39.243804777658383        2.75719723840588
   152   1      10.155257472005678      42.296500346875888      2.6785271078565236
   153   1      9.7223308893394336      44.367398627343206      52.117305964988432
   154   1      10.686802211608335      47.027376208902794      51.870401434073038
   155   1       10.99233847511892      44.822140687751144      2.4916065217914714
   156   1      9.8735152925102891      47.708887068325936      2.5219381067795417
   157   1      9.6573162071422605      50.034992512429049    0.032206089313325609
   158   1      11.722187750855918      52.421436478070653      52.105243503796238
   159   1      11.312752641618037      50.854774684904811      2.3926999858554265
   160   1      9.5930239278126095      53.508411079286283      2.4002955115583968
   161   1      13.093179865215152      55.278859280967929     0.23683767435395664
   162   1      14.416058118965223      2.4853960397119179     0.14620207566909083
   163   1      14.292745137077544     0.98788071830226487      2.7343436463970061
   164   1      12.824882051888277      3.8869026601753935      2.4350923924790377
   165   1      12.978204867514615      5.4359164822704287      51.978272334747267
   166   1      14.727599137087102      8.0872180586974949      51.762612083319652
   167   1      14.523041420412252      6.6463039558075785      2.1643336908419357
   168   1      13.120187616517253      8.9252327560201756      2.8176847958178985
   169   1      12.892281905466465      11.199278061480143      51.854376674379502
   170   1      14.054112458875675      13.671169544665046    0.060358064923943612
   171   1      14.891087195190549      12.008584387364388      2.7468174572052901
   172   1      12.922130204465891      15.227309499211026      2.4999022924319259
   173   1      12.926150773433108      16.408702764990846      51.659612354281421
   174   1      14.104542463815733      19.298473896117404      51.841498816522531
   175   1      14.394483500697794      17.989580354327984       2.030402340986746
   176   1      12.864701018385912       20.50585559604221      2.4143902217757542
   177   1      12.547610749652428      21.830391107591122      52.059500195221645
   178   1      14.055271261697028      24.829821658105828      51.996921610513184
   179   1       14.31750670324082      23.127814494665181      2.4849394427812408
   180   1      12.811367264542278      26.110336894429537      2.4880513051245394
   181   1      12.325679754079793      27.548985131375478      52.002006827142012
   182   1      14.204204790708063      30.600946362691626      51.931767549441417
   183   1      14.411445164356749       28.46556683572836      2.4554147242906823
   184   1      12.516787682192215      31.152449373044981      2.2918164136551011
   185   1      12.607086051631772      32.949853084481788      52.000394775373145
   186   1      14.357985554247318      36.295728465975841    0.086058165295991515
   187   1      14.138784785075565      33.848904803657369      2.4538436229982126
   188   1      12.759242244315679      36.859262704385671       2.671897943479089
   189   1      12.800503119969994      38.665736834094048      51.894349045160126
   190   1      14.531404495647962       41.78114034366552     0.24997378790851169
   191   1      14.153812500347426      39.563633632763249       2.603210441989027
   192   1      12.971347128864958      42.464971347645282      2.8927525735544974
   193   1      13.295061416306094      44.485233752629711     0.22478132558507738
   194   1      14.505009919283353      47.232757754193486     0.17931103393612266
   195   1       14.65887851778133      45.373436673837212      2.9710588104919089
   196   1      12.753288623051347      48.073255012901448      2.8521099297850454
   197   1      12.830596549910105       49.92252492304258      51.912440614051263
   198   1      14.655009797710687      52.273585890799893       52.03691017243009
   199   1      14.410809533539014      50.907746819004132      2.2641891392071973
   200   1      12.990213994048363      53.582974053698067      2.6100666849060112
   201   1      16.387273967519992      55.491717701577869     0.25918470926183423
   202   1       17.71734217063047      2.5976115409887517    0.001577567225010441
   203   1      17.818275249008693     0.78989798653939458      2.7096370403796457
   204   1      16.064785425505107      3.3888565740332464       2.645109688556794
   205   1      16.149624581654727      5.2361966628410208      51.990462472452592
   206   1      17.727231962260298      8.1753800729907091      51.803800110576681
   207   1      17.678880190805742      6.3136471065523585      2.2570951227515521
   208   1      16.171513576063724      8.8917706960317506      2.4930678895331506
   209   1      16.418175338529352      10.706200561109204    0.089284301980825778
   210   1       17.42701050393633      13.915316039454932      51.915109733355045
   211   1      18.189343767059093      11.606419258094313      2.6711634240372919
   212   1      15.871474426944284      14.918662786883186      2.1608481941909634
   213   1      15.924152979639928      16.690537518819873       51.87236020864561
   214   1       17.46556789385647      19.518173101960837      51.964069723551326
   215   1      17.938956367719584      18.011366388150282       2.318440628205551
   216   1      15.901575799495795      20.319937394020947      2.5269106782520376
   217   1      15.955496658933194      22.045053602667245    0.099163705109141145
   218   1      17.313062530889368      25.113967616027306      51.796499580145998
   219   1      17.694299825795337      23.524864440122762      2.2441818733737198
   220   1      16.129565018911904      25.457997033229976      2.3851026628994725
   221   1      15.698982735018706      27.511606044538713      51.977621178836586
   222   1      17.389724136980714      30.534300874428073      52.080364484779075
   223   1       17.55557233297052        28.9798721462939      2.6271346030332232
   224   1      15.796934415538647       31.39928915712305      2.3209253495514708
   225   1      15.799466738193663      33.226366475613823      51.906857079554854
   226   1      17.759712647074203       36.30635005078274     0.11672472825834106
   227   1      17.541475273095141      33.805853967441799      2.5037937399022785
   228   1      16.061610021936868      37.382007534543881       2.497318317697232
   229   1      15.929052742609555       39.17312613243076      52.042799916857703
   230   1      17.944343140615178      41.596649964944042     0.25969673494160572
   231   1      18.032815563274571      39.675183305385886      2.5789317898602326
   232   1      16.409533662077806      42.473760560939112      2.6796562743265948
   233   1       16.02547168995762      44.481801832941024     0.48274015485434069
   234   1      17.855353551716163      46.960766196553223     0.46474147027390567
   235   1      17.619710910717437      45.317571675588525      2.6659085144713521
   236   1      16.181829400905841      47.968478418906273       2.810130692981053
   237   1      16.149358271335405      49.663212761491671     0.18814770079895882
   238   1      17.975307304636708      52.360704784183419    0.075499757713657065
   239   1      17.566272913832041      50.964629140230166      2.7507746516041585
   240   1      16.030632865019385      53.522025898563498      2.5285867451758324
   241   1      19.371559163486214      55.530412783190471     0.11018887035983384
   242   1      20.720619919248975      2.6985995201723587     0.21624865599737197
   243   1        21.0838857590247     0.87030898187282035      2.5514255702553119
   244   1      19.381798837416117      3.8957041182805989      2.5617397257666212
   245   1      19.257763928966437      5.6196350296796611      51.752820192884442
   246   1      20.728592423795686      8.0501965798414563      52.030677182362219
   247   1      20.908904561314934      6.3890449744380637      2.6104850328328086
   248   1      19.346999665437735      8.8505961527149299      2.3225474243890623
   249   1       19.25832512931672       10.93756574357832   0.0091153478008516725
   250   1      20.518839086714728      13.645072868180655      52.030493357305239
   251   1       21.03267826141553      11.915786040155862      2.7217569925896421
   252   1      18.682199037674177      14.939578307859437      2.6422108270269549
   253   1      18.997387220042874      16.776230517036254      51.851211473943721
   254   1      20.940518583763062      19.397514438894412    0.053833280558604847
   255   1      20.848110580746461       17.43564879074528      2.7945994899030033
   256   1      19.195866171704395      20.687111541159044      2.3626040807074888
   257   1      19.259920527729822      21.963658211107454       52.04008301046062
   258   1      20.650289575133424      25.313192875508552      51.723937347478532
   259   1      21.349496505524431      23.471465550167856      2.8261587232506682
   260   1      19.262238969452643      26.220876817843745      2.6638929473859463
   261   1      19.028077226991041       27.82289396747149    0.010554390146590877
   262   1      20.751159436755522       30.58543369126669    0.067983399423830512
   263   1      20.902796246498575      29.027285172258196      2.4628114315037943
   264   1      19.210192046211183      31.354914276740537      2.5099277279022489
   265   1      19.014614123448602      33.355042186497165      51.937163845092876
   266   1      20.558151735431831       35.94704840376027      52.000859400156685
   267   1      20.454770702831116       34.07030562942623      2.3821189436243571
   268   1      19.439416493751654      36.839122443406431       2.447173245352678
   269   1      19.451881601922612      38.715013275775739     0.33748461876995678
   270   1      20.950646552158926      41.533178560535212     0.23842592685855254
   271   1      20.855563092232476      39.671512610357993      2.6309360789363008
   272   1      19.604072644557643      42.583690621240585      2.8069589833252899
   273   1      19.340720602469432      44.487136789092382     0.19808645907612649
   274   1      20.935518029439539      47.075899303519968      0.1667327116532257
   275   1      20.471243451177791      45.953133608778415      2.7156672291803265
   276   1      19.072706390595808      48.715777641261433      2.8966796746588099
   277   1      19.199129494837837      49.768077386448979     0.09766335644931208
   278   1      21.056277029991907      52.351925166276558      51.884500949715957
   279   1      20.839058017852658      50.748941706734435      2.3914082447773173
   280   1      19.525940247745872      53.809015063148387      2.3744244114322894
   281   1       22.32816206430379      55.593485416527649      51.937121489863422
   282   1       24.01203023851172      2.8512049917219877    0.040421210318825451
   283   1      24.128675887706819     0.74735333570278606      2.5802990797837553
   284   1      22.616686221224874      3.3109103492984042      2.4407657396699638
   285   1      22.430519600443699      5.4690266075490745      52.016629287774499
   286   1      24.500324391269665      8.3679330517713062      52.120554917164448
   287   1      24.097300149158546      6.5151444189444359      2.0709038106126485
   288   1      22.365596764622769      8.9809116073377435      2.8165711963660942
   289   1      22.210814238377409       10.68632719311114      0.1150167102829491
   290   1      23.653871010301426      13.555406848018031      51.959097291121395
   291   1      24.184884980973525      12.000352925966544      2.4564896272330792
   292   1       22.60151986127515       14.87682657760619       2.380492116548917
   293   1       22.33814647983186      16.602904132462481     0.12646441766710215
   294   1      23.905743803072081      19.336129626941819      51.837666944090508
   295   1      24.119473019524708      17.725798749175826      2.6564978378969855
   296   1      22.288389056896573      20.298804590680348      2.7880749798890698
   297   1       22.42356087990407      22.488133189827803    0.080690799165111501
   298   1        23.8992278511049      24.961243600256704      52.020370431171116
   299   1      24.236599308417787      23.530179863206889      2.5736198770218501
   300   1      22.464037310980803      26.099810872288487      2.0818739381576288
   301   1      22.311989548446682      27.815057539528713      51.816751895676887
   302   1      23.977400678245655      30.614250388233216     0.24413350183488081
   303   1       23.80353998241889       29.05210773182942      2.7235823412886089
   304   1      22.235661910591833      31.789028359216875      2.5717309851665342
   305   1      22.094081261555885      33.483079904970147    0.047190141594660041
   306   1      23.728758395792397       36.12953881818131      51.552711446692911
   307   1      24.258685819792845      34.491716024659027      2.0484218846185089
   308   1      22.613959664133436      37.015967229667524      2.6483517424947167
   309   1      22.304411989930369      38.808798550744775    0.076378976920800409
   310   1      23.903177574103264      41.331876107197523    0.053059357861532541
   311   1      23.940457787788251      39.705601263227059      2.6935363986772796
   312   1      22.158346841237478      42.729907223153191      2.6331605405724363
   313   1      22.620649185672598      44.280911081665721      52.084888356647845
   314   1      24.345732472688109      47.293874996163339     0.14567395785587625
   315   1      23.793166851066633      45.447573534649187      2.5498694341409367
   316   1        22.4446011549094      48.479635197232042      2.6230515667113878
   317   1      22.561665025275396      49.827708209652968     0.32233440680966041
   318   1      24.167186835403104      53.047565952401087   0.0048293667184338132
   319   1      24.345501390279178      50.901964465700722      2.8048277814728677
   320   1      22.706773235558789      53.668348339171189      2.5424228191643024
   321   1      25.732039724427633    0.028912806253566129     0.07632082903784565
   322   1      27.551685887559856       2.836000673872781       51.74487613996255
   323   1      27.425874422861718      1.1635016328177525      2.5354602180390282
   324   1      25.824889978539254      3.6269736951431559      2.5495239987388389
   325   1      25.827596452501464      5.2578222116713871      51.923207794710997
   326   1      27.676728799804138      7.9785109269942014      52.099691050741278
   327   1       27.51400893412449      6.1204068694145164      2.3483313362468103
   328   1       25.52961602305475      9.3301038277613202       2.749730822721705
   329   1      25.504526508640449       11.11006441436065    0.049552125132014117
   330   1      26.846825294904619      13.860617494865123     0.17043753326957373
   331   1      27.284030435454728      12.216616453601667      2.5380831944643982
   332   1      25.616145616778578      14.589349526916561      2.7060743644860863
   333   1      25.569701992842607      16.732178560578401      51.853525029257611
   334   1      27.295823046971833      19.094338432774645    0.057165116568603243
   335   1      27.313448219000133      17.232083799621524      2.1767720001031376
   336   1      25.582257009166579        20.3415304449261      2.5391737680802473
   337   1      26.018976211045732      22.291824772363352      52.013318073300852
   338   1      27.115764833240586      24.960885912784832      52.073944147866882
   339   1       27.20072713846421      23.049511120527598      2.7033815894292004
   340   1      25.630798354567094      26.027763171186031      2.7024355802520699
   341   1      25.372520068012726      28.106420316292599      51.936676500674011
   342   1      27.498131142577822       30.59453410602281    0.084813359193219404
   343   1      27.068956976281282      28.490161265696564      2.2271794876401922
   344   1       25.54974128285097      31.728687362159693      2.6205003808395961
   345   1      25.958343162818689      33.123844945732912    0.030841411453183726
   346   1      27.184590831159227      36.118824690598395      51.975066950127854
   347   1      27.439188050561473       34.22140882984629      2.4417611805671884
   348   1      25.622045051057068      37.404509001746241      2.5985196807093209
   349   1      25.629498770893147      38.569729234974062      51.508140974748216
   350   1      27.091446463732854      41.477113245647622     0.10130153984474129
   351   1      27.098951041214939      39.933031719258373      2.6343933364701213
   352   1      25.554460484106119      42.607578358459172      2.5172029774039459
   353   1      25.826150114237567      44.283855336024544    0.032745130244114969
   354   1      27.459233599758853      47.112854732851687    0.079023827062687083
   355   1      27.410711572369035      45.408142054963015      2.4518747554266982
   356   1      25.804500221397614       48.25790539199491      3.1124803226352826
   357   1      25.823521479455977      49.958074578885082     0.29926925221050044
   358   1      27.573348682890444      52.528438127685845     0.11267538212543855
   359   1      27.489458620501978      51.081257942677574      2.6417911221239243