dump/Mg_900_0/steps_11 (written by ASE) 

4000 	 atoms 
1  atom types
0.0      32.100000000000001  xlo xhi
0.0      55.598830921999998  ylo yhi
0.0      52.130399999999995  zlo zhi


Atoms 

     1   1       31.63740473767783     0.11542295798320319     0.04133722387077652
     2   1      1.2906661528099557       3.033208562979433    0.044112255881836884
     3   1      1.9036408937187159     0.99048529063847757      2.7537654387171759
     4   1      32.049517541371806      3.3831731740414144      2.4850291215300091
     5   1      32.092162502826511      5.7279391582774846      52.094013983312827
     6   1      1.6553130472161699      7.9846728532504256      0.1575691980531419
     7   1      1.5396439569940863      6.3838545672458142       2.962836700590028
     8   1     0.21376425398386872      9.0612113919823543      2.9272632132689123
     9   1      0.1989155705616335       10.92039599604721    0.058684817741357406
    10   1      1.6636692375600428      13.737945234317337     0.37842130111694444
    11   1      1.4543871511504332      11.824248487368546      2.6693590229795787
    12   1    0.028914337903541944      14.931272945240384      2.7145444941206995
    13   1     0.24899599933805924      16.527375428112681     0.66097212930457083
    14   1      1.8167818864177323      19.946882508986729     0.18081882125155568
    15   1      1.7351970586102681      17.805109972460137      2.9588013456438751
    16   1     0.12854306383027406        20.2274257719384      2.9013479493762357
    17   1     0.26564699066947389      22.411010647455534     0.23298187527257397
    18   1      1.6084064424974034      24.857474266310849     0.62349690420974868
    19   1      1.8771961079234309      23.161035364109321      2.8297233685098755
    20   1     0.35663782058400395      26.008887500130903      3.1595649258814711
    21   1     0.28796924392213935      27.871657738285943      52.108135800372914
    22   1      1.9456672559735468      30.728561784204647     0.10875826402938923
    23   1      1.5882788787440205      28.782789243920995      2.6050217008124896
    24   1      32.063081673574288      31.516519816529755      2.9948295166290535
    25   1      32.043789402428459      33.497026751404469     0.38509279320097339
    26   1      1.5839494521164861       36.22391768367627     0.29481042827924575
    27   1      1.5919866173603074      34.420800508477427      2.6829070459327151
    28   1     0.24631215596497469      37.424722910107441      2.6849465924107081
    29   1      31.944323729665122      38.786562269526129     0.02506344437936834
    30   1      1.3707382253969673      41.999500205263068      52.068169389516832
    31   1       1.895664824033215      39.907472554463347      2.6811234932822652
    32   1      31.762628489576375      42.656302926077743      2.4334184863481401
    33   1     0.13725426854431649      44.570060821966436    0.020957783347608963
    34   1      1.7979346593001257      47.198968119850292        52.0946321311853
    35   1       1.917783136121582      45.562710706715968      2.4914971217152466
    36   1     0.29375996001508931      48.445824126751141      2.4653811398765435
    37   1      31.964768024796008      49.773671310891444   0.0071252043762803389
    38   1      1.6949651269327481      53.118323896639019      51.693351157903237
    39   1      1.6283331269145858       51.11474972742333      2.5203594869120716
    40   1      31.989521033286859      53.662587144229178      2.5999775523789337
    41   1      3.1412064540761677     0.23636120040453201     0.21239961266820412
    42   1       4.889230200502185      2.6390508471711671     0.26634396668540078
    43   1      4.9777469050009495      1.3289317281555557      2.8901605302974245
    44   1      3.1861794344370424      3.6417086100102436      2.4289483657968813
    45   1      3.1461516600199286      5.2803711065389312    0.084737405203580599
    46   1      4.8679446109574576      8.2889776906475223      51.932709525095198
    47   1      4.7884149495880557      6.5237643384202464      2.6513691434897337
    48   1      3.3458604580108884      9.1756881477030987      2.8250661442002571
    49   1      3.3244123385024098      10.748583723954225    0.020265913844326685
    50   1      4.3830336817797164       13.61953826879547     0.10616701254032437
    51   1      4.9945011046052858      12.111025694530426      2.2619106007471901
    52   1      3.3138244837916369      14.599892009316958      2.6522185474696673
    53   1       3.117454759323119      16.479409087574989    0.070930026118776329
    54   1       4.846682419518002      19.305957960486669     0.00905279696663191
    55   1      4.8336957336740669      17.705317969671999      2.7936975877280377
    56   1      3.3716594604015353      20.775331170389418      2.4760850069355702
    57   1      3.9062138729010543       22.02893859843001      51.959838728421097
    58   1       4.801147518170203      24.995440514313845      51.785453482325231
    59   1      4.9564534987071518      23.286393886664928      2.3815710272786452
    60   1      3.6615493806725712      25.856333777625608       2.641970835433161
    61   1      3.2256498787171846      27.624585385095305     0.22710052595528593
    62   1       5.213906526688187      30.058747546323119     0.18213658355763285
    63   1       5.130825804590839      28.640200545579308        2.83500107010383
    64   1      3.6278154543872452      31.467225169021383      2.6157665866779745
    65   1      3.2864743301329011      33.293094299439225      52.128414078097521
    66   1      4.8294911942426966      36.339712020179682      52.120520477514127
    67   1      4.7844634849751468      34.435551246411038      2.2618413146369516
    68   1      3.4321289251273916      37.241902393627861      2.6133035761042742
    69   1      3.1175656488703929       39.26824575217784     0.12903954917983834
    70   1      4.6977369036412773      42.008515374834964    0.093953738495731687
    71   1      4.7638138746331107      40.155190392186789      2.8237041709345685
    72   1      3.1503857826093751      42.726787172813701      2.4871031483469954
    73   1      3.3823345154531359       44.64268809368496      52.109473081970691
    74   1      4.6956412758548041      47.665749101693059      51.912694688885814
    75   1       4.762088721454834      45.548510971073092      2.4051782975984688
    76   1      3.1026578509381251      48.192833450860277       2.719188762616088
    77   1       2.931978019716492      50.461561380338352      52.016579246047463
    78   1      5.1658760930054708      52.617447236492545     0.32062524264729653
    79   1      4.7849268334442909      50.651850606635094      2.5017660315404182
    80   1      3.6117774478039322      53.985429509376182      2.3719838527920816
    81   1      6.3226873311679244    0.074446385383039645     0.22403228878642265
    82   1      7.9347605158732017      2.7612045687656801      51.996916727678091
    83   1      7.9894355854638954      1.0392713282142563      2.6039736154117294
    84   1      6.4608532532592458      3.9569371369039303       2.430812513854443
    85   1      6.2297521879859055      5.4223570934933143      51.763214122914789
    86   1      7.8092809882102756      8.0323317912798959    0.055085607452902009
    87   1      8.1958726786797556       6.549183652958714      2.3893271507624982
    88   1      6.2786805116504718      9.2157053908000641      2.2225930090884316
    89   1      6.5263081138789412       10.96099056863148      51.867797651427082
    90   1        8.03124488996386      13.515167289556782      52.083270450589097
    91   1      8.1578476651766429      12.116362002327172      2.5046785854467735
    92   1      6.5557536364905262      14.657768796056153      2.5547615621687414
    93   1      6.1385652795722239       16.51373327361426    0.060457734338065929
    94   1      7.7199411489599035      19.430545292291789      52.101896371735336
    95   1      7.8682007572577541      17.726522053253213      2.4473520076774036
    96   1      6.3797045065803664      20.267012406087538      2.6965758327001472
    97   1      6.7569030632865132      22.366167208917485  0.00069587617642837419
    98   1      8.5070395113215902      24.690571356653461     0.12961500040376983
    99   1      8.0859635052438374      22.978409183462755      2.6150419685767115
   100   1      7.1189256971686889      25.804374746808147      2.6033858820137756
   101   1      6.6423275416681804      27.833786254478689      52.093167542629729
   102   1       8.035713357303722      30.749681948603222    0.065331403018134157
   103   1       8.164136522088576      28.498653316065365      2.8270753044525807
   104   1      6.8407693191566095      31.569253109281217      2.7305292327141593
   105   1      6.3763420191984386      32.948101156603819      52.038931931446307
   106   1      7.7030722472875199      36.193720968278491      51.851451689723731
   107   1      7.8595118265149662      34.251719351054852      2.5494942713370246
   108   1      6.4124717711493568      37.422192521762142      2.5310796415203574
   109   1      6.5600957481185755      38.960983476419997      52.052753898179695
   110   1        8.28205826707112      41.682571374483949       51.98570074704574
   111   1      8.0830390805423828      40.338538645652385      2.8103768087889978
   112   1      6.6235129398813566      43.066381961774496      2.2882188385702369
   113   1      6.4246098263600944      44.708844449478555      51.865673362359466
   114   1      8.1975717182805798      47.148160735980802       52.10731696514128
   115   1      8.1440937986758666       45.69478645815559      2.3032192915029257
   116   1       6.483915476035425      48.292072033377693      2.4498582408949221
   117   1      6.5934669138447957      49.888589920576408     0.11863922011277289
   118   1      8.2632095077348087      52.812736037659569    0.023074377350830504
   119   1      8.2606026866432334      51.099845092725239      2.5582439860211608
   120   1      6.6474687665281973      53.458344525323298      2.7423705386801109
   121   1      9.3327267695041627     0.37293409206149408    0.040723422863749692
   122   1      11.162174330366112      3.0408877581746192       52.04813676525594
   123   1      11.712673940619359      1.1906860825349013      2.7515182415270334
   124   1       9.753067319410766      3.5844391504818476      2.5472874292519383
   125   1      9.6142271694516968      5.4679669032687581      52.034440912251462
   126   1      11.135568614940825      8.6427791466188975      51.751034004929679
   127   1      11.053950936272894      6.1874787057436587      2.3538445243630775
   128   1      9.5883001906885674       9.472610528258123      2.5146272214294338
   129   1      9.5732134730803207      10.995382457458955    0.079229454104306721
   130   1      11.031979858933733      13.722845099522631    0.052921619327484681
   131   1      11.439984350884284      12.005343788321669      2.6356218836428988
   132   1      9.6143220888740988      15.295173825815704      2.5724742602004622
   133   1      9.2023517399811166      16.656660956965194      51.954868105283921
   134   1      11.329072334305529        19.0736240883138     0.10257819742730595
   135   1      10.943903278792463      17.590845539085006       2.745395188071007
   136   1      9.5352354716868479      20.244087256008271      2.5557953466617565
   137   1      9.7952542009483619      21.844078597425316     0.03096800566746525
   138   1      11.350299767640646      25.046711559091943     0.10381937496427728
   139   1      10.809680396850156      23.238058085948634      2.6351678103117373
   140   1      9.9278341015844855      25.931770622743031      2.6037133552456004
   141   1      9.7961391819546364      27.738455984398243    0.022352299607738293
   142   1      11.142128001398071        30.8101184606417      52.086576661272915
   143   1      11.097837825988266      28.907521916416577      2.4323177196755852
   144   1      9.8511014502005541      31.561206031908956      2.4784170221928057
   145   1      9.3273307900639146      33.491261324972214      52.112887243232315
   146   1      11.124702218892701      35.988693935007348      51.879862466863337
   147   1      11.301985763531418      34.350954280857451      2.2852182163279919
   148   1      9.3676580090217012      37.585008051580068       2.554751957807142
   149   1      9.6865910527459071      39.228334502712769      52.113906325685633
   150   1      11.338071290766264      41.748398055546794      52.024528012329093
   151   1      11.550616269711835      40.261452444550805      2.4529112877719843
   152   1      9.4638569393188483      42.953364338408072      2.5226234486135182
   153   1      9.8541800908639008      44.316367083639612     0.24029949858934985
   154   1      11.230923192902688      47.473330340016489    0.094554029758511723
   155   1      11.271416837309268      46.150231003494504      2.9858560563968242
   156   1      9.5295275313381147      48.437632886883208      2.5801365881354257
   157   1      9.8513759339671338      49.760459743938355       51.88755339955631
   158   1      11.436633996283572      52.745514342132317      52.021734114744469
   159   1      11.182775962572446      51.411820832861082      2.8398537962157619
   160   1      9.6201868648213633      54.053297366880152      2.3864245076198825
   161   1       12.89835219221712     0.26101583607669815     0.26144270435361183
   162   1      14.165069611992841       3.010357003843168     0.10534092092087161
   163   1      14.688045179518678      1.1093029962075471      2.9944817640267343
   164   1      13.003013597071226      3.9560490790386731      2.5671828459493726
   165   1       12.56608812462375      5.9230497056055906      51.811037305048799
   166   1      14.483279600714784      8.4776240215757799      52.094047364355625
   167   1      14.491159207373205      6.8545261850957608      2.5121888330882962
   168   1      12.799622456911809      9.4617512473348917      2.5381238075754653
   169   1      12.819027102374777      11.201449019529367      51.985201375042202
   170   1       14.22082678123331       13.79839479212065      51.825449066371604
   171   1      14.779408602213916      12.334647182242277      2.6665751581239365
   172   1      12.505091289619212      14.736708718048492      2.4975465318448844
   173   1      12.533200445455073      16.366109346480368     0.16041227887876297
   174   1      14.426326657244893      19.461475439976748    0.067671157092460466
   175   1      14.329537222994002      17.561262405555027       2.460849420933513
   176   1      13.418622200511608      20.485515463842148      2.3799619031288226
   177   1      12.894298251240743      22.253642403863399      51.835873110341616
   178   1      14.763832247718817      25.167761464016859     0.19969283040723332
   179   1      14.288704353641039      23.502178286631555      2.6416415150646597
   180   1      13.164878887257569      26.447279516455144      2.5047923766330378
   181   1      13.146889057232102      28.098330629124817      51.895681568258659
   182   1        14.2384811153799      30.572377423587401      51.914339867991188
   183   1      14.777506237699532      28.845230813080374      2.4015377379804024
   184   1       13.03060314049163       31.88084533507595      2.5318010720259787
   185   1      13.304834178642501      33.601312519844363      51.962620617614164
   186   1      14.319727721005007      36.515183070573116      51.963590836681838
   187   1       14.53415473426031      34.705646282121236      2.7581943096706416
   188   1      12.478524456466024      36.995532143430516       2.743846975533613
   189   1      12.903929986411827      39.350244370420086      51.723541133173711
   190   1      14.376787360640874      42.143448648467896      52.065309379093172
   191   1      14.348614293975814      40.319902261578065      2.8423222759134767
   192   1      12.458621278441219      43.027816364737227      2.6578352257398463
   193   1       12.84191849142182      44.729227373552803     0.28464496439007658
   194   1      14.546529518464258      47.579617823165954     0.23068856815854794
   195   1        14.2354958711531      45.398324833709559      2.9852679568512794
   196   1      12.681051992489561      48.577850731145425      2.4112073599001422
   197   1      12.648758427377059      50.174039914452528      51.897633718437831
   198   1      14.661125417867479      53.028955183327277    0.062011367372209796
   199   1      14.350265682867699      51.090985330096601      2.5846694313846412
   200   1      12.741059588085911      53.881243703953928      2.4818759116409868
   201   1      15.834250088495368     0.20204973800041559     0.19820978990024324
   202   1      17.574477454161464      2.8600894901201697     0.36003414325641736
   203   1      17.607817947085561     0.61401629957113046      3.2095224708800449
   204   1      16.222145124178191        3.80166502569582       2.842747671824267
   205   1      15.852225431633105      5.8054069150893994      52.019973877162926
   206   1      17.516103034538045      8.3613759406944101      51.880525602315181
   207   1      18.167479910235123      6.1683478813181027      2.8096534674363873
   208   1      16.189011989152814      9.2767149107759845      2.1827261420808504
   209   1      16.091484166042193      11.326293201159345      51.580054574080577
   210   1      17.264180179376215      14.345674773932661      52.066562783340629
   211   1      17.482775780844531      12.031726234003825      2.0978903845300603
   212   1       15.95178234278044      14.707972264257377       2.748770396903355
   213   1      15.437564671738562       16.63138916797767      51.815375943264208
   214   1       17.29278349842841      19.264104803732543     0.12431141852682939
   215   1      17.275774210292042      17.459103960631733      2.7596098481279032
   216   1      16.236613700415443      20.500228903938467      2.4986300106274379
   217   1      15.781855069342273      22.449702058500073      52.111104363982044
   218   1      17.601635460332464      25.291119673480914      52.117352557729774
   219   1      17.269509612417561      22.982310740017841      2.5449706575364708
   220   1      16.000007505546723       25.97814616945805      2.7771141596497055
   221   1      16.463916768005493      27.776059831727405      51.991625704661644
   222   1      17.763972525918888      30.466422914623482      51.950550072979532
   223   1      17.929437760090952      28.493661529076601      2.4353395701985527
   224   1      16.108397392466589      31.641145979377811      2.5119289250771941
   225   1      16.021932079221635      33.303182498001938      51.854091039330939
   226   1      17.165555895907922      36.417502445547321    0.069561563872236304
   227   1      17.690259346973519      34.377954707823747      2.4005847689943494
   228   1      15.338401912224338      37.466335288873161      2.7624108668803915
   229   1      15.873932785544012      39.533068491797152     0.33936307138600985
   230   1      17.459786995168823      42.045484656757182     0.12298382470671293
   231   1      17.770768827956822       39.91206962806617      2.6985707525902605
   232   1      15.997027896722615      42.725679140146312      2.9118441586764527
   233   1      16.084937096873556      44.832452612670103     0.43754211204548116
   234   1      17.495140664441731      47.976667763952463     0.14074468229109138
   235   1      17.914543185222641      45.947450248443602      2.7241532966034927
   236   1      15.970833095978266      48.031592827730378      2.5580203286540573
   237   1      15.992892592580473      50.362552916635096     0.13357546976141327
   238   1       17.74617701889218      53.342367885967455     0.16786066581983747
   239   1      17.659803082308631      50.925020304083219      2.6642633386907546
   240   1      16.188298526569941      53.633948751169044      2.7427828717492786
   241   1      19.081792114475263     0.61454773164066601     0.28020620893337705
   242   1      20.413951535197842       3.331093478564596       51.85122249710426
   243   1      20.636782965796314     0.89994178661137214      2.8959809550468618
   244   1      19.469317199523221      3.3165536359417382      2.7415663592759802
   245   1       18.93155715054565       5.760157594429038    0.030267436832701226
   246   1       20.65714678087615      8.4718236533986619    0.097910646933106901
   247   1      21.144841635993689      6.7136059513348103      2.4585010374430958
   248   1       19.16300327756824      9.5383892066917682      2.6700922987724525
   249   1      19.098031718462313      11.263082545405299      52.084624667764785
   250   1       20.90038631513055      14.009814561698258      51.803293459540022
   251   1      20.938751094968044      11.869177001230504      2.6170554088934863
   252   1      19.200218299112585      14.363920685952829      2.3330068592576469
   253   1      18.930003502277238      17.321962231297373     0.16212525879670328
   254   1      21.113843833082562      19.607083085086202     0.15743287379904447
   255   1      20.809776127917175      17.493568128913275      2.9117724256280977
   256   1      19.194239575340756      19.925438335094597      2.6884598090672407
   257   1      19.171589889037385      21.879300939395463   0.0060228229348447473
   258   1      21.083009575420121       25.24159841640876      52.001350410031094
   259   1      20.999559170564595      22.905377238485514      2.9750346087749877
   260   1      19.087995359607334      25.490959076583305      2.6371229328909127
   261   1      19.465220076653672      27.661595756287081     0.22179972657717528
   262   1      20.645122087215039      30.607635671656286       52.11013600155129
   263   1      21.188631509561329      28.930395573623137      2.5172214096733216
   264   1      19.524780460505731      31.762134203715625      2.4874467455674183
   265   1      19.060427915051513      33.740121559343748    0.069665071005692941
   266   1      20.701224048966836      36.340570650759595      51.990216177879461
   267   1      20.801724723342783      34.798945618264092      2.4371258791347401
   268   1      18.888012101742088      37.202521065111746      2.5649776010787595
   269   1      19.132767394367157      39.006493047702229      51.989714065144383
   270   1      20.755953632627104      41.735425371760371     0.37454431161951091
   271   1       21.17213410166136      39.609572244093869      2.8092572425556566
   272   1      19.019747223766291      43.019313920973453      2.6449113176096311
   273   1      19.345871917829982      44.537553914432479      51.985729795829045
   274   1      20.551086378002505      47.239668349417705     0.10955744079934428
   275   1      20.911401330479382      45.579233817649957      2.7216027628585611
   276   1      19.517402156358749      48.498731305365105      2.6957120335449174
   277   1      19.329361355565016      50.418248934112448      52.054500410930984
   278   1      20.686389413007067      53.364455467770156    0.099232133305254933
   279   1      21.092019040454289      51.343355602545188      2.7624101872484532
   280   1      18.965576333723146      53.775957307369247      3.0378720214862973
   281   1      22.744287467724281     0.24164227130898067     0.27232930725151872
   282   1      23.792626050966604      3.0036219459881774     0.33147885323603016
   283   1      24.081769305519096     0.95094017990684976       2.655215664868567
   284   1      22.365555540170263      3.9595396097870275      2.6629090754450981
   285   1      22.303818098385843      5.6173896827299226      52.091531090052712
   286   1      23.935623991978488      8.0979112991911109      51.967732714460745
   287   1      24.476566668761645      6.2110596778173939      2.3117836032865071
   288   1      22.738289431291697      9.5145739830643805       2.279537870023328
   289   1      22.214677072320594      11.400986103652421      52.079637852205252
   290   1      24.488503086717788       13.92824202808738    0.062378016487587451
   291   1      24.289114676766911      11.988170064700773      2.2074972564746287
   292   1      22.524129384004794      14.438718063865323      2.4243994208665676
   293   1      22.478436249270768      16.848724402299677       51.81883296865545
   294   1       24.96199883624865      19.269614667518979     0.10444668404426674
   295   1      24.099102544655715      17.298166488672361      2.1195578152950825
   296   1      22.922256095828008       19.85132739894814      2.4371931568175063
   297   1      22.401616343809362      22.484550127232197      52.056773349183757
   298   1      24.104328761771459      25.307169714616165      52.083776981835562
   299   1      24.027723775525413      23.111436169292517      2.6949245846870822
   300   1      22.586312023316278      25.714123606666167      2.6280270157029331
   301   1       22.53409462676256       27.76485119796784    0.088949857187745951
   302   1      24.331471493830701      30.463246921137298      52.122427474301183
   303   1      24.160284475189027      28.574863348482854      2.4452466718368657
   304   1      23.000701618763053      31.374078058434176      2.6311846265459784
   305   1      22.478719806176461      33.568547306040479     0.21852973579343221
   306   1      23.989515818564822      36.291982312097431       51.98414911143643
   307   1      24.465544256225581      34.247695446565054      2.6235792211758278
   308   1      23.161173834017855       37.02123884078631      3.1037258580602143
   309   1      22.443833510092077      39.098016894776812    0.045786211641584369
   310   1      24.101583354095958      41.768485525488721      52.045804096831731
   311   1      24.227427514144935      39.769386923544076      2.5112393768456687
   312   1      22.573897378366247      42.624108538113042      2.4774451953525163
   313   1      22.312274628250616      44.600578569791836      52.089497643223361
   314   1      23.683470932962564      47.346080541334992  0.00012632549901663877
   315   1      24.094749823411103      45.398158981508736      2.6195595856785556
   316   1      22.438827424875903      48.294759644824858       2.511514403917483
   317   1      22.423810544374401      50.091823183525833      51.983750741370358
   318   1       23.81088113675581      52.950713040648388     0.23444616768485427
   319   1      24.082148410881583      50.985362552606539      2.3894779678494262
   320   1      22.710265995716192      53.822487660381903      2.9505701512565063
   321   1      25.552267936062186     0.19870690039419622    0.014492139851130174
   322   1      27.049039562783221      2.7142107894303056      0.1056495781813213
   323   1      27.208694811424483      0.7257100464692674      2.4523991137627652
   324   1      25.766260162933595       3.583544733204107      2.6866921330790086
   325   1      25.976293580734282      5.4181920504871499      52.064765855546554
   326   1      27.228973586248781      8.2178164966833283      51.913058524198362
   327   1      27.427265578915236      6.5799386061682261      2.3602359987186547
   328   1      25.793038066999518      9.0287622770457894      2.3581089555906987
   329   1      25.762938292114082      11.230617990357528      52.007629968885233
   330   1      27.657918396398184      13.689446389073563      52.004404585819266
   331   1      27.345207512939762      12.098083557421189       2.149557846391251
   332   1      25.640660216609284      14.938170805363452      2.6443014600573442
   333   1      26.127622545835756      16.313814282101152      51.870132617040568
   334   1       27.90336630801491      19.115279108732171     0.20481404133645573
   335   1        27.1051042868122      17.614299065511165      2.6903774187145237
   336   1      25.752545769180276      20.388045215007889      2.8963811080800044
   337   1      25.785517876032323      22.322870203188359     0.39675102265865458
   338   1      27.181873082797079      25.245106095795482      0.1837657653660747
   339   1       27.49372108667928      23.014431671673691      2.6999545736556994
   340   1      25.761708938318836      25.943092626262811      2.6331840890462788
   341   1      25.838177702539234      27.895465878099252       51.89867487919777
   342   1      27.851544789476502      30.124122532703325     0.13236185783177351
   343   1      27.358700493296002      28.589853848377917      2.5451214530330089
   344   1      26.116176602043552      31.395624067290516      2.4757844821982133
   345   1      25.578549609213372       33.49888217100608     0.17725935405212059
   346   1        27.4363230091299      36.044634437161697      51.909757205260178
   347   1      27.631356347813259      34.207584747296842      2.7014873377471211
   348   1       26.09252263134595      36.864946594129982      2.5052323472340308
   349   1      25.593831200919347      38.827678817668442      52.043015354430437
   350   1      27.329017788445896       41.56490041065166      51.873799257400897
   351   1      27.108586206418678      39.666070928253127      2.8716512570395203
   352   1      26.083611188580928      42.612171251031114      2.4267471725759315
   353   1      25.696993544149176      44.421874374982721      51.997062378027906
   354   1      27.519076474024008      47.013425698957612      51.825380978868587
   355   1      27.182235305197811      45.422512641674032      2.2740315507910061
   356   1      25.815777478842566      48.230913453324092      2.0444534539436705
   357   1      25.748964333754422      50.452396404891125      52.074298641600635
   358   1      27.165774174402952      53.055314381466296     0.49251553057600461
   359   1       27.27747342635033      50.865606310468095      2.7111048194052332