dump/Fe_750_20/steps_61 (written by ASE) 

1980 	 atoms 
1  atom types
0.0      28.699999999999999  xlo xhi
0.0      28.699999999999999  ylo yhi
0.0      28.699999999999999  zlo zhi


Atoms 

     1   1    0.087563659913884595    0.027551317607880647      28.632255690175871
     2   1      1.5763501202543133      1.2982432037284872      1.5362367824093666
     3   1       28.69448545286372      2.7988998844846718    0.037307248898287092
     4   1      1.5226857475274196      4.2833066248498897      1.3460799932902656
     5   1   0.0022506608949701299        5.82986373001643    0.076013097324471438
     6   1      1.5516391398943024      7.2196060934737307      1.5370402847676821
     7   1    0.044526962840894337      8.6766726778762173    0.097654569888538933
     8   1      1.3689044460862656       10.11981775933538      1.5288886355467528
     9   1    0.082701102336660046      11.545756775601113    0.020346181215393243
    10   1      1.4574103252972235      12.965033113041448      1.5683915089833353
    11   1    0.056772993748884636      14.342393171891487      28.661299918796747
    12   1      1.4486597559152885      15.640862522999576      1.5511183969397631
    13   1     0.09344846417885809      17.156071688982436   0.0072495412996317994
    14   1       1.470154706228096      18.510446033686733      1.4878566953869252
    15   1      28.577910524524103      20.152913174270463     0.10530444885996525
    16   1      1.6393185610845888      21.480400617791719      1.2897176971510476
    17   1      28.593057959977997      22.715997141522749    0.094384495816802902
    18   1      1.4293429959267565      24.278717895758959      1.4868578136780695
    19   1   0.0089600315228073411      25.748259151808561      28.673527581892461
    20   1      1.3501375497363737      27.104227232611983      1.5441506198111252
    21   1      3.0401551299816041      28.476028913309737      0.2982585935780675
    22   1      4.3702660874607453      1.5698135299465663      1.5727787370321162
    23   1      3.0776864361150298       2.736114106810895    0.087868177293000768
    24   1       4.299918196288476      4.3840538740121904      1.5358608717683742
    25   1      2.8545058679275024      5.7376116302101403     0.14888465556776972
    26   1      4.4137353198651414      7.3362550840279006      1.4486147072422335
    27   1      2.7516526720960903      8.6234970481608801       28.66781232063747
    28   1      4.2803225412176458      10.102813125330506      1.4673305683176976
    29   1      2.9010941467339637      11.405945684847294    0.042403866478241597
    30   1      4.3791621430368766      12.805300093164215      1.3640699161477745
    31   1      2.7528967615907169      14.150506018143149     0.10081476371043425
    32   1      4.2250237206584007      15.689449165098315      1.4872491508953434
    33   1      2.6515721836598831      17.155566451815481      28.699535524457929
    34   1      4.2224543481918069      18.651880277062933      1.3381659603579585
    35   1      2.8012943028510575      19.884841043244077      28.658058874056895
    36   1      4.3580503655726455      21.380011436284743      1.2285624841910809
    37   1      2.8378886381133963      22.895199808228178    0.062788235367520415
    38   1      4.3673937921383246      24.287554684308361      1.4272663740404263
    39   1      2.9976181080085129      25.683362162281888   0.0058769839957449116
    40   1      5.6458550140429464      28.492626523775105     0.18185887210058804
    41   1      7.0611768973199025      1.3377694758814405      1.4478925362933981
    42   1      5.7044292005475148      2.9255683269945778      28.699737178304087
    43   1      7.2815877338296042      4.5054464311039624      1.4882386829406762
    44   1      5.8417361123193636      5.6703089737164039    0.012970323630997881
    45   1      7.2393081038837126      7.2848175383737939      1.5854753357808811
    46   1      5.7937468901209961      8.6275551402237074      28.641785065726157
    47   1      7.2159883712341131      10.260207370544427      1.5948582842528691
    48   1      5.7503943896470266      11.377693846305991       28.61702237875831
    49   1      7.1980118663787165      12.955006143980663      1.2942846602857789
    50   1      5.5738874041036777      14.416850880462965   0.0060964251542031962
    51   1      7.1841733023280776      15.758253247512338      1.3824162082722184
    52   1      5.6540715807178872      17.193337107139939    0.055681972587831273
    53   1      7.3038681359675719      18.485737365639363      1.4850280510368759
    54   1      5.6889585098976818      19.709610747091215      28.561083283359526
    55   1      6.9806137911215735      21.490428849544539      1.3474328957819024
    56   1        5.87327717388479      22.937192710730542      28.648924211688826
    57   1      7.4518738256939256      24.477137430940573       1.336536936784569
    58   1      5.5906253278158404      25.855587400831993      28.676756365248188
    59   1      7.3116336213134137      27.212793438292685      1.4337232396910047
    60   1      8.6909288714822548    0.055606515359534148    0.085364161562597435
    61   1      10.099138583473563      1.4171244384133719      1.4368757647784611
    62   1       8.541265752765602      2.7943216422452339    0.059302004291623675
    63   1      9.9884747542641072      4.3451575866226095      1.5515329774004047
    64   1      8.6868938805999552      5.8468030692524273    0.023658373057514837
    65   1      10.044203087518126      7.4123221241807817      1.5824950739817614
    66   1      8.5082958902012322      8.6338279484430913       28.64581718650831
    67   1       10.14566931864792      9.9393716231838614      1.3548067781054443
    68   1      8.6106177188165347      11.357168339246133      28.531868778462186
    69   1      9.9032274112465473      12.967746594061314      1.3631942512934976
    70   1      8.5912619914137807      14.465653129051145    0.056524993403684096
    71   1      9.8885202509731283      15.788916878141498      1.4987103122106999
    72   1      8.4933976525234218      17.213267440491148       28.67713728653937
    73   1      9.9606931714672964      18.512103980162344       1.472357671467478
    74   1      8.5721390637981969      20.016437425784918    0.041845185663771552
    75   1      9.9839515545513251      21.449495957972317      1.2738165970257673
    76   1      8.5570845558717075      22.886101525986572    0.071421978804369263
    77   1      9.8630985895596961      24.558405679291202       1.374959682376413
    78   1      10.158322407704068      27.270286122091516      1.4685031819393075
    79   1      11.596733455039296    0.094123818291006897   0.0096893906427794833
    80   1      12.934132131762235       1.461775669853534      1.5321554587579258
    81   1      11.427375607207702      2.8519083863791046      28.669851178991028
    82   1      12.897127015453609      4.1990288922782835      1.4457726229933319
    83   1      11.530790840520629      5.5121541783461527      28.658790377800518
    84   1      12.718817717807669      7.1597036273716803      1.4280567746903778
    85   1      11.525548810877602      8.5564920306921675      28.624284494490951
    86   1      12.811776623379577      9.9779271717955051      1.4338036659245865
    87   1      11.388613496478616      11.465722115312115      28.559761221739226
    88   1        12.9211459846045      12.907692619651266        1.30805305070071
    89   1      11.446262257677652      14.317419463905685     0.12550540230243989
    90   1      12.982537874535126      15.903715425900197      1.4065213697017371
    91   1      11.386935747881308      17.083246418830566     0.08404673118452595
    92   1      12.821772440081382       18.60364898153199      1.4126698501148438
    93   1      11.412303602081856      19.964995715216251      28.595382225686926
    94   1      12.709661605478651      21.362784395146797      1.3617693198103895
    95   1      11.376478956928633      22.966361408879575      28.695180423667054
    96   1      12.926460464523521       24.27306282500442      1.4730165771558064
    97   1      11.575461820640887      25.831323978887259    0.083634568216518768
    98   1      12.908283197029764       27.29571475012461      1.5156938995333018
    99   1      14.398209843688965      28.639798839452652    0.056597937379069638
   100   1      15.893701423946998       1.296486448191569      1.5348408336553918
   101   1      14.491053193326294      2.7879461584504748        28.6925507568039
   102   1      15.748953225801866      4.3343732472835939      1.4069920887492351
   103   1      14.382389436555018       5.669397782093184     0.11152191678190773
   104   1      15.791186436367267      7.0985404122765843      1.4015885769586942
   105   1      14.370131675468318      8.3780007587313925      28.589534531127928
   106   1      15.753186700766987      10.014538024072493        1.44691623494192
   107   1      14.273084488258693      11.489828463462345    0.044067864485180006
   108   1      15.864180179489868      12.918522140557705      1.4711215845843411
   109   1      14.374601497057384      14.300950388597295    0.025602255829494408
   110   1      15.757522431504285      15.778365455316761      1.4228656409605369
   111   1      14.310136834825178       17.12254634592318      28.528159653914717
   112   1      15.595257927451714      18.679855995808023      1.2148000946229678
   113   1      14.176565265977512      20.178836925199548      28.621778511552307
   114   1      15.772239786251841      21.453580013051134      1.5651387374744099
   115   1      14.311635400326043      23.060968513742051    0.021731218035449733
   116   1      15.612681126277574      24.480360796879477      1.6371879746525677
   117   1      14.428679736191521      25.912208092042402    0.018316178918962582
   118   1      15.783451011411794      27.292580233747572      1.4502465642287228
   119   1      17.420648880878556    0.079372281526264049    0.028994563236528954
   120   1      18.939132481365256      1.3847309691986316      1.4990312797657672
   121   1       17.30820349960096      2.7828179957015764      0.0800864301268574
   122   1      18.828456347095671      4.4230123459992612       1.526916847086909
   123   1      17.387880548271347      5.5304511994672527      28.681214050420493
   124   1      18.548412319872373      7.2290988386577766      1.5387594371243705
   125   1      17.240217793515367      8.5945696149435467    0.097322170343170492
   126   1      18.736617421275685      10.063891167409979      1.4968202579381902
   127   1      17.182985309755839       11.56524002479661   0.0018041650830241463
   128   1      18.630247290936456      12.731575179349552      1.5204044824422454
   129   1      17.251967812016172      14.440186912451978    0.051762413372625757
   130   1      18.504946753684521      15.772536168523176      1.6254393601528923
   131   1      17.264676941732407      17.068681371238384      28.651657966561274
   132   1      18.562793723973279      18.777130286603505      1.3320868034744084
   133   1      17.154030121178167       20.11926361207615      28.613072200343957
   134   1      18.571595961086647      21.430128720708975      1.6298305074069057
   135   1      16.998778357758109      23.082305909344669     0.27579072575025498
   136   1      18.785843778822763      24.347433361820606      1.5845593725492673
   137   1      17.210744333990867      25.763893440520071     0.10973921656601535
   138   1       18.80170158945284      27.272582287200358      1.3396068060935804
   139   1      20.260426250429017     0.11421661242459492      28.655359309265663
   140   1      21.678510923966112      1.4325978652803868       1.449199531865111
   141   1      20.176134546051671      2.9236092157251132     0.12693260242868962
   142   1      21.500854516234291      4.3499701525946319      1.5706406764793546
   143   1        20.0699313907228      5.8227838768044604      28.666684420061362
   144   1      21.599643663575989      7.1072433810062288       1.429863186408874
   145   1      19.996912414426404      8.5434210699864472      28.680877495399869
   146   1      21.645863890466202      10.081767247723711      1.4455620883726052
   147   1      20.129727014220574       11.59955706527465     0.14863910506599035
   148   1      21.449768164651726      12.975807528073721      1.5819666077972907
   149   1      20.059861075025193      14.299657063575889   0.0081083616834121131
   150   1      21.371237671407439      15.801578109079022      1.5197007071211608
   151   1      19.913403558691673      17.235994974819974    0.029328488391331495
   152   1      21.455733162563959       18.56587789156179      1.4656694222468436
   153   1      19.987288467760905      20.185360711377207     0.10300679243713362
   154   1      21.427641730518836      21.478105243040456      1.6023384589335008
   155   1      20.132549235336473       22.82989812997166      28.667943960273817
   156   1      21.385527154602581      24.363631332082718      1.5168549288630635
   157   1       20.18402743541575      25.766572986579646   0.0031695765768631665
   158   1      21.628128676514482      27.361548283586657      1.3146357444573469
   159   1      22.997203515589636      28.680157428375992      28.618318515778967
   160   1      24.366818311152553       1.493252766960609      1.6302320867288453
   161   1      22.987942084497327      2.7450594917522597    0.030922540288247678
   162   1      24.299425034270811      4.3377006470805126      1.3441583833131974
   163   1      22.981370433914694      5.8306892733044364     0.05108548503187655
   164   1      24.420282540004042      7.2276383701605074       1.569838530158858
   165   1      23.066729950364849      8.8161346652772448     0.10971217708954539
   166   1      24.340780795833805      10.268543437567667      1.7412213930033202
   167   1      23.089909901579922      11.635881830023916    0.067571324542325381
   168   1      24.213290531700689      13.210807541716246      1.4676429813435337
   169   1      22.798980406602496      14.402318161568191      28.593902576142639
   170   1      24.306049788737788      15.803339542610995      1.3915139318387786
   171   1      22.875888017691949      17.103898333801503       28.39296831160879
   172   1      24.349556422488121      18.463562028378703      1.5023321328426611
   173   1      22.937147370727523      19.868880459382638    0.068058591340172878
   174   1       24.36256078694462      21.371928286136193      1.5408721580573235
   175   1      23.015992883677882      22.720468447384697    0.033807709007021361
   176   1      24.214684134019549      24.304073115208524      1.4807583414520316
   177   1        22.9655588287225       25.67361781361927       28.66066378441046
   178   1      24.417631006199027      27.144007810501332      1.3747314313867158
   179   1      25.862859470561347    0.055852707711949237    0.036181026404460533
   180   1      27.119310713645582       1.577134063201743      1.4568920839408299
   181   1      25.957727987363022      2.9384736778701779    0.019417472085092393
   182   1      27.463000625626247      4.3662387014629118      1.4701619721194226
   183   1      25.875350387750643      5.7271855389469248     0.14501234570764143
   184   1      27.337178526900917      7.4933110234515992      1.4559837139813336
   185   1      25.691759411599346      9.0004177815057158      28.672375249603405
   186   1      27.174110369275002      10.320015174505334      1.4627342584218705
   187   1      25.861452248167893      11.584764699321955    0.031656505458272477
   188   1      27.323255965194608      12.974542711433807      1.4670943865310038
   189   1      25.769208619428113      14.168406308135474      28.699349371924399
   190   1      27.179456746838063       15.71821550262214      1.3151025880702378
   191   1      25.842869757035633      17.074350278998867      28.698345268924719
   192   1        27.3991913105843        18.5942763261918      1.4926582988057582
   193   1      25.897938748157749      20.085725220466301     0.14484109894193586
   194   1      27.133047358094846      21.508396559055559      1.5050885300202494
   195   1      25.826604106729022      22.830866452582406     0.11798944634047084
   196   1      27.337173145838317      24.381413090742804      1.4101568171753793
   197   1      25.791303540566634      25.824520272980291    0.054695965583698575
   198   1      27.287254577336018      27.038169569937139      1.3386370831425778
   199   1      28.584552499115663      28.610916334084795       2.766979631775063
   200   1      1.2907746839632743      1.1935645782672732      4.3919806243066244
   201   1       28.62325515420304      2.8070493681999555      2.7423560861236513
   202   1      1.3823962622343977      4.3853657629735183      4.2570344241549822
   203   1     0.14877784140869674      5.9085624063468405      2.8753749551722882
   204   1      1.5278662226970257      7.3146497521602427      4.3687629807125612
   205   1      28.606551471140776      8.6945441111524477      2.8498836288249563
   206   1      1.3725611653174963        10.0792301203058      4.2975860732692466
   207   1      28.629229989180971      11.516715418794991      2.9753512679127585
   208   1      1.3177808421279567      12.846031595967645      4.3998007142607509
   209   1      28.490248850307978      14.209052951277618      2.9785480218362039
   210   1      1.4687922314675688      15.639929517509049      4.4035061687350074
   211   1      28.590008548281507      16.983053417828344      2.8770116614384316
   212   1      1.5127933425665019      18.592281963505368      4.3499544224332434
   213   1    0.088432642473220871      19.998619028601563      2.9829195453138446
   214   1      1.4821331475709507      21.542481833666368      4.1929173396791652
   215   1     0.10196975268398932      22.835028100560002      2.8780177669026554
   216   1      1.4346350891917845      24.298833749087201      4.3444856247519477
   217   1    0.061123779924095727      25.741996700505709      2.9354655208600637
   218   1       1.359017768232005      27.264904438377862      4.1590721831965736
   219   1      2.8702073802584982      28.503703921364508      3.0048517802651316
   220   1      4.4261886336425444      1.2310691489563284      4.3442661792767732
   221   1      2.8520850022948587      2.7983293272881378       3.038494091205088
   222   1      4.3069876083968515      4.2282305740102748      4.4886569637026845
   223   1      2.9164759985989916      5.6450344403214316       2.940239330051972
   224   1      4.2930786545296202      7.0583530034189108      4.4206297212635004
   225   1      2.9165867981200826      8.5999025338661621      3.0781093234085168
   226   1       4.430291936696813      10.039670230846877      4.3618961783727581
   227   1      2.8629439264514431      11.668970085665356       2.971768241586505
   228   1      4.3557549268343809       12.86378051634428      4.3246212496722514
   229   1      2.9396543197196072       14.29602756193807      3.0476532583910076
   230   1      4.4330239870043915      15.694029276100409      4.4320966645562168
   231   1      2.8939103838661975      17.308074284901373      2.8470321108951113
   232   1      4.2513310060699077      18.622937870594651       4.452377471507595
   233   1      2.8808623872017542      19.962007188827911      2.7796676549461949
   234   1       4.347258285071284      21.263265889047293      4.3481486656623076
   235   1      2.9183594052439377      23.023998690493634      2.8127519480555279
   236   1      4.3098819508581165      24.288570465345387      4.3514899257551463
   237   1      2.9640436964458381      25.773857256345739      2.7104629722496738
   238   1       4.445188668472599      27.200514798914167      4.4573217839975188
   239   1      5.6907947040279669      28.548400091476893      2.7576972105711093
   240   1      6.9054391652314129      1.3421048473831103      4.4410616532859812
   241   1      5.8278959960543366      2.7448937343940778      3.0017657067374883
   242   1      7.3500578336470195      4.4089828505126869      4.2579428093648595
   243   1      5.7034336637334713      5.6728436495942329      3.1717360894504112
   244   1      7.2566014680266999      7.2467357426899488      4.2783302803794241
   245   1      5.7189543791941473      8.6307537782809369      2.8805740696560442
   246   1      5.7446590706485674      11.620654659652947      2.8123360961389494
   247   1      7.2395127432520301      13.009601429169287      4.5180937117963653
   248   1      5.7669910514693026      14.227937956020948      2.8444866286842747
   249   1      7.1471747494273021      15.718202997192721      4.1039681899787848
   250   1      5.6515844164632165      17.220554792538085      2.9558616441674928
   251   1      7.1793527431512558      18.659463408364559      4.3823312097568872
   252   1      5.5939550066838617       19.91250210088899      2.7624977934018498
   253   1      7.0865681254100661       21.60553987195706      4.2683076384602368
   254   1      5.6743503371614041      22.961782810990314      2.7229417311890769
   255   1      7.1380416112901459      24.361435499481424      4.1674483758345193
   256   1      5.7159867337404968      25.935987117942009      2.7615554725660556
   257   1      7.1650782802796451      27.202973372091368      4.3141961928999626
   258   1      8.4240116449519817      28.636713630535983      2.7613708174235296
   259   1      10.044004579610265      1.4368097446896853      4.2412024684635057
   260   1       8.508752859829718      2.7933100674397782      2.9301711750799839
   261   1      10.084014278113601      4.1260879984819647       4.191576010496763
   262   1      8.6780672765893989      5.7452433361983335      2.8897700782077571
   263   1      10.154724248666737      7.2663982705594368      4.1957554651351403
   264   1      8.5433168530031036      8.8362334457935869      2.9483725554446729
   265   1      9.9810487563881765      10.045028419108334      4.2670818896606546
   266   1      8.6314573231593865      11.427872525772864      3.0365391266926367
   267   1      9.9881717214743642      12.911410576938188      4.4854614478631154
   268   1      8.4768343076325987      14.223183293324521      2.9590454561168409
   269   1      9.8874773548635346      15.741575118789031      4.1743252066071879
   270   1      8.5849249256115492      17.190219645244319      2.8975659282337829
   271   1      10.046730603953888       18.57032499315817      4.2959896524434011
   272   1      8.6544127587076911      20.164828086169408      2.8029679852208007
   273   1      9.9562628101173889      21.691581682899496      4.3508703943961358
   274   1      8.5844492606170846       23.06221365425052      2.9205453970599655
   275   1      10.253924875172578      24.282792951763433      4.2930032906830204
   276   1      8.6716711198316112      25.858919590443836      2.8930559991027174
   277   1      10.178119220670348      27.305399595637301      4.2222846431179359
   278   1       11.62286405137626      28.667465627002059      2.9508614603835297
   279   1      13.046815980410191       1.449323849582753      4.4649424741442969
   280   1      11.427883100553858      2.8077994322356741      2.8602200828638611
   281   1      12.797137165631426      4.2908722688384779      4.2150199113586888
   282   1      11.477353053453861      5.7656180716246901      2.9114086000443038
   283   1      13.031434804580295      7.2191420295876094      4.3397658776474977
   284   1       11.53389265265708      8.6689154052343564      2.9826472256302385
   285   1      12.863378164962668      10.132621904826149      4.3005815212210585
   286   1      11.345942985100942      11.630035645823956      2.8318208323872329
   287   1      12.884708823875984      12.949011919688791      4.1617961325025572
   288   1      11.441634242363122      14.344284561365489      2.7464177513541683
   289   1      12.938935227111779      15.799456661229435      4.2019180472008859
   290   1      11.413152276365953      17.220193397917082      2.8285285772610793
   291   1      12.915332334192533      18.578173720035522      4.1615422538911302
   292   1      11.383229193193303       20.13832755101555      2.8474058808930844
   293   1      12.779656297620464      21.559743553855487      4.1892034871210004
   294   1      11.529168131523253      23.060738356480414      2.8319955009359195
   295   1      12.961227442943384      24.352342461084838      4.1775268713502083
   296   1       11.56052166092554      25.821294757135242      2.8357334705740525
   297   1      12.895996091165774      27.184221362632304      4.3331617442974713
   298   1       14.34931784220651     0.14312679747346246      2.7807738900949968
   299   1      15.828870187160781      1.4628880455007798      4.3084621057664636
   300   1      14.435235620607601      2.9030508842977452      2.8831401026767365
   301   1      15.937599360318995      4.2958448635513413      4.3550112226853095
   302   1      14.251602838333408      5.8094716147410326      2.8539913251188747
   303   1      15.858641836590472      7.1660017510562577      4.3262681036825299
   304   1         14.324741447569      8.5590368970537387      2.8950969391941253
   305   1      15.810557520440573       9.896233395635754      4.3465264499564515
   306   1      14.219032216091806      11.322719867450896       2.757619601877046
   307   1      15.619016966277119       12.75279452463027      4.1617895278560209
   308   1      14.221227277804784      14.255425017279306      2.7006873467648682
   309   1      15.735765427613751      15.939638644578851      4.2069583896061316
   310   1      14.289265999939841      17.233721563382598      2.7534280487732858
   311   1      15.621901937132428      18.630789355289007      4.1331765334565382
   312   1      14.280500667562583      20.111074562553416      2.7218487008437133
   313   1       15.71918877526817      21.336608982064007      4.2615669415981738
   314   1      14.423192476781134       22.84062925799827      2.8636919850355058
   315   1       15.80014858468849      24.451391727887454      4.2088686327153928
   316   1      14.277405341955618      25.871399176359322      2.8056678040333862
   317   1      15.811538936025102      27.366254970192067       4.361682367741702
   318   1      17.448705274509635    0.021035345891653089      2.8412496932769846
   319   1      18.804888591235105      1.2741227098809202      4.3030600962497365
   320   1      17.372504401139885      2.9077929622686063      2.8573469245439012
   321   1      18.752127790417465      4.2112734291967566      4.2951024084949196
   322   1      17.224998658782056      5.8230605569168903      2.8981495722700434
   323   1      18.723477987257489      7.1316543602674303      4.3723832513096736
   324   1      17.251257318848559      8.6650258239875999      2.9264212854686202
   325   1      18.684812942866255      9.9838823263219965      4.3440950018751936
   326   1      17.143991875123742      11.534548415624233      2.8541532460330576
   327   1      18.567606201216385      12.735740099138262      4.3994317381790218
   328   1      17.123765271213319      14.362646184570233      3.0717338016444127
   329   1      18.659634171049643      15.907600735717891      4.4410896285598396
   330   1      17.232827433513602      17.154252309657167      2.8314133646060444
   331   1      18.668356368119149      18.618518729651466      4.3913634172576126
   332   1      17.139336183213185      19.904847816899146      2.9622679328284804
   333   1       18.68206377222392       21.27477147233429      4.2703826899126218
   334   1      17.230924941302963      22.846273066454852      3.0759902514735238
   335   1      18.707837582342467      24.472691253062656      4.4025103417819045
   336   1      17.324928547205403      25.788370272445352      2.9016358872328505
   337   1      18.481920966879549      27.383062301849279      4.4008998893788309
   338   1      20.198642998395652    0.067402972807929076      2.9299607209724186
   339   1      21.615374110101776      1.4593554261226929      4.3692400388332393
   340   1      20.110697310159207       2.908976151761014      2.9769556522224581
   341   1      21.574732138295289      4.3368209236499844      4.2808843964090952
   342   1      20.034988580401823      5.7872735901288879      3.0086811923013221
   343   1      21.521949347444583      7.0167016533974351      4.3602782128583115
   344   1      20.108692135322212      8.6520874526625011      2.7938178742051587
   345   1      21.403362043742213       10.16547480829661      4.2655101053870981
   346   1      20.091210893728995       11.47690999254791      2.9508614096239629
   347   1      21.437581488014743      13.052529737923111      4.2822113784611799
   348   1       19.92223474941683      14.358097596295446      2.9852341844492591
   349   1      21.395892462339457       15.69809032487802      4.3655500975042036
   350   1      20.038099731434517      17.295985126557223      2.8090941722539133
   351   1      20.133916860791981      20.022742431579044      2.9230485865941049
   352   1      21.458419224710823       21.51413104377249      4.3500765893246296
   353   1       20.05292668827067      22.798865172231125       2.953363527428698
   354   1      21.529033675022767      24.359787316808319      4.3027701302758175
   355   1      20.094430657399219      26.031969049244207      3.0316535774055016
   356   1      21.656279551102738      27.382005954933245      4.2667740574600588
   357   1      23.113703831275011      28.496213654937751      2.8612787871388825
   358   1      24.382745606175355      1.4261870090933946      4.3226278824078763
   359   1      22.997854577353337      2.8244927021599078      2.8200198766235856