dump/Fe_750_20/steps_41 (written by ASE) 

1980 	 atoms 
1  atom types
0.0      28.699999999999999  xlo xhi
0.0      28.699999999999999  ylo yhi
0.0      28.699999999999999  zlo zhi


Atoms 

     1   1    0.085398988549663296      28.650282587476212    0.033184344186236087
     2   1      1.4236253527013669       1.379024020473355      1.3231295032713088
     3   1    0.061495165289217904      2.9024129149499145      28.484798588955044
     4   1      1.4492770064184353      4.3198416803018365      1.3103452044265858
     5   1      28.623654940141435      5.7041812430332612      28.639515497054475
     6   1      1.4479490447395964      7.2024769565539728      1.4412549766457114
     7   1      28.587842551856614      8.6807917889458146     0.15054122018365193
     8   1      1.3468055783740513      10.141376940537979      1.4484137200342959
     9   1      28.677371818892908      11.563943283963171    0.075252357549811744
    10   1      1.4421399118021343      12.792568069230908      1.4041996577094875
    11   1      28.669827675727635      14.391582265189488    0.076649173797466136
    12   1      1.4746576283099804      15.793035949969269       1.479130653895846
    13   1    0.065713434361615045      17.245557456546877      28.607075998220129
    14   1       1.370670808964044      18.587665941727458      1.2248186845796112
    15   1      28.617446845698286       20.00726441469218      28.683572181790851
    16   1      1.2966731266170219      21.458468528120413      1.5601195701920345
    17   1      0.0204253570903816      22.898947339756198    0.048846263882910405
    18   1      1.5287014766134703      24.387057245824238       1.451975033761117
    19   1     0.12243403458932442      25.740524015830594      28.679748234803675
    20   1      1.3608018342186841      27.421363376891978      1.4189143116642184
    21   1      2.9445427102212487        28.6903662675488      28.696408794681162
    22   1      4.3843439501875654       1.658475686264649      1.3380897649966967
    23   1      2.8743918441946179      2.9631766321362405      28.670625635714828
    24   1      4.3309959845569743      4.3519247833833692      1.4454117464481997
    25   1      2.9657756749174591      5.9181793959037758      28.600835711409648
    26   1      4.3015502737692835      7.2588853922875414      1.3757256939388085
    27   1      2.6732748188042592       8.668889569269032   0.0078357118292956187
    28   1      4.2484773489848777      10.003013874196167      1.5091897103345562
    29   1      2.9418042827862951      11.437605818516895      28.651867818580474
    30   1      4.2696735175737901       12.90651543790001      1.3326432680432381
    31   1      3.0289732886613399      14.394313091159376    0.010521077124303694
    32   1      4.2564366779962599      15.773100114727031      1.5596316220830992
    33   1      2.8613172615584994      17.228290616352783      28.509919792402513
    34   1      4.2810885945114112      18.713797658850599      1.4192960074540339
    35   1       2.690589744546958      20.207500455548981    0.013010220173430308
    36   1      4.3065075139683424      21.530728392018691      1.3642650967604246
    37   1      2.6850935319667455      22.895256744141928    0.061803305084902012
    38   1      4.2481751502873921      24.316192549291877      1.3503986514408106
    39   1      2.9460369690416077      26.051786964386675     0.16254791408393879
    40   1      5.7539906152918956      28.692265442295113    0.054510695828491884
    41   1       7.106744548736458       1.464511407915472      1.4941109789114757
    42   1      5.6607807690230327      3.0965200212018007  0.00038418946259071232
    43   1      7.1614597842282119      4.2324263516499849      1.5468808881272467
    44   1       5.694048973582106      5.6902917972267746      28.492849438218403
    45   1      7.1837374331954456      7.1173666725652289      1.4875293803895471
    46   1      5.6576116147878519      8.5616158089000916    0.097139386713854345
    47   1      7.0533729062086286      10.078993737040452      1.3021423256796978
    48   1      5.6875682169970805      11.557662880018055    0.059864711266311627
    49   1      7.0298038849576878      12.939371625090816      1.3015241357737521
    50   1      5.6596267006128071      14.490823272791463    0.091024431337632425
    51   1      7.1011329030437107      15.865536621023423      1.4676271913878505
    52   1      5.6039828711092436      17.278551100372805     0.14379725359870005
    53   1      7.1443185894749108      18.761650312743857      1.4489451506174631
    54   1      5.7064255784152857      20.085346655413328   0.0077617226642132508
    55   1      7.2777952308364782      21.362785034932067      1.4786716362784191
    56   1      5.8346811475520601      23.062454030424743      28.607152499062185
    57   1      7.1633626602630684      24.473410048684432      1.2806737579120073
    58   1      5.5115021640500732      26.082314606003461     0.15173903594974258
    59   1      7.2429968665185873      27.193629325702325       1.341186828899537
    60   1      8.5793991929431517     0.20547300255955189   0.0072347175605386917
    61   1       10.14084320608961       1.560367404610177      1.3022784217057968
    62   1      8.6486244936406163      2.8893128511923285      28.620628171446697
    63   1      9.9715652683277707      4.3042076562892388      1.5242370688945479
    64   1      8.5244160956567345      5.6179427907138626     0.16310234947068236
    65   1      9.9418711621564064      7.2029459205935105      1.4469743553413521
    66   1      8.6034497843632298       8.650136198561416    0.041566500533645009
    67   1       10.13536657166515      10.096313198232462      1.3359166391997976
    68   1      8.5626638551467114      11.558395794983451      28.655811578023506
    69   1      9.9426285268813448      13.049535777539599      1.6447745484788698
    70   1      8.5752221533666102      14.405471841779262     0.19270559263787845
    71   1      9.9378166507461394      15.923988759256147      1.4665819315763531
    72   1      8.6194537740064909      17.355059166392781     0.17560652879102456
    73   1      10.133019437849805      18.625998173498054      1.5486491655188388
    74   1      8.4662849177585038      19.974196903426929      28.665112908836239
    75   1      10.080958641191586      21.552757145223872      1.4182832093484881
    76   1      8.4990485629508985      22.891619747354522      28.682816527756732
    77   1      10.012771083735693      24.418018648633819      1.4639803961697238
    78   1      10.108129575006034      27.220670187852566       1.277197520014306
    79   1       11.42391691864583     0.14646326048837369       28.62524296900931
    80   1        12.9278131233614      1.4278172282949648      1.5534206797236478
    81   1      11.573153172648672      2.8271568440815709      28.640225914208372
    82   1       12.91052090406092      4.3726908402708542      1.5301018347449591
    83   1      11.526759123335282      5.6439486844616376     0.16741137731995631
    84   1       12.94171272986539      7.1388018222151413      1.5615678693915349
    85   1      11.509395183989254      8.6808674024922023   0.0034137050537083181
    86   1      13.021754411501192      10.209875508770706      1.4254841435357222
    87   1      11.453561894052788       11.69846229952466    0.080296951001355296
    88   1      12.883975924598214      12.941644765029581      1.7060485352991466
    89   1      11.437357666140977      14.346545075708711     0.12277942839211843
    90   1      13.128793190622149      15.679884763017153      1.4798692198530041
    91   1      11.528552752207021      17.188505251585084    0.050917053981777489
    92   1      13.092311237328527      18.739983334760165       1.431854752711831
    93   1      11.565123651367674      20.003596728604101      28.666802319293851
    94   1      12.885246772396469      21.477194801133191      1.5213552360456439
    95   1       11.46899040241337      22.953135123155338      28.648980940159504
    96   1      13.007554421640323      24.449457811463532       1.415999956430847
    97   1      11.647341268538513      25.841187067643322      28.608657860797024
    98   1      12.980949206503537      27.413237451108511      1.3406185888184825
    99   1      14.522112441682228     0.23744970769287363      28.679414483971147
   100   1      15.773991945435778      1.5327728449157565      1.4461576107616689
   101   1      14.351871007909475      2.9913796598318765      28.647385807893247
   102   1      15.737745674434718       4.479708675804642      1.5373081759569676
   103   1      14.384277637775297      5.8935775248269575     0.04699492669841452
   104   1      15.727722971164862      7.2274328574091475      1.5599420140871403
   105   1      14.392090494926276      8.5948195895413857       28.65767169701822
   106   1      15.675630871578711      10.075172112048291      1.4532878235685858
   107   1      14.318994483649124      11.557860063025094      28.689771425766061
   108   1       15.66666123923739      13.037313004916554      1.1962506574231837
   109   1      14.194980559895386      14.251226881690043    0.063707056023270009
   110   1      15.730471904418003      15.825181367863895      1.3093661753771244
   111   1      14.305569774116028      17.269124539814619      28.603770878688309
   112   1      15.893908417143949      18.746398495262127      1.3593677769694876
   113   1      14.452287445834036      19.954408515178901      28.621205156154943
   114   1       15.77312367387259      21.443854012555441      1.4053514307933019
   115   1      14.458914650473965      22.850412623454474    0.045075697419247183
   116   1      15.723844140525543      24.549782740735399      1.4420207697726128
   117   1       14.30350627096017      25.892434752670777     0.02167415600747518
   118   1      15.813240341544683      27.216129047870094      1.2079451176544229
   119   1      17.195193882482979      28.698416366926555    0.020124997525954293
   120   1      18.466113727401911      1.3137166685876869      1.4992908662560904
   121   1      17.163608596058918      2.9938383451714823     0.22310639672585933
   122   1       18.53052276511637      4.4001673575458984      1.4561670759604335
   123   1      17.297621251279274      5.7428779479338754      0.1050380879296198
   124   1      18.764733895274233      7.2757541787261859      1.4511920287449587
   125   1      17.207307767873502      8.6112440848568514    0.011301024086003501
   126   1      18.592088914595632      9.9923979299380044      1.3542659814696447
   127   1      17.363006238653217      11.640454824718317    0.013959870195844801
   128   1      18.609086800494673      12.949696184991437      1.4135453460370175
   129   1      17.144025779332029      14.397365245975541      28.641363113918459
   130   1      18.720144472447938      15.746412932496794      1.3671772017300787
   131   1       17.27271096697984      17.239722285715171   0.0060222178994877281
   132   1      18.743595602275942      18.702710402212304      1.4608006160905225
   133   1      17.259913439584945      20.210173275448394      28.482584677647825
   134   1      18.501591547291344      21.543509239936995      1.4250302770570218
   135   1      17.267406926927794      22.963489981638102       28.63746450265446
   136   1      18.648883684911365      24.418173999314359      1.4118290466539853
   137   1      17.169429808005621      25.786805370659845      28.557074095073759
   138   1      18.806190041556246      27.252486894550053      1.4434599490595124
   139   1      20.069075882791701    0.093660702542251922     0.23047780911358576
   140   1      21.520090431546656      1.4397933734304385      1.5803149203842064
   141   1      20.005985004295766      2.7940396042851372    0.092500440792332494
   142   1      21.545559848256612      4.3778429107348371      1.4220523210155314
   143   1      19.980620012367915      5.7866323596361031      28.615118032084258
   144   1      21.633802565483169      7.2831026943485915      1.4452334886331191
   145   1      20.172620944115042      8.7707738866402796      28.698475934202133
   146   1      21.533457274354166      9.9725245864282854      1.5545687937527748
   147   1       20.11026971044798      11.446276140121503    0.087155719279417135
   148   1      21.290038732334413      13.006178007255173      1.5178229037460944
   149   1      20.214241846616776      14.399414074176532    0.034287877357803538
   150   1      21.375132501592486      15.871959448605567      1.4239715483892166
   151   1      20.022413802043555       17.33021881512277      28.628734352020061
   152   1      21.503510597521878      18.772541951673379      1.2492887747027797
   153   1      19.798167931623254       20.17809562452609      28.689857953900642
   154   1      21.449605100066357      21.564429281688568      1.4248115742566607
   155   1      20.003647440403345       22.90128640802039    0.017700649842925017
   156   1      21.520682368264922      24.404511864507455      1.3192607157931879
   157   1      20.318383479936735      25.834674040523783       28.54046641895988
   158   1      21.506593003106961      27.188887267513863      1.3390156314572996
   159   1      23.085982832689123      28.698074831831558     0.14674164382794286
   160   1      24.414036687827789      1.3897265316136329      1.3783419228265414
   161   1      22.938137254363713      2.9858284691427133    0.076002494698627646
   162   1      24.460974918327985      4.1878907678555288      1.4127607160228985
   163   1      23.052553238032999      5.7863426346175952      28.667000623375458
   164   1      24.299330890035844      7.1968395645808183      1.3460091082440264
   165   1      23.049411180533394      8.7457954306558019      28.672968745378213
   166   1        24.3526683079407      10.145162917524893      1.4767765987421386
   167   1      22.815490344797169      11.618328172345722    0.069773270009318211
   168   1      24.263598153781246      12.979059224290232      1.3988860239355501
   169   1      23.001999756158895      14.504428288350429      28.681199708774955
   170   1      24.354362746292455      15.910919279968343        1.46743183525548
   171   1      23.033777504013578      17.460500801606276      28.647232163299719
   172   1      24.461287302285442      18.700240743581581      1.3327699157285788
   173   1       23.08114327895948      20.097001497397198      28.692315218513926
   174   1      24.343109069070668      21.449698603706882      1.3560369601043345
   175   1      22.841426116252844      22.874136307947335      28.598537025000198
   176   1      24.398917840598035      24.452255462986571      1.5832329890176648
   177   1       22.94901033585607      25.730365966534475      28.621796481942638
   178   1      24.518716556935985      27.052624154962135      1.2464503505200344
   179   1      25.804261782509613    0.031850722480896897     0.11320662568858782
   180   1      27.315863487738675      1.3749968970535849      1.4994349500348323
   181   1       25.84727071715179      2.9569614827621535   0.0047889927539245111
   182   1      27.265734733730021      4.2080974333891943      1.3428692377813483
   183   1      25.708565850988325      5.7343636478244031      28.644603242459002
   184   1      27.142349602136093      7.0043563703251817      1.2964152791664671
   185   1      25.822789087730946      8.7284549076975466      28.693148676545881
   186   1      27.367461026148046      10.129582604093747      1.4138212380987181
   187   1      25.802349635937723      11.479125924049798      28.656789103366791
   188   1      27.167702816385212      12.914130449033973      1.2236140277240346
   189   1      25.778238450240902      14.442174561047318       28.59282428856968
   190   1      27.142390525743295      15.805901057674307      1.5176330628888179
   191   1      25.863052612216539      17.243638804775699    0.027397222907768533
   192   1      27.362784412752596      18.535986341469343      1.4279429484900332
   193   1      25.784308955157865      20.196652928036666      28.576526045015218
   194   1      27.293539693738019      21.569333144739474      1.3463896748397806
   195   1      25.744321659922772      23.041328712801995    0.032310056728147185
   196   1      27.305487093354081      24.461283036018131      1.5477360231580737
   197   1      25.868840691221774      25.740969537862739      28.448764360318595
   198   1      27.216465745795372      27.236867701399273      1.2682222367138576
   199   1      28.692273220601322      28.600193096125516       2.847837595212833
   200   1      1.4402028580113431      1.4561012516110274      4.2166485623776397
   201   1      0.1454327760676167      2.7861625725572465      2.7534652906003192
   202   1       1.526995572315321      4.2918602133918871      4.2881063558517178
   203   1      28.584009540543732      5.6321637678150864      2.7681669366786412
   204   1      1.5091012857963966      7.0141680108979152      4.1567617303014774
   205   1      28.674553325902181      8.4742221778941769      2.8870860034300234
   206   1      1.3781736523068051      9.8605810963330658      4.1887179218927786
   207   1    0.042128194979387468      11.501320764493286      2.8202688902155475
   208   1      1.3389133335230552      12.955236194979042      4.2439571139970704
   209   1       28.56537551282716      14.368659400282647       2.630388712131877
   210   1       1.414250375808263      15.590381082026207      4.1487480795154239
   211   1     0.17661115493207383      17.178918352194909      2.8541036788805738
   212   1       1.365577506848332      18.654997242694588       4.322561520882096
   213   1       28.55901100909546      19.953497571193353      2.8612668029828692
   214   1      1.4138517212222745      21.418770617869846      4.3328184674366428
   215   1      28.482603787231099       22.84010533721467      2.9753991293909854
   216   1      1.4388418772011851      24.305544160105136      4.2984915972179287
   217   1    0.065461962132953452      25.774288206991208      2.8193431752473179
   218   1      1.5137710564383402      27.369848495925073      4.3047857565073064
   219   1      3.0621269396772131      28.576224323497502      2.7176357229662593
   220   1      4.1660680987853658       1.428438902711457      4.2740201168169722
   221   1      2.7878792311106508      2.9317855320839361      2.8694241116854085
   222   1      4.1801681046788444      4.3042669338124151      4.3836692734776559
   223   1      2.7461724889097701      5.6782548815639693       2.752568507872466
   224   1      4.1566317481329502      7.1613257423512424      4.2834471150520459
   225   1       2.812415772379246      8.4746505246882489      2.6508824074542967
   226   1      4.2994796872666488      9.9290120967718067      4.2275713463541811
   227   1      2.7190155654903734       11.51170157845819      2.8805939005198407
   228   1      4.2235046270144432      12.720602140083663       4.343290962239382
   229   1      2.8991292738438452      14.266235744194718      2.9852762685409151
   230   1      4.2554620733365072      15.776437669576792      4.4611943216998506
   231   1       2.799053243182438      17.345930618859512      2.8777244623279081
   232   1      4.3806733302211542      18.402488193222158      4.4999366591439678
   233   1      2.8988443278174922      20.127588925803387       3.084766091652769
   234   1      4.3436860001578772      21.509401277361267      4.3954157248176449
   235   1      2.8758517181259249      22.948817407321279      2.8079121685262178
   236   1      4.2329103900190956      24.520211347229314      4.2546244813507981
   237   1      2.7247579775065689      25.978777473444381       2.817363836597532
   238   1       4.356264890824372       27.34485965503568       4.419830857051533
   239   1        5.53897824565487      28.678033840310789      2.8270302967342329
   240   1      7.0777514507212356      1.3634785184297573      4.4123094399477711
   241   1      5.6296409884639154      2.8743183272269963      2.9667889612539011
   242   1      7.0615306891837566      4.3954282287559838      4.1543042545255195
   243   1      5.4964113856716441      5.8677507876978998      2.7546690644899607
   244   1      7.1477828506264416      7.1054093971832817      4.3545925809827057
   245   1      5.6268967519800626      8.4574963621030044      2.9611847870847035
   246   1        5.66268691551487       11.59678962612375      2.8297128318006455
   247   1      7.2515610175864733      12.877143786933605      4.4215148178573447
   248   1      5.8359305374623354       14.28197433899372      2.8582913756502313
   249   1      7.1097195431330622      15.673584509156669      4.4136630315681975
   250   1      5.8695224754852457      17.185621126574691      2.9436806385233525
   251   1      7.1936034044960193      18.657043590995173      4.4496848879387478
   252   1      5.5798228050591208      20.130973059813577      2.9922272290373679
   253   1      7.1366168629421409      21.402524502591127      4.3819223774578511
   254   1       5.777875549303511       22.98976313582137      2.9079345703559403
   255   1      7.0247176958248607      24.368616579684542      4.3036318337327044
   256   1      5.5865396346193004      25.915825978137157      2.7032035273393031
   257   1      7.0034276209807107      27.282251128449317      4.3180667436866305
   258   1      8.4387066132837312    0.027717552308968323      2.7868807974185401
   259   1      9.9673510144819151      1.4849500839326766      4.3610777921808612
   260   1      8.6261606339622894      2.7630429211141974      2.9069961233200967
   261   1      10.033500484761325      4.4077533369661248      4.2907420227345652
   262   1       8.612291628663046      5.7488781723678066       2.940961931548463
   263   1      10.126232126993557       7.036656937663115      4.3080652683287237
   264   1       8.528391080309202      8.6105723730677148      2.8894422794169015
   265   1       10.01731143024789      10.014727226175552      4.2645171615038304
   266   1      8.4409080520881794      11.363610970258376       2.760115483328434
   267   1      9.9781819520524415      12.920600423270916      4.2817303452269675
   268   1      8.5163585585222865      14.366339579429422      2.8338664423068725
   269   1      9.9060763374724292      15.698641679830674      4.2053112784568842
   270   1      8.4005878574285777      17.176916886731689      3.0253967821909424
   271   1      10.198756268395849      18.323610750192152      4.1834272001704429
   272   1      8.8257902932133661      19.968345811415752      3.0091827232985895
   273   1      10.069338743992102      21.574255764833346      4.2871932991397674
   274   1       8.437818866137837      22.983245164330771      2.7820384342933502
   275   1       10.03990569554577      24.455134834559146      4.2983546681697469
   276   1      8.6344319018900482      25.837546714903443      2.9878842587461683
   277   1       9.945473145007421      27.408151889629842      4.1881768570733975
   278   1      11.460592487880282    0.021806277660710027      2.8519636781780831
   279   1      12.819212412723409      1.3942911145039945      4.2079518189208258
   280   1      11.397207798323265      2.7793552641401096      2.9427689616710389
   281   1      12.794638460186698      4.1948585576438715      4.3617604128336538
   282   1      11.446651596647564      5.6738444198579794       2.917823746835932
   283   1      12.665880228006872      7.3021767547012226      4.2765744958782683
   284   1      11.456962633375813      8.5873855096272944      2.8269994666301717
   285   1      12.767919072792406      10.262729023001837      4.3116125848748794
   286   1      11.393779927179635      11.509409503118128      2.9477627919699456
   287   1      12.763878168235841      12.881844201624265      4.3636411890450502
   288   1      11.455705674870064      14.531127531464959      2.8992901061696452
   289   1      12.863556696335213      15.844821397452069      4.4404684609331255
   290   1      11.632328221509781      17.205429210227614      2.9167413525634855
   291   1      13.104959013994492      18.763440000706112      4.5167149807198932
   292   1      11.564861541989375      20.059773488197763      2.9669903772475861
   293   1      12.884110805292009      21.558217036775282      4.2890413811143606
   294   1      11.594200750392726      23.097443142012427      2.8806160332422261
   295   1      13.019644133827292      24.352187544208238       4.229737299488078
   296   1      11.512292082253765      25.942028736979879      2.7597070274534983
   297   1      12.869951738291178      27.203032868102213      4.2410731629043701
   298   1      14.320981593935947    0.013279494488404169      2.8834611356381545
   299   1      15.839111314335568      1.2598933738919642      4.3569520621344422
   300   1      14.357311309934278      2.9152186826423745      2.8356896049608293
   301   1      15.790240111812889      4.3209632420804436      4.2243315264935974
   302   1      14.342529748898519      5.7863243307956163      3.0109748394326745
   303   1      15.786770854467061      7.1773835800121333       4.236587155463007
   304   1      14.290886553282027      8.6847633186488036      2.9344962078847017
   305   1      15.985284685584856      10.271062026061637      4.3395261271240253
   306   1       14.47610864350686      11.531328411275963      3.0166232990509441
   307   1      15.827691124845272      12.978213156174149      4.4648541953526868
   308   1      14.576848774407024      14.346388112569221      2.9330568957882819
   309   1       15.66865819204205      15.915688279491121       4.412558413482178
   310   1      14.492130571749248      17.372339637102467      2.9368848400744714
   311   1      15.766884022984227      18.681692386395508      4.4551376477232489
   312   1      14.423496513003126      20.083120941886168      2.8347604617590365
   313   1      15.617073814410958      21.426733377379136      4.3540974210635675
   314   1      14.424037727624764      22.898474317235024      2.8456408961325792
   315   1      15.625564029566135      24.388050748212866      4.1947190351591912
   316   1      14.265371001330342       25.91580874845906      2.8630312121735071
   317   1      15.722246331190368      27.089071276593089      4.3772723432474043
   318   1      17.050539323368735      28.626884529628772      2.7933912825300009
   319   1      18.653449263507632      1.3119134485456017      4.3309589432297582
   320   1      17.176983013775455      2.7761510497507755      2.9038036753462495
   321   1      18.588469160599587      4.2108786342207489      4.2680144798604314
   322   1       17.21377679981029      5.9399219977541158      2.8325285838430982
   323   1      18.700026367896712      7.1978618930150766      4.1889192549196697
   324   1      17.146754733282965      8.6567909830288912      2.9443190921018876
   325   1      18.591204408629533      10.098523687203647      4.3148037489320981
   326   1      17.296273414189425       11.56735624191445      2.7350080587125958
   327   1      18.446351235539982      12.976894725789801      4.3636044126157607
   328   1      17.094380827520339       14.24683834897642      2.9932284244879415
   329   1        18.6162864843592      15.833166884813215      4.2635618728850666
   330   1      17.127109409566597      17.229471804775493      2.7864059990922434
   331   1      18.593322606042758      18.719377916054633       4.481831398069561
   332   1        17.1404437356017      20.019728739250418      2.8218620726513106
   333   1      18.594306377491918      21.501462844688298      4.2141544133066189
   334   1      17.066155308985849      23.010089728221406      2.8674879394379675
   335   1      18.568235705628538      24.110359637969943      4.3910960179829379
   336   1      17.205678242280577      25.805740110355558      2.7194600562389373
   337   1      18.570342233613353      27.136854736833055      4.2150638167227577
   338   1      19.900348362765765   0.0080722058671200848      2.8814363217776346
   339   1      21.558599925038148      1.4768748678667649        4.34027817857132
   340   1      19.984539058303582      2.8858747294802933      2.8240036350597273
   341   1      21.415060469468187      4.3362467037835595      4.3724424993598445
   342   1      20.171623974019358      5.6342686726356037      2.8622824327004417
   343   1      21.407506295005284      7.1679679813317616      4.3691049509671753
   344   1      20.224618334885534      8.6583613485827549      2.9233672364072261
   345   1      21.592856446656114      9.9855904071540866      4.3674255627056029
   346   1      20.077607617689424      11.532450646388082      2.8941854224186176
   347   1      21.274210305814833      12.851120691936604      4.4086121687958668
   348   1      20.079118895093742      14.362355470883736      2.9949641289279936
   349   1      21.475863874047437       15.76492600933461       4.296202734638551
   350   1      20.156708462987446      17.132495186435822      2.8364269706598737
   351   1      20.100016654598026      20.115007061449003      2.9937462415188749
   352   1      21.700649592470263      21.569319214129994      4.1621867282849037
   353   1      20.016576047746472      22.903417953069923       2.747232476879538
   354   1      21.498876500253566      24.245969957274863      4.2220957429522548
   355   1      19.989268153815384      25.840546665536149      3.0447565777201957
   356   1      21.521806314059738        27.2768410637572      4.2667990328064604
   357   1      23.028702512571758      28.677668864923039      2.6858776388541723
   358   1       24.29194413078234      1.5669804934042293      4.2795880072839649
   359   1      22.966114732404108      2.8481116018193222      2.7854737631425097