dump/Fe_750_20/steps_21 (written by ASE) 

1980 	 atoms 
1  atom types
0.0      28.699999999999999  xlo xhi
0.0      28.699999999999999  ylo yhi
0.0      28.699999999999999  zlo zhi


Atoms 

     1   1      28.604330856136215      28.624531961131424      28.655252556762321
     2   1      1.5198421463579501      1.3811023131022699      1.4903761436286684
     3   1      28.670738044810552      2.8435038660444429     0.26025961431068922
     4   1      1.5662205608069033      4.3229065171177652      1.6225153592830335
     5   1    0.078757525485491794       5.856981556164933    0.020600534275604324
     6   1      1.3482529282681179      7.1878153673167908       1.471100416877833
     7   1      28.559825214386624      8.5836207434649534      28.614495069357773
     8   1      1.2711741479896099      9.8653551619004336      1.4654987951413894
     9   1        28.6589582397248      11.474208243135864      28.638335362099227
    10   1      1.3284608288550308       12.89638711944041       1.408415519312608
    11   1      28.637326649297265      14.269265978912903      28.617620056040721
    12   1      1.2992606734992376      15.805825346533974      1.5105380163296549
    13   1      28.628532404692098      17.302796848818645    0.096084973617712524
    14   1      1.4032715828503122       18.71993316480502      1.5396213045147298
    15   1      28.586681139872386      20.046366503977019      28.679781434128699
    16   1      1.4373964226290692      21.462110476659326      1.2479573107147537
    17   1    0.092072672025031679      23.096835847843799      28.639633648503992
    18   1      1.5998850896742993      24.401808581518189      1.4081466373247045
    19   1      28.677500806982042      25.952270717406186    0.068942545359163776
    20   1      1.3895018602095681      27.341449926756273      1.4590727319588503
    21   1      2.9948892852552338      28.690136583509133    0.094429353279270004
    22   1      4.2224120548886326      1.2676944103962346      1.4899950021873891
    23   1       2.889165990055599      2.8058059830355551    0.026351231645548968
    24   1      4.5161306125905547      4.3323999916512665      1.4601763840697106
    25   1      2.6823072214863934      5.7587785407114236     0.17095505566080657
    26   1        4.36504198066398      7.2089275962759043      1.3610060268590474
    27   1      2.8092722960065677      8.6543416997633624      28.608431778699771
    28   1      4.2973517690221694      10.034547734679492       1.508331262596561
    29   1      2.9017480923473502       11.50980155452257    0.011883976422382148
    30   1      4.3835563304129161      12.968755872822545       1.399784118623894
    31   1      2.9879906647437493      14.220814474862271      28.680267466327336
    32   1      4.4254968318863854      15.756960420768047      1.3229539838856004
    33   1      3.0316370518944753      17.267312247359953      28.631649868049465
    34   1      4.4796753419065451      18.661594033101998      1.3149197762273841
    35   1      2.8732227806204191      19.991419628640855      28.691980881548176
    36   1      4.4747315730076549       21.39963615850672      1.4733290102805656
    37   1      2.9153546548936897      22.976057687159098     0.20658720047764506
    38   1      4.4067310859616811      24.450838830097698      1.4937293725618703
    39   1      2.8616395677475475      25.864857709941795    0.019568109659439867
    40   1       5.723358476487955      28.455726998971489     0.13064226141501648
    41   1      6.9885948837822935      1.2606449970951421      1.4875643392855871
    42   1      5.8217819166844587      2.8784628970873842      28.624695064937402
    43   1      7.1215479268207451      4.1006278289016818       1.468899847929332
    44   1      6.0079431613424221      5.7022093364726754      28.590563508780367
    45   1      7.1831308053452743      7.2176587972519997       1.405478753890566
    46   1      5.6855333605724754      8.7758142969805526      28.646267843756664
    47   1      7.0954377860978433      10.211140707381526      1.4357018455588457
    48   1      5.7600205561994331      11.526948337256252    0.059368747726296175
    49   1      7.0856645622125196      13.155905286919969       1.429882089645377
    50   1      5.7097933042484241       14.41654129227557      28.557368444635927
    51   1       7.236848860309558      15.828004313236001      1.4743283996503791
    52   1      5.9743046378455782        17.3033717695665      28.672785417438408
    53   1      7.4260275932127646      18.627280770869191      1.3971525808756158
    54   1      5.8125553592080568      19.964544119791913    0.041832349388448715
    55   1      7.1833469109209753      21.433107376865159      1.5799594320831034
    56   1      5.6790848138532288      22.987888550003316     0.12154246399194335
    57   1       7.257743708014937      24.524721174919545      1.4707699102790917
    58   1      5.6937230034213044      25.865071662717273    0.046909830274421471
    59   1      7.3958750985855675       27.14737686889633      1.3463961617412112
    60   1      8.5679330038984087      28.666066712428432      28.608676971628327
    61   1      9.9659304019441954      1.2241865363074225      1.4308594409730977
    62   1      8.4493574139823657      2.8432914987771261     0.14094694963077906
    63   1      10.212458520268843      4.2200521842452066      1.4171954046057524
    64   1      8.6289876472781923       5.704679579567669      28.612456356119413
    65   1      10.021976249095875      7.2319133080756712      1.4052653110339293
    66   1      8.4548138215518218      8.7120361553198702      28.623461260055354
    67   1      9.9147315710240491      10.067690912358453      1.2781952335450217
    68   1      8.4610597444430162      11.526844877343205     0.14576245473754168
    69   1      10.056274834559737      13.019590092272706      1.3619630526447286
    70   1      8.6856035423634115      14.399110529761504      28.571753738580021
    71   1      10.073160501500137      15.952237955797226      1.4567379216483007
    72   1      8.6681297324646103      17.321979887893047      28.689061978771868
    73   1      10.075173994544118      18.504764813971825      1.4371851973656127
    74   1      8.7408220030514077      20.042388950117683    0.071443708011497548
    75   1      10.205708772052381      21.514538130382164      1.5549019414903573
    76   1      8.5627942857757251      22.959660439474469    0.081577030780022208
    77   1      10.082278578127275      24.477752059069321      1.4112634643096962
    78   1      9.9299894258993415      27.283791451104779      1.3570428187531307
    79   1      11.543453006430031      28.557841595930487    0.050140042353643798
    80   1      12.989282062527979      1.3540489154492534      1.6303263823615692
    81   1      11.497920809788479      2.7528527502374578    0.082992144751483532
    82   1      12.718834449743788      4.2552829327251604      1.5154820665514874
    83   1      11.430467447286146      5.7161923236018986    0.025183683774866926
    84   1      12.739515126691748      7.2822906926645583      1.2915738115298825
    85   1       11.40319519567646      8.6224052577070065    0.011250491614202924
    86   1      12.830179484070804      10.242573529790482      1.3134404057139026
    87   1      11.392045148053557      11.527972374402442      28.581438238952444
    88   1      12.906463209617456      12.908978398385047      1.2313561523880816
    89   1      11.606037552217581      14.427866997402308    0.032597230853923506
    90   1      12.986395136899006      15.762420607023184       1.344778381910168
    91   1      11.372913611808052      17.291556778408133    0.017052956133466069
    92   1      12.996332883993587      18.647519925157493      1.4558403398968838
    93   1       11.46245924832605      20.207542584014885    0.012145303280442469
    94   1       13.05790678443341      21.452199720477537      1.5345334308311056
    95   1      11.575453706601087      23.013161794456956    0.015881211154044183
    96   1      12.950181199019719      24.248146284393041      1.5382846651191817
    97   1      11.626506581922598      25.855109485475925    0.094673059212141267
    98   1      12.919265153522387      27.196421766824152      1.5109805452275269
    99   1      14.290974503319182      28.530536663543121     0.17639505768305519
   100   1      15.783224910256461       1.400605462577913      1.3609472010200299
   101   1      14.459027999236795      2.7941248673246397      28.657328173736733
   102   1      15.762223863823674        4.31197130707646      1.2521504777522743
   103   1      14.386372087364276      5.8166318259285381       28.64785417321815
   104   1      15.834949123396646      7.2599025196457205      1.3031208834844497
   105   1      14.283367650230565       8.638276529232126    0.033431892703720101
   106   1       15.74321659518878      10.187537340558379      1.4092282329651082
   107   1      14.363465187348803      11.309722874865114       28.61110864629558
   108   1      15.843995493551519      12.891855737902898       1.485239381574968
   109   1      14.364232477238607      14.268714876984822      28.424078930312024
   110   1       15.88141142757722      15.736565702923519      1.3252493007643811
   111   1      14.230036963588978      17.188879885295147      28.597051203304918
   112   1      15.951476178996415      18.808382494419195      1.2604543191568616
   113   1      14.240608288220839      20.179425388295286      28.652166332133831
   114   1      15.754775223613201       21.69026126948555      1.5366132694913979
   115   1      14.313906455242956      23.025111812571183      28.652123534342795
   116   1      15.846692108722957      24.208740543320541       1.227927915026408
   117   1      14.408945464418776      25.801024702576079      28.644387394138093
   118   1      15.878471972168773      27.101667629129206      1.5294249328232001
   119   1       17.22452669628008      28.523640898357769      28.590385015497905
   120   1      18.814943161788491        1.36902289535875      1.4473751971633186
   121   1      17.229057166657686      2.7897692912725378      28.495450204131547
   122   1      18.498889732629547      4.3218815789622846      1.2477869149133185
   123   1      17.228497188862296      5.8640098447274926      28.675359308178891
   124   1      18.732272984213321      7.3131570231061316      1.4875172788212347
   125   1      17.298719445631889      8.7923319899434897      28.642998687923498
   126   1      18.612321251596697      10.220056726255708      1.2710270609161856
   127   1      17.085778175228853      11.685712606458109      28.578991733152566
   128   1      18.686535076147788      13.030208582656618      1.4415574066863752
   129   1       17.27769265935294      14.339419356844868      28.588173298298152
   130   1      18.693978860980362      15.743042147734776      1.3630358032905625
   131   1      17.452455952785144      17.234062701394979      28.662717563098674
   132   1      18.652207714908467      18.697723195007864      1.5251489083980687
   133   1      17.250618268880146      20.227695293541636   0.0066408444251806024
   134   1      18.760523892696551      21.649049490038593      1.4782349746641434
   135   1      17.389428556791042      22.931307263929764    0.046977082701278164
   136   1      18.629019474743998      24.396176477940461      1.3300023538829018
   137   1      17.130147068148453      25.715442948358866      28.642556401418318
   138   1      18.575845505933884      27.251429105888647       1.432013017533962
   139   1      20.127554895480881      28.501093223385627      28.611577931911345
   140   1      21.642366451627002      1.3585881431235629      1.4572173170584388
   141   1      19.996022497197131      2.9060656401269753      28.580863812828984
   142   1      21.477537790491333      4.1348484313942802      1.4987223705010713
   143   1      20.114027773648715      5.7421766353508419    0.042034383769873666
   144   1      21.477063265794239      7.1202495820442957       1.454413755584028
   145   1      20.081382749538708      8.6401808201952921      28.627284457006827
   146   1      21.320305477719089      10.110161163437059      1.4132935921787184
   147   1      20.161231503377088       11.75906621468666      28.540563258909117
   148   1      21.618007078527963      12.850358300089162       1.389339058734139
   149   1      20.043921920316141      14.432272547639441    0.046112838430508458
   150   1      21.569957518190144       15.87745470379836      1.3034591359309375
   151   1      20.056205699615827      17.295662227025748      28.693223322624377
   152   1      21.502170215347896      18.568334479474323      1.2552246283701589
   153   1      19.994152478125333        20.0539673984396    0.040498596338602456
   154   1      21.546319411262115      21.515431937836368      1.6280494703181942
   155   1      20.212322611924588      23.050724023984746       28.58912067958444
   156   1      21.528365723011291      24.396748345922877      1.5349663480224751
   157   1      19.990907825592835      25.786632662976476      28.662727195344587
   158   1      21.505516831076189      27.268543262447778      1.3865443082068514
   159   1      23.062567506557972      28.617755337484528      28.632135144964167
   160   1      24.303536811928478      1.2503267614610774      1.4034324002650795
   161   1      22.923094512343688      2.7768603449051064      28.654798533241205
   162   1      24.342955109884926      4.1921876813560415      1.2859969118575107
   163   1      22.878933043472159      5.7105801451179898      28.647142881155833
   164   1       24.32896168534889      7.2940878469028281      1.3632003121760601
   165   1      22.795259799647777      8.7016470069187069      28.674620836244557
   166   1      24.256033888314501      10.225049512353557      1.3131710562596244
   167   1      23.005467005269907      11.536577567687269      28.459771649882548
   168   1      24.269281806529598      13.043059331632037       1.251551237245097
   169   1      22.876375113870814       14.47399175473911      28.642663787913804
   170   1      24.383627132071449      15.754677757910404      1.4429409734953209
   171   1      23.177272256047495      17.089246373449512      28.649747658965815
   172   1      24.414822940255707      18.759776353731628      1.4558550115562983
   173   1      22.986401518661197      20.226347329006366     0.15644049849581718
   174   1      24.528427600586191      21.523520484451264      1.6438474499216331
   175   1       23.11867520103025      22.897556166871862     0.11610060409830111
   176   1      24.388360630229556      24.276320716133299      1.4887931374442369
   177   1      22.982555989344046      25.838948433298089     0.11473817299420261
   178   1      24.361779263258239      27.302329833655239      1.6646005175764342
   179   1      25.684694954316043    0.026375126045094871      28.645296611030659
   180   1       27.20987094676061      1.1707591516864322      1.5283377640939293
   181   1      25.881899651480222      2.7846081862119729    0.086273795568183598
   182   1      26.987804698905368      4.2023725824745393      1.4851347927713037
   183   1      25.936975292494317       5.666112466867526      28.584617241214719
   184   1      27.168810048531984      7.2250668677724645      1.3052594086388358
   185   1      25.859703206401999      8.6236280797476876      28.686871305573987
   186   1      27.281782632424321      10.167172425475828      1.3648602029125299
   187   1       25.76863353444659      11.527863056968123      28.664898100389898
   188   1      27.147536927938919      12.862628078296074      1.3198889522275752
   189   1      26.031464434775192      14.391807448140503      28.640572200959671
   190   1      27.376990566649791      15.713513508188743      1.4125238921180181
   191   1       25.85548438856376      17.263012028911223      28.686829441638977
   192   1      27.359894972993001      18.692632801721896      1.5429102249880429
   193   1      25.781715125003064      20.176512590490304    0.051810111400277581
   194   1      27.148860031055388      21.557401242235184      1.4108315619573442
   195   1      25.980960111474442      23.056662456931313    0.026499133648746908
   196   1      27.348747033893972       24.32994531034673      1.3994139356377111
   197   1      25.833627360909311      25.755523991061164    0.079713117855760685
   198   1      27.140371973832899      27.214408006129773      1.3562256426893675
   199   1      28.668129368060661      28.525195712433259      3.0120575213252416
   200   1      1.6010555633282935      1.2608930257028208      4.3189268419116811
   201   1    0.070552326761640305      2.7822882898735881      2.7993062654753098
   202   1      1.4233642477928463      4.1845339733667855      4.2649356779568777
   203   1       28.52732573955889      5.5508527432683401      2.6712463117209033
   204   1      1.3704861188800594      7.1269994094165883      4.1592649882894204
   205   1      28.650100021285599      8.5623307195728842      2.8465507090381612
   206   1      1.5325350802213848      10.112946710142003      4.3122136612001043
   207   1   0.0087276298770243409      11.491635216934309      2.9653629604623801
   208   1      1.3518197838391186      12.942621181006917      4.3838683407326791
   209   1      28.622585674267171      14.224069207223453      2.8277701285059247
   210   1      1.5460067690367978      15.938268285513143      4.3735263841110275
   211   1      28.676292812910692      17.161435190723836       2.904874475848366
   212   1      1.5480275358289761      18.642384662173512      4.1807877812068712
   213   1    0.035868671502363732      20.257814379252178      2.7631990814061158
   214   1      1.5247604396528136      21.549165128544779      4.2580162083753077
   215   1       28.67414345538117      23.053745094739121      2.9039950016444767
   216   1      1.6206161810683524      24.464549370195741      4.2443580948996722
   217   1    0.063906995362744481      25.813637921668644      2.7196408387724551
   218   1      1.4385436189400482      27.238380155944661      4.3527468564029812
   219   1      2.9585262605575227      28.606310733293586       2.865046840059243
   220   1      4.2762615582248538      1.4051901705692331      4.3368376023206867
   221   1      2.9299091033838729       2.841420578611189      2.8937730045434273
   222   1      4.4367847441428037      4.3273889463960709      4.1441358154563526
   223   1      2.9018568286225697      5.7665143937804952       2.928332387676333
   224   1      4.3211497296607542      7.1390399904084552      4.1711956779215571
   225   1      2.8473876108705536      8.5741699003924623      2.8751068483469875
   226   1      4.3045883125438005      10.247310296053138      4.4367854044185346
   227   1       2.937035512322717      11.549843081801752      2.8761047253739811
   228   1      4.2990223549896349       13.13274248212255      4.2947983322480257
   229   1      2.8490759797911909      14.379198145055586      2.7794043523248071
   230   1      4.1883018637109961      15.908536510549677      4.3936904419956688
   231   1      2.9370145525585101      17.152116399082317      2.8212360279490536
   232   1      4.3336312971049455      18.582379414940831      4.3062012188231353
   233   1      2.9818767247318569      20.146991393888811      2.8943670752942521
   234   1      4.4663525344992339      21.572784226801783      4.2744585126649133
   235   1      2.9955796343943302      22.957582922787971      2.8323154358598561
   236   1       4.371220850554673      24.462932026902859       4.347907059933152
   237   1       2.734888833363903      25.783084381283938      2.7512321888132969
   238   1      4.3641005072392574      27.077996956982524      4.3592274160022573
   239   1      5.7581966259884991      28.521661206335626      2.9875715317105471
   240   1      7.1702137600546703       1.427831480363249      4.3704404675572572
   241   1      5.6718952114357544      2.7829266550136014      2.9531467280551218
   242   1      7.1867477766486463      4.2003297124133763      4.2070552859547119
   243   1      5.9457561600636071      5.7838573596943732      2.7999973765463197
   244   1      7.1646244150440843      7.3099104860385316       4.296391824451911
   245   1      5.6531533788185735      8.7715974821337923      3.0140480782250334
   246   1      5.7002952967648861      11.530114693290596      2.8636257544431385
   247   1      7.2583153768711854       13.07545235298012      4.2743205687255221
   248   1      5.6621697851525896      14.387464487435448      2.8505577300074147
   249   1      7.1928682443242895      15.765899070184943      4.4444099983178464
   250   1      5.8589289865828702      17.171655493857607      2.8825070238766077
   251   1      7.1296926055653822      18.796182900700089      4.3401237168113518
   252   1      5.8335564847542649      19.971006926814752      2.7630986032662452
   253   1      7.2487404658949908      21.593000526777249      4.2334377022676035
   254   1      5.7713102595537746      23.100224253788774      2.9268400048033154
   255   1      7.1405084868986242        24.5012066999378       4.516565404055461
   256   1      5.8630370370942186      25.941674381458668       2.876588724602402
   257   1      7.0911122257420685      27.208525841189513      4.4479290216878224
   258   1      8.6297528799909671    0.035882371923719653      2.9392626887578794
   259   1      10.109388295570692      1.5216222532710972      4.4758493390621634
   260   1      8.8382154310017356      2.7900235328098231      2.7947720299526728
   261   1       10.08013014476812      4.2351376665149134      4.2608701876891564
   262   1      8.7263291653311956       5.759501609028252      3.0159066468129261
   263   1      10.094907705005506      7.2327641871757935      4.2372299450808519
   264   1      8.5260618177811462      8.7299131683541837       2.829019811119827
   265   1      10.018298530812906      10.049878722623195      4.2252507562146446
   266   1      8.5896865918039538        11.5668632301493      3.0121379630343426
   267   1      9.9487618231320738      12.976938843497679      4.3671559344048498
   268   1       8.805685077592722      14.588741574393817      2.8460651572820996
   269   1      10.087161337510915      15.794690859314825      4.4430630317495696
   270   1      8.5387009194320331      17.228502042775137      3.0929172837015129
   271   1      10.106925626317762       18.56115738739356      4.3645705230038701
   272   1      8.7086207186003612      20.090134107098642      2.9160671900923685
   273   1      10.185344603174968      21.641431819862742      4.2586703256191427
   274   1       8.563849442796311      22.919660535235245      2.8183266558163136
   275   1      10.110634861657264      24.402607831208584      4.4393875690650111
   276   1      8.7599583144226276      25.800347905938743      2.8559865964495419
   277   1      10.130013684256562      27.200349398860048      4.6185492835777424
   278   1      11.325908317210493      28.482336544638319      2.8567414042977708
   279   1      12.834021288333107      1.3737051033776435      4.3161746583820415
   280   1      11.519235743421586      2.7060511878322124      2.8773072830927844
   281   1      12.873977523713227      4.3725764808682612      4.1100838066715957
   282   1      11.421943119412681      5.8737415797560288      2.7568536749585282
   283   1      12.928285886338893      7.3459150383649474      4.2363545083493372
   284   1      11.554893349407779      8.6932385133727514       2.878344005772342
   285   1      12.909670092961083      10.237769617005357      4.4202636583053829
   286   1      11.335542148066477      11.635119035476935      2.8265025235449799
   287   1      12.911377943063428      13.007361215146551      4.3462273641188807
   288   1      11.499191313882081      14.199108995602765      2.8131347479516409
   289   1      12.997441759765701      15.637463783904424      4.3081082805631965
   290   1      11.546093873168664      17.256420549347428       2.909542311163011
   291   1      12.912534563749817      18.749212381093447      4.1809110513921244
   292   1      11.525420763814495      20.159018300105039      2.9421990958611524
   293   1      12.979551242688915      21.470626138895032      4.5160932776461218
   294   1      11.524364096180351      22.792099670631853      2.8007160586222306
   295   1      12.883132391468642      24.275797926896271      4.2929048913689067
   296   1      11.441849016098017       25.91157270245337      2.9327103277254776
   297   1      12.958871256341284      27.292379602629929      4.3324796816117113
   298   1      14.451237827107697    0.054339889806726799      2.9968115238196202
   299   1      15.697523614233688      1.5471926476085278       4.429473670618834
   300   1      14.329877253246758      2.8263919356662091      2.8158365044374816
   301   1      15.560906462695961      4.5077474192104567      4.3560701957181918
   302   1      14.359106047431279      5.8218868408628088      2.7522087477899038
   303   1      15.884342037087288      7.1886877095319068      4.2996323957903382
   304   1       14.31990204731553       8.780101048197853      2.8939788350143809
   305   1      15.806193393405907      10.126823740187685      4.2868833453216348
   306   1      14.304163877690319       11.48237289349874      2.8456580583389948
   307   1      15.796947596098036      12.944753012612921      4.2317151470196075
   308   1      14.406433599778165      14.321315692107884      3.0180847386068006
   309   1      15.739426731804226      15.978981260544932        4.32054478903689
   310   1      14.382608713483068      17.263796721878041      2.8399716528473276
   311   1      15.809621522093099      18.664993041545568      4.1470958849895432
   312   1      14.468973040237199      20.070941747295311      2.7524771575673075
   313   1      15.681036779558966      21.632502397166601      4.3045344926973161
   314   1       14.31543367621941      23.112856951805192      2.9034122339114856
   315   1      15.870389055294963      24.328491040628254      4.4071350602334727
   316   1      14.435955454991358       25.69959203410011      2.8978957130756013
   317   1      15.651855448662332      27.104269618761727      4.3522791636268989
   318   1      17.095262730607352    0.095351132819564699      2.8418259196097906
   319   1      18.558082790315265      1.3594464730675089       4.320408300360703
   320   1      17.035051314377146      2.9182992303103901      2.7243209992689921
   321   1      18.560160164048149      4.2980086906498531      4.1332643779352081
   322   1      17.031926454642068      5.8793786492850311      2.7503094877079999
   323   1      18.478728193573954      7.3130530179869648      4.2342354464148864
   324   1      17.065587315243842        8.81568427798417      2.8413626181743892
   325   1      18.833592615848069      10.169485467598422      4.3630466954761546
   326   1      17.207055905777942      11.509828625909359      2.9106568384587428
   327   1      18.540321285930869      13.181789862998279      4.3258577011844528
   328   1      17.237929032663942      14.458799147008657      2.9408173433846332
   329   1      18.761384922275031      15.805873725853129      4.2970739207642303
   330   1      16.964067988050655      17.258574611295884      2.7120782792801501
   331   1      18.737343046485531      18.747542445159773      4.3705189635470187
   332   1      17.261633111492259      20.297181593602158      2.9096624716336952
   333   1      18.768284669044053      21.609446683988036      4.4270201251155861
   334   1      17.129659561843862      22.991298654276179      2.9471258064709418
   335   1      18.697520550584951      24.377035968928677        4.52841949923548
   336   1      17.189706080913922       25.80627288547187       2.902624447146116
   337   1      18.567798719778821      27.270755238008444       4.458508802928657
   338   1      19.942365379659559      28.480045701013129      2.9124106154233105
   339   1      21.403550297796002       1.349268428253015      4.1797456321344812
   340   1      19.945301163663558      2.7267721108317913        2.77922272952252
   341   1       21.58241627786547       4.324521684672801      4.2879512971080453
   342   1       20.07702665601111      5.7051821387749531      2.8995368664569714
   343   1      21.453325619907272      7.1620295226970603      4.2100128159203862
   344   1      20.006655613163041      8.6275720729271761      2.8050682602151809
   345   1      21.301650337014983      9.9906192631127109      4.1386998271499742
   346   1      20.096518037576896      11.639156062451974       2.896200279194153
   347   1      21.538207357608773      13.020308584870582       4.201953593778347
   348   1      20.164193512981683      14.308320177624999      2.8301872892315831
   349   1      21.520222041623541       15.78642526599185      4.2842114166463334
   350   1      20.241044863582331      17.229384971448852      2.8044762992052594
   351   1      20.167755292491275      20.030296851239029      2.9475993105276945
   352   1      21.607764468718226      21.614909236767428      4.3451075864753728
   353   1      20.005501673232562      22.987679353416222      2.9420257447479488
   354   1      21.450133142333225      24.429467629812354      4.5282846523998801
   355   1      19.904468374032252      25.930952226919459      2.9805029810955221
   356   1      21.509324532767547      27.243979009866834      4.4549192280175278
   357   1      22.729346517687159        28.5857635258666        3.00782505933282
   358   1      24.367901575470171      1.3800477240198248      4.5088838773192226
   359   1      23.024791293440707      2.7718533538343983      3.0433588099092423