dump/Fe_750_20/steps_31 (written by ASE) 

1980 	 atoms 
1  atom types
0.0      28.699999999999999  xlo xhi
0.0      28.699999999999999  ylo yhi
0.0      28.699999999999999  zlo zhi


Atoms 

     1   1      28.654550043188667     0.16668474114730988   0.0093314670732411176
     2   1      1.3821462404497666      1.5275197083694605      1.4422450609709589
     3   1     0.05228622501513399      2.8583712654448514      28.528045862649311
     4   1      1.4540260874709017      4.2110811370082386       1.390609361499183
     5   1      28.694123321868432      5.7069816679695151      28.581406690352651
     6   1      1.3806215906737644      7.2363875099640946      1.5875814982785059
     7   1      28.574961485143067      8.5593549791799433      28.674174262056599
     8   1      1.3950529531057227      10.010143807435544      1.4529980652237322
     9   1      28.695095834757186      11.353559441367068      28.453123344585279
    10   1      1.3949240308519726      12.789783706753882      1.3146349643548316
    11   1       28.62146722127811      14.471811318451504    0.062085001376351631
    12   1      1.5264443315382552      15.725182574500446      1.4381675181651989
    13   1     0.10479769817555097      17.100698580978356      28.569436264062393
    14   1        1.57647999074003      18.636778369858398      1.4405411649467952
    15   1     0.15443571780001836      20.150621912352744      28.619060322318834
    16   1      1.5940739210487009       21.59830781120991      1.3543793286336823
    17   1     0.05762935300970335      22.854121293338856    0.058025928730762732
    18   1      1.3860704784235311      24.425357477834574      1.4316580376605779
    19   1      28.411442591975987      25.879094400903387    0.047444272788936773
    20   1      1.3999581824266465      27.101043619162343      1.3357534303002703
    21   1      2.9600136555041949    0.052075131885785074      28.621291413175943
    22   1        4.39069003084962      1.4279106391280494      1.3947224251747099
    23   1      2.8118641225988767       2.759096728375098        28.6777764803407
    24   1      4.2692199419487222      4.0525123116529143      1.2580630974655147
    25   1      2.9179938418615259      5.7035243863127194    0.013422608223277179
    26   1      4.2024379139728731      7.1661260412879573      1.5175572729189311
    27   1      3.1186800700662478      8.6473728009745017    0.033789983978545088
    28   1      4.3682936501254304       10.21222001437121      1.4928646097845555
    29   1      2.9070337678238243      11.504585912677786      28.631433256706856
    30   1      4.3330689414176673      13.001039822256406      1.4343251881235219
    31   1      2.8935004669920392       14.32412478503768      28.612462157822112
    32   1      4.2772205132265757      15.640185820755395      1.3420771177304915
    33   1      2.7342603459670531      17.172008103366444      28.613170570805011
    34   1      4.4066539196494938      18.637022452505779      1.2882459649169153
    35   1      2.9886472915110782      19.953968097725145      28.675853892089325
    36   1       4.368059037431677      21.515561891422649      1.4895823117009508
    37   1      2.9104126970905329      22.970783629529226      28.677521358162238
    38   1      4.1871368683742238      24.256157919916152      1.2913694762458914
    39   1      2.9449581447131989      26.031035616795144     0.11167451264069543
    40   1      5.8524386131981148      28.651957560831466    0.056509438735918086
    41   1      7.0632982792769976      1.3742162104743429      1.6223294756068642
    42   1      5.6474696857842979      2.7408218298159692      28.584303298505834
    43   1       7.193943262993324      4.1754266369615358      1.4981183336174799
    44   1      5.8527310680713054      5.6453071762942049    0.088944343891171299
    45   1      7.1903456545685884      7.1463408947711455      1.6106167211984943
    46   1      5.6710050220194201      8.5709706688264315     0.18850327662262314
    47   1      7.1412325948388027      10.022658722328277       1.421808995033883
    48   1      5.7861528651245511      11.578650977690092    0.058787044962173254
    49   1      7.1544100324364654      12.772623803788854      1.3883155782172012
    50   1      5.7446862719768426       14.45011092272852      28.637749817916955
    51   1      7.2308302162270532      15.697837899878833      1.5474687025922322
    52   1      5.7651081439400036      17.219345238508026    0.029256903922134848
    53   1      7.1321049645309866      18.815355664046553      1.4772838932394721
    54   1      5.6846019098282765      20.092970073094957      28.663826217329106
    55   1      7.1241646812007069      21.564531609477527      1.5385166903473633
    56   1      5.7536583683450102      22.905641587079614      28.630016014812448
    57   1      7.2152625749909216      24.400355300591698      1.2975757336474438
    58   1      5.7412658072538507      25.798720850637235      28.676170757065847
    59   1      7.2813744274009533      27.101860546769469      1.3727160739587485
    60   1      8.4851876860118978     0.14368503691426893     0.10714645713568428
    61   1      10.069864000701525      1.3434862770239306      1.5203055623017465
    62   1      8.5146142074797222      2.8075879202558549     0.18674779848648779
    63   1      9.9691140350000769      4.1971617659016029       1.510492004242769
    64   1      8.6422872879453152      5.6757687180986744    0.067571155851669534
    65   1      9.9279574364099759      7.2040061123128307      1.5104038110804152
    66   1      8.6524441723587469      8.7056995455641921     0.11384484381933352
    67   1      10.122064231914907      9.9835439558073897      1.4975263372713012
    68   1      8.7055568806160917      11.359013421678307     0.10178785075463556
    69   1      10.193358463710926      12.950198834839638        1.45099460057346
    70   1      8.7153863073036817      14.359913122053493      28.648010405383292
    71   1       9.978034145329902      15.896064209051771      1.4903703015241934
    72   1      8.6304208145888079      17.179686895820332      28.599835943442685
    73   1      9.9519984020901902      18.727470611165607      1.3604092143833895
    74   1      8.6934438769614033      20.182523824213956    0.048776697932930886
    75   1      10.108559594278507      21.754972807903425      1.4960750130435265
    76   1       8.557735740604274      22.971082770642091      28.493586673147192
    77   1      9.8340784582249405      24.534426722127588      1.3356929082817819
    78   1      10.004126029362139      27.189229215689032      1.3014269095809579
    79   1      11.459121320507467    0.042222520153609257    0.019698891278949283
    80   1      12.896904518984726      1.3737190528200924      1.5591902357502938
    81   1      11.540084911334658      2.7192981879963329        28.6671223319494
    82   1      12.721144608111365       4.304199699167861      1.6154138247587628
    83   1      11.466430531559457      5.7570769153892201     0.15465152970305091
    84   1      12.784763684768045      7.3016663620396782      1.4842752823647278
    85   1      11.716566588026529      8.4696175344724391      28.591733446408146
    86   1      12.874266848567371      9.9023200191257814      1.5906578228886123
    87   1      11.606906389764513      11.377080660894933     0.16776474436240968
    88   1      12.772226329371836      12.972615059919381      1.4397581590594659
    89   1       11.44177970350214      14.384310379890589      28.604165649328653
    90   1       12.85829227362345      15.753509917698274      1.4521834680900276
    91   1      11.352413976020399      17.428958011011428      28.635140320545311
    92   1      12.761202764309857      18.700183998271548      1.4785684798623839
    93   1       11.47910484938566      20.243462527322709   0.0093011130167497003
    94   1      13.000630119354209      21.533254164500903      1.4535838952887277
    95   1       11.53222615259522        23.0285412904508      28.633275002089633
    96   1       13.07838807898438      24.293329736561823      1.6812386813524414
    97   1      11.655086210983542      25.688623329793483      28.676957908377339
    98   1      12.890299865685988      27.142310941096675      1.3401266217242533
    99   1       14.32495034056449     0.06260639435813746      28.644031700912809
   100   1      15.838321073553622      1.6176064012333313      1.3414200135713159
   101   1      14.047243106149468      3.0302870749447091    0.041801026955386004
   102   1      15.897436456287357      4.2938532999728452      1.4200532321684352
   103   1      14.309193234128438      5.6346393609987997    0.074129207205794453
   104   1      15.827770805421844      7.0657524560659333      1.3601317239678565
   105   1      14.287877693651401      8.5779417737788393      28.578611676648563
   106   1      15.787682622645526      10.122221330271868      1.4282777772643729
   107   1      14.272118655803448      11.331308327243251    0.067700418654919825
   108   1      15.606631539119386      12.787782608102523      1.4988190877375709
   109   1       14.26624017110003      14.338785467748171    0.082911987784745955
   110   1      15.847871304516861        15.8123006778192      1.4134426998562952
   111   1      14.259773898745458      17.402349024598749    0.018068234589725306
   112   1       15.77647683065525      18.666136902952442      1.3274843558926803
   113   1      14.233054391341689      20.222229163901048      28.668519437703115
   114   1      15.859173638256548      21.581796924075256      1.2719886296915432
   115   1      14.433563004312825      23.033075240549163      28.547205790870578
   116   1      15.765889975852785      24.450047898164016      1.4442363052832887
   117   1      14.383760551102052      25.801108019295853      28.686709812424276
   118   1      15.820273637871482      27.342572632966288      1.3751828040164467
   119   1      17.173605272103899      28.673909945637039      28.699584241670664
   120   1      18.733391550100592      1.4822307627757931      1.4643254240122348
   121   1      17.353798582207649      2.8578096435085856    0.042045910982085426
   122   1      18.616075858405821      4.3175761354330016      1.4207185336898422
   123   1       17.38698581840708      5.6538436627568958    0.044978389577840894
   124   1      18.709184537934629      7.2895239096512148      1.4101653382966794
   125   1      17.273102767633898      8.6283268357844989      28.690404675322217
   126   1      18.766747977957355      10.085680246666641      1.3524825188585163
   127   1      17.236899669247599      11.523460192534445      28.609995080769227
   128   1      18.625654096116016      12.748865171826354        1.31235827617627
   129   1      17.348164229181922      14.287632934541485      28.617892096453708
   130   1      18.438176446647123      15.965647320709344      1.4393432108733575
   131   1      17.116758294478938       17.18114046511743      28.512397809180314
   132   1      18.591465853040201      18.462142853961396       1.411762576675607
   133   1      17.276034874859633       20.06373296860593      28.648189802681713
   134   1      18.628741803124946      21.595044958247417      1.2229461362834155
   135   1       17.18968995897362      23.085045226434307      28.659021706925646
   136   1      18.624452335760019      24.401762166692599      1.4878912193468292
   137   1       17.18706557316623      25.910246651549162      28.690203258388848
   138   1       18.70114759264316      27.462276858441143      1.3964075537214609
   139   1      20.155301718426283     0.12533841947113325       28.47907883741458
   140   1       21.54585853098677      1.4093452489592202      1.3480754009412297
   141   1      20.207612157413859      2.8944289655012647      28.602520855586906
   142   1      21.308960013197176      4.2697600348807443      1.5068666126455228
   143   1      20.120065201323669      5.8310928932152342       28.67284636899797
   144   1      21.409034694620455      7.2483526093838284      1.4131628291866021
   145   1      20.094447013074312      8.6634459093503917      28.621010145565812
   146   1      21.707125993426068      10.027767366386193      1.4828342062745605
   147   1      20.318002318934884      11.547560914810029     0.13675449104441656
   148   1      21.628271138499347      12.962658544205404      1.3688258119457835
   149   1      20.030517631586154        14.2634686603086    0.099465808728928198
   150   1      21.434062251188319      15.797286378849398      1.5869194445375692
   151   1      20.116764652432245      17.298976062069045       28.53812915827244
   152   1      21.542505871835203      18.552202732929864      1.5501600975120589
   153   1      20.224787544031521      20.168191412746268      28.599313089588918
   154   1      21.474317768563019      21.580089942135459      1.4012456150832111
   155   1      20.170429445386528      22.953130393545845       28.60764955642901
   156   1      21.636307475553668      24.458808755757438      1.5620064853030948
   157   1      20.140084016654871       25.97179958338257    0.051241573692016221
   158   1      21.519708911208024      27.445933994051511      1.4390888993683226
   159   1      23.041451354970945     0.11245378961000539      28.588670432396533
   160   1      24.474664996338589      1.5245472094858536      1.3517475905291567
   161   1      22.939425163172267      2.9871157914052873      28.567526745235483
   162   1      24.245258653575696      4.4319205774640329      1.2798894002317747
   163   1      22.767291374374537      5.9000936028195206      28.655298764058365
   164   1      24.351303938070291      7.0444785484336032      1.3909416195396496
   165   1      22.938599645219981      8.4798569958771832    0.059100683617748562
   166   1      24.471672936242989      9.8822439320036892       1.427583112455727
   167   1      23.142456086948208       11.50793817010212       28.64420761740071
   168   1      24.533482361773114      12.786658140991889       1.340806806942191
   169   1      22.967830456546803      14.357818608200134      28.664702569754169
   170   1      24.333697274607474      15.782113206797494      1.2986203101705869
   171   1      22.854566525427732      17.238131287771349    0.057792053543505605
   172   1      24.423246075358385       18.65374371592014      1.4664540145852702
   173   1      23.024545512160234      20.275089979460912      28.677542922727852
   174   1      24.360988992621575      21.517875342029786      1.3948682143471038
   175   1      22.939789541749217      22.995433312058829      28.559724701463551
   176   1      24.437282056023641      24.348521496260755      1.4666957614734666
   177   1      23.077237287989114      26.041110740696865       28.69001222366532
   178   1      24.237486353758428      27.249102454510936      1.5564162859544928
   179   1      25.758025058654745    0.061388293570873269       28.54026878331431
   180   1       27.10359179404815      1.3670505107798476      1.4486853970483136
   181   1      25.778741842049378      2.9463442370921609      28.497881857805869
   182   1      27.166254690594382      4.3260796985409353      1.3200476099151386
   183   1      25.886474447755997      5.7589873777953517      28.467862234872484
   184   1       27.23264086635821      7.0509153456028173      1.3850074993815731
   185   1      25.802940640630403      8.4640593306587615     0.12929615801394906
   186   1      27.239108527313498      9.9716825653642118      1.4349203278989087
   187   1      25.911763063797732      11.500389657143758        28.4208782524653
   188   1      27.339225479033828      12.867558384309618      1.4020680097965508
   189   1      25.816580038885842      14.413687357420804      28.606185441724367
   190   1      27.273584853909771      15.925323710870712       1.485939644116502
   191   1      25.893432713170256      17.263360156148028     0.20794019093796112
   192   1      27.443742018880634      18.721213855979229      1.4556384004143506
   193   1      25.846227572517062      20.093948450750034      28.681908395431122
   194   1      27.279637049288294      21.577390074325233      1.4687077331692644
   195   1      25.911547692465692      22.846202890867971      28.451246328030862
   196   1      27.259735574917503      24.310570999166163      1.4855665876727246
   197   1      25.813060797657887      25.925309306081584    0.083036567378962881
   198   1      27.108385916106066      27.274016960644694      1.5603882072438855
   199   1      28.698979490893542    0.034461227296390257      2.6979466104302197
   200   1      1.5814295507554335      1.3373532113789903      4.4043332718104153
   201   1       28.63425538651946      2.8514633757927639      2.8837120023019063
   202   1      1.4597027888825889      4.3069814771419521      4.3032532058738928
   203   1     0.11774329223474106      5.6284777785901881      2.8065445972986467
   204   1      1.5552989746381189      7.1366598267173238      4.4108564469579283
   205   1      28.659560656212623      8.4592115504658416       3.103937744944822
   206   1      1.5470031917663618      10.039390117952529      4.3158121351738723
   207   1    0.096953182851394565      11.394460675754731      2.8483035709731306
   208   1      1.4585284870949755      12.934432755823289      4.1936894278247898
   209   1     0.16375800432129045      14.431937227511684      2.8454080862469935
   210   1      1.4680694948482367      15.808960203708471      4.2670912684578299
   211   1    0.060380715645159247      17.182667264969226      2.8175697606590009
   212   1      1.6038835393630413       18.73062021501158      4.1347624064391528
   213   1      0.2222212884837759      20.127588447736162      2.8182375019776256
   214   1      1.4625975608147659      21.521049736524144      4.2842696525395443
   215   1    0.063875232502233953      22.907919621471663      2.8433122562404614
   216   1       1.466078941720266      24.408501656852515      4.3741849106018433
   217   1      28.687808441427538      25.884726914541584      2.8711390046723646
   218   1      1.4553997686113136      27.290127293766794      4.2352939880746012
   219   1      2.8207949528004419    0.049660421153635233      2.7612200291137796
   220   1      4.3705784492245501      1.2274902255838593      4.1774842947566517
   221   1      3.0251212550323587      2.9704344926510893      2.8035185780947129
   222   1      4.2204285274731248      4.3627549772350145      4.3454518216763836
   223   1      2.7598217892913577      5.6689291627110503      2.7701282970600434
   224   1      4.2090259884984356      7.0670232154941912       4.212577057206909
   225   1      2.9914138896949218      8.7417033768384691      2.9516515543160975
   226   1      4.3116361529997258      10.250512326436684      4.3835797509313918
   227   1      2.8622588823122443      11.497300000451196      2.9468439972796534
   228   1      4.4209452371128499      12.874306650106503      4.4532267574417315
   229   1      3.1294584973754853      14.281493932728459      2.9332472869155777
   230   1      4.4007182946008374      15.790387919445765      4.3243897136701284
   231   1      2.9889002952189592      17.097616853973413      2.7853069388871412
   232   1      4.3338120992283748       18.48794730238934      4.3835469873957429
   233   1      3.0730286836634932      20.067462741824805      2.8466243390328723
   234   1      4.2844672381678315      21.557886178703164      4.3820051427721634
   235   1      2.9577712012802557      22.975660493304776      2.8359878168051971
   236   1      4.1726876335064507      24.503854179450634      4.2434211789645753
   237   1      3.0085240463105443      25.945471492893507      2.6409786644361821
   238   1      4.4490422205067031      27.209172398702929      4.2140966686754977
   239   1      5.7008733295080214      28.631860750399511      2.8301970987852312
   240   1      7.1666196557565236       1.255603514950417      4.2815458501090555
   241   1      5.6791313023433165      2.8348666025748104      2.9332459705339695
   242   1      7.0480212469715298      4.3107030408511298      4.4399022767925018
   243   1      5.7809620060060611      5.6563674673261088      2.8450896684296016
   244   1      7.3816316888181728      7.1287896540309337      4.5361587634801328
   245   1      5.6903000202249254      8.5804714398597142      2.9868979629831371
   246   1         5.8952249292182      11.510265346560942      2.9637186345475661
   247   1      7.1477867555177053      12.998523348087618      4.4391567877546425
   248   1        5.95303217846467      14.311702731683594      2.9441184747304767
   249   1      7.3285172313736906      15.732290234135741      4.3930264916570225
   250   1      5.8279907259999746      17.123907218407979      2.8205243070112842
   251   1      7.3204248604622739      18.619501210449567      4.3550230945810249
   252   1      5.7805010760315376      20.088060528760277      2.9608911383354521
   253   1      6.9845288727469041      21.521352826860117      4.3045059209128427
   254   1      5.7599567621545331       23.01244799338826      2.8797242985515075
   255   1      7.2745552385362791      24.417481065851781      4.3748881541302067
   256   1       5.861085418533758      25.770145495060969      2.8684862029548395
   257   1      7.0279814793773081      27.278220838812874      4.4035579772763658
   258   1      8.6170770020413272      28.569989813173084      2.8443219298900533
   259   1      10.080593245977774      1.4298900432690071      4.2795629284738022
   260   1       8.557461673909847      2.8149024886269323      2.9276005908669034
   261   1       10.13498422915983      4.3780394811945564      4.3218385918808355
   262   1      8.5607973008291083      5.6642496857149558      2.9036413095411042
   263   1      10.028523442156731      7.1863308149941627      4.3685749889072731
   264   1      8.4975387560764677      8.7954498465578439      2.9422529439048679
   265   1      10.034543049682423      10.088725551130175      4.5094396502077521
   266   1       8.573003171370198      11.482255386559048      2.8974946761276965
   267   1      10.000773893314411      12.870408777926572      4.3524868409474724
   268   1      8.7586966700975761      14.217938761936498      2.8590041259432728
   269   1       9.947167895173072      15.758979637649361      4.1936765247662295
   270   1      8.6131311530427741      17.371224391521476      2.8086340913153429
   271   1      10.011124455978589      18.746299645063267      4.2776608991093559
   272   1      8.5402947272412337      20.038713328152433      3.0025370181478062
   273   1      9.9955842446503027      21.505497475493208      4.3133894454562594
   274   1      8.5766395073793991      22.965249732756412      2.9033183194894345
   275   1      10.198142588724185      24.155123030688721      4.1545382505640731
   276   1      8.7264570415469063       25.84756947673749      3.0084020061892094
   277   1      10.184448400040047      27.326844320495891      4.2499411511300416
   278   1       11.48585539561093      28.583162060240102      2.7181713374274619
   279   1      13.036682053868043      1.5061008022648699      4.3116578823373821
   280   1      11.472952136162096      2.9934381202853126      2.8125353417229695
   281   1      13.031710908558395      4.3128617326225065      4.4213227109051978
   282   1      11.477634693974043      5.8252957893268222      2.9021310834018403
   283   1      12.958392026492751      7.1239159962816245      4.4304218939668232
   284   1      11.481674195811767      8.6789265329469032      3.1777606108986083
   285   1       12.92675393853939      10.067798006029614      4.4634923526837351
   286   1      11.514652928879379      11.430782759656744      2.9378421373750685
   287   1      12.685581115059964      13.115031617253038      4.3777295985416327
   288   1      11.354201506989703      14.340074780946127      2.8679624580172689
   289   1      12.886790347886487      15.841231519601878      4.3050728492128707
   290   1      11.433699619176812      17.164154070105738      2.8438656661546813
   291   1      12.965809953551391      18.709684159661411      4.3066226243691732
   292   1      11.466004450579685      20.200879492991906      2.8464163328273462
   293   1      13.171841736062696      21.451064599071195      4.1912761976426189
   294   1      11.633797556451333      22.791524557547724      3.0712028115278405
   295   1      12.967206600400356      24.376515430131555      4.3354817226564446
   296   1      11.520043298959454      25.896262475196661      2.7833238353109309
   297   1      12.848710382193277      27.305010882628142      4.1524291461224347
   298   1      14.496546142673349      0.1842576823982314      2.8071631000006145
   299   1      15.912420482010749      1.4854586842139941       4.358844132625868
   300   1      14.376566396196838      2.9898917518406147      2.9633519087262998
   301   1      15.759276998483795      4.1672456815101446      4.3315167738565128
   302   1      14.364535838694691      5.6103602576064544      2.9410974090530186
   303   1      15.728815864612427      7.1742199430032203       4.237002701732389
   304   1      14.375978332668357      8.4730230551434005      2.9760202375627203
   305   1      15.779890663431717      10.202197279719654      4.4125013195080083
   306   1       14.01360891581086      11.569399304259646      3.0551242474916886
   307   1      15.872874992432028      12.950817698836081      4.3157499554509906
   308   1      14.337470550166213      14.261291060677335      2.8469146576776314
   309   1      15.589700284995089      15.782712253956923      4.3721820801933156
   310   1      14.285393033641057       17.33478451913172      2.9369392766838396
   311   1      15.724991217880897       18.80715598360284      4.2768767449894582
   312   1      14.355995121885009      19.968123980358268      2.6787737214981235
   313   1      15.733929931385958      21.338217945658883      4.2192352929042309
   314   1      14.537151459159631       22.90650911597454      2.8815589861956887
   315   1      15.765939214400925      24.309637130263731      4.3467739383762094
   316   1      14.448096839327579      25.894974572946349      2.8309750471341322
   317   1      15.810441480402549      27.096615178466859      4.3169483794281174
   318   1      17.247735123369235      28.684218897415239      2.7883469024533283
   319   1      18.595906116578245      1.5162007460987172      4.3185078175301355
   320   1      17.349840270020028      2.8350919670458783      2.8644432019043613
   321   1      18.695269196626249      4.3791162545224704       4.435823466224301
   322   1      17.325901886158274      5.7023029948487949      2.7375890084396941
   323   1      18.602925959465527      7.1806740195268457      4.2012594923203448
   324   1       17.11328762955592      8.7313002876413002      2.8975917955873776
   325   1      18.557972413442574      10.067970079125359      4.3129374481089107
   326   1      17.323988796144224      11.575472075255185      2.8390895182344371
   327   1      18.527269049095079      12.989669775459095       4.365572193970193
   328   1      16.943058553547498      14.410882971189032      2.8324269007988714
   329   1      18.587177924593728      15.764327230988446      4.1458560861648017
   330   1      16.956483551291324      17.263035150928065      2.9091507218576114
   331   1      18.556623812061819      18.560277788374062      4.2133282294698553
   332   1      17.374050953688336      19.960375926077852      2.7205746793275689
   333   1      18.594694379155833       21.23478920056737      4.3944232111916621
   334   1      17.278049222264499      23.013146285161834      2.8502259726748536
   335   1       18.58491394724189       24.44639690822552      4.1406760248698697
   336   1      17.274194524748367      25.978914007241993      2.7484688830190622
   337   1      18.725460678965643       27.44366776786833      4.2764224763234777
   338   1      20.253527654519111     0.17695078290842073      2.9552239659571398
   339   1       21.61405956985428      1.5829566662190695      4.4196635799308757
   340   1      19.953701070907016      2.9593717514821325      2.8140904246949736
   341   1       21.50374414775915      4.2343108364716473      4.3598289509711901
   342   1      20.073384844099163      5.7187418726014903      2.8691197011079219
   343   1      21.427174376318249      7.0989670341033859      4.3863866911131364
   344   1      19.949646973769511      8.6895984078692177      2.9035899826495486
   345   1      21.584504494474857      10.119498873111917      4.2712681237213648
   346   1      20.069555541863178      11.496224732907869        2.71881461470847
   347   1      21.432484612884728      12.945536499827043      4.0921956974947893
   348   1      20.045998244986357      14.291894174717326      2.6955402140777998
   349   1      21.510966090235165      15.662516477781402      4.1198362160922644
   350   1      20.084538495795147      17.259295887173764      2.8350646966438715
   351   1      20.193087771252117      19.944716913634988      2.7741392301346521
   352   1      21.332673066341641      21.551092071086007      4.2932431294851368
   353   1      19.928680096266735      22.922978064346466       2.960766193221442
   354   1      21.414013435525394      24.401475827970728      4.1712632672240098
   355   1      20.119636369541944      25.924417520458352      2.7156195625210455
   356   1      21.628328631831934      27.346155119085015      4.4695631885053198
   357   1       22.88129655340089    0.031645377526183682       2.898935997457361
   358   1       24.26971872814104      1.4797520784070224      4.3371745531334858
   359   1      23.010133990912355      2.9098775646086756      2.7236485392190963