# LAMMPS data file written by OVITO
8192 atoms
1 atom types
-0.3898959 51.6149979 xlo xhi
-0.3898959 51.6149979 ylo yhi
-0.3898959 51.6149979 zlo zhi

Atoms # atomic

4107 1 0.943778 0.661031 1.5757001
5484 1 50.6618004 23.3202992 23.5163994
6217 1 5.7485299 2.64361 2.4904201
12 1 5.0265698 2.50457 0.319666
2059 1 2.93606 2.56635 1.43731
221 1 4.836 0.0808864 1.86683
85 1 7.5265599 0.865347 2.14239
5059 1 8.5353604 2.92407 1.24717
6146 1 10.4797001 1.10343 2.0167201
4125 1 37.0826988 6.0551701 0.0976441
4456 1 13.4785004 1.28589 1.22465
3012 1 10.7339001 2.6466701 -0.294434
4111 1 18.1830998 0.777011 3.1424201
6147 1 15.4813004 2.6701701 0.803131
4150 1 15.8395996 0.0932069 1.47319
4247 1 15.7418003 -0.331153 10.1556997
7234 1 20.0358009 0.213376 1.3199101
7098 1 18.1005001 2.2316201 0.825422
2146 1 21.4340992 2.28074 0.700495
6149 1 24.4272995 1.05539 2.29578
2100 1 -0.207315 13.9120998 0.153013
2064 1 26.8362007 1.4786201 0.968198
2055 1 30.9657994 0.338049 1.55312
89 1 31.2182999 2.74503 2.6759
6151 1 33.3636017 0.331882 2.2776599
90 1 35.8778 1.75692 1.57241
4113 1 33.6641999 3.33585 1.62812
4114 1 38.3205986 0.93472 1.16962
6163 1 42.3208008 2.34951 0.368715
6237 1 43.2294998 3.3198099 2.9253
6235 1 41.9416008 0.424096 2.53822
93 1 44.3171997 0.490184 1.30783
6164 1 46.2686005 2.6884301 1.84593
4116 1 47.0312996 -0.091708 1.01568
3293 1 8.8254204 24.6679001 9.2819204
21 1 48.882 1.49826 2.0070801
5058 1 51.2400017 1.91707 0.453408
4117 1 1.47903 4.5217099 1.30475
6165 1 2.5364001 6.9714198 0.374536
2070 1 4.1732898 4.83738 1.33944
2071 1 7.6612902 7.0813298 2.7998901
4119 1 6.31849 4.6761899 -0.106378
2339 1 9.3957396 5.2266898 1.07451
6156 1 11.7898999 3.80422 1.89006
4109 1 14.4842997 4.5232201 2.3945799
975 1 11.6667004 6.8439002 2.3013001
7045 1 12.4217997 5.2484698 0.0472407
6168 1 16.5027008 6.12008 3.2330799
4183 1 17.2166004 4.9979402 0.787515
6157 1 17.3258 3.3014901 3.9717804
6169 1 20.1021996 2.7367101 2.96783
4194 1 19.5834999 5.50241 3.0306001
26 1 19.7887993 4.4938302 0.360392
6222 1 23.5172005 3.5572601 2.45172
2147 1 24.4372998 5.9860802 2.63198
6171 1 25.9685002 3.5741 1.9615
2074 1 22.0289001 6.4730602 0.908622
999 1 28.4776993 3.7305 1.51168
6243 1 27.7150002 7.7456498 1.40237
6150 1 31.0573998 3.9540504 0.174983
28 1 32.8937988 5.89013 0.810793
100 1 30.1611996 5.5025702 2.6440301
6161 1 30.0806007 6.4510699 0.182274
6244 1 34.9788018 6.5250101 1.96427
29 1 37.6158982 3.79756 1.62315
7476 1 31.7598 25.3101998 20.0289001
102 1 39.8334999 5.72472 1.7800502
4151 1 15.0445004 16.5238991 0.0260676
4188 1 40.3557015 2.9756602 2.3373499
2068 1 44.5724983 3.2815499 -0.176372
6246 1 42.2509995 5.0865598 1.25432
30 1 44.2246018 6.4949999 0.481414
104 1 45.0564003 4.89959 2.46274
6666 1 50.4740982 0.515893 25.2294006
2152 1 47.2156983 6.48558 1.50286
2079 1 51.1458016 4.8772302 -0.0794016
7115 1 48.7743988 4.0571799 0.63869
4200 1 49.5722008 6.4158301 1.76421
4458 1 39.5884018 25.2420998 17.0872994
4201 1 1.10707 8.9751998 1.17624
6249 1 -0.0025743 6.84303 2.23089
6166 1 5.7248402 6.9140502 1.0803601
6175 1 4.14117 9.0985804 1.05072
4118 1 5.4937301 8.6163302 3.2913499
4128 1 7.25487 9.8174296 0.559327
2072 1 9.3774204 8.4168396 1.75483
6239 1 7.57159 10.1089001 3.1355
7171 1 21.5203991 25.2308998 1.09772
7177 1 47.3885002 25.2486992 -0.10285
4130 1 12.3129997 9.2194595 0.290556
4120 1 14.6920996 7.0838599 1.1380301
1559 1 19.2371006 -0.0954094 22.5072003
6179 1 17.8486004 7.8266301 1.3785501
6672 1 30.4850006 7.5176902 25.3012009
97 1 15.4075003 8.7600098 2.98353
6177 1 15.2168999 9.4636202 0.178404
4132 1 20.3232994 8.3818703 2.84297
3033 1 20.7070999 9.71381 0.325127
147 1 49.3907013 22.6026993 -0.0109028
98 1 23.1928997 8.6979399 2.29561
4122 1 24.8306999 7.5388198 0.32398
5113 1 39.5196991 20.1760998 -0.317989
4195 1 25.4797993 8.0792704 3.17991
2148 1 28.1336994 9.9516202 2.0168099
37 1 30.3913994 8.4184199 2.1601801
39 1 32.9459 8.5065403 0.826492
2149 1 32.3903008 7.6392002 3.43909
6255 1 32.6475983 10.3574 3.3143401
6182 1 36.1665993 9.1090698 0.908806
101 1 34.9333 9.0359602 3.3220601
6256 1 37.4345017 7.1828399 2.55582
6183 1 38.793499 8.9633704 1.83769
2078 1 41.5354996 7.4502301 1.73083
103 1 43.4245987 7.4741202 3.4416399
40 1 43.3333016 9.2864905 1.01194
6184 1 46.4234009 10.8296004 2.6435499
2163 1 48.0069008 8.8006697 0.704213
6258 1 45.5792008 8.2433901 1.86087
4138 1 50.2764015 9.5217896 2.0399599
973 1 50.885601 7.8418198 0.263597
3069 1 2.50718 11.5072003 1.40773
4221 1 0.902262 14.0243998 2.6773701
4139 1 3.72365 13.9824 1.65827
5115 1 -0.0347604 10.7679005 -0.324145
3052 1 9.7931204 16.2245007 -0.235365
4148 1 5.1547198 14.1496 3.7140901
6176 1 5.1464 11.5724001 2.4287701
2081 1 6.2902699 13.1234999 0.804267
2091 1 8.93964 11.5566998 1.18977
994 1 10.8074999 13.9056998 0.566107
44 1 11.7129002 11.5223999 1.68593
45 1 13.0143003 13.8591004 2.34533
34 1 14.1793003 11.8213997 2.89502
4203 1 13.6659003 11.4539004 -0.0197018
190 1 15.5122004 13.8391 0.31835
2083 1 16.3498001 11.4112997 1.3594101
6178 1 18.5709992 13.1998997 0.461995
35 1 18.7378006 10.7166004 2.32937
808 1 19.8330994 14.6195002 2.0752201
6190 1 21.5928002 10.8444996 2.65659
5118 1 21.4817009 12.2945004 0.712834
4235 1 24.4778996 13.2177 0.568545
2094 1 22.9356996 13.6710997 2.74755
67 1 23.5872002 10.6786003 0.599604
2084 1 26.0007992 11.3017998 1.79966
3057 1 27.1172009 14.5682001 0.5992461
3045 1 28.3309994 12.7084999 2.23807
2159 1 30.8262005 10.9653998 1.36382
2096 1 29.7350006 13.6560002 0.486606
2171 1 31.1825008 13.3221998 2.74823
2056 1 32.6027985 13.1021004 0.51155
38 1 34.4147987 11.1099997 0.960379
6277 1 35.8348007 12.9386998 0.400882
4290 1 34.3070984 12.2396002 3.2147901
4134 1 36.7126999 11.2222004 2.75474
2087 1 39.3072014 11.7410002 3.1593001
6193 1 38.1587982 13.3788004 1.90291
50 1 40.8111 10.9693004 0.83964
2098 1 40.7308007 14.5141001 2.0083399
2172 1 42.0954018 12.0819998 2.4458599
2109 1 44.1367989 12.2305002 0.770615
6194 1 46.5791016 13.2833996 1.90742
6205 1 49.0238991 13.9975004 0.7751
2416 1 11.5143004 -0.209292 19.5116997
2089 1 48.3782005 12.1700001 3.04547
6185 1 51.0486984 12.0993996 2.2244899
41 1 48.4057999 11.3638001 0.568987
63 1 0.958665 16.5396996 1.3555501
2102 1 5.61093 15.9487 1.6356
43 1 3.45327 17.5786991 1.03204
7169 1 11.4130001 25.4309006 2.2365201
4213 1 8.2364197 14.8661004 1.80362
6188 1 10.1222 16.7661991 2.2867899
6207 1 7.7056198 17.4382 1.97661
46 1 12.1005001 17.4232006 0.208731
6262 1 13.2053003 16.4515991 2.3986001
2104 1 15.3423996 18.3456001 1.90397
1 1 17.6166992 15.7229996 1.76594
4225 1 19.1219997 17.5613995 2.31527
4569 1 8.82442 -0.0440428 9.0759001
4142 1 21.8013001 14.9067002 -0.0485901
6274 1 24.4713993 15.7417002 0.893213
6264 1 21.5902004 16.3381004 3.2312
6203 1 26.566 17.0237999 1.5991302
6254 1 28.5361996 15.3587999 2.2957599
6191 1 28.9627992 16.7551995 0.150596
2106 1 31.2693005 15.7100001 2.01053
122 1 33.5110016 15.0986996 1.5763201
4219 1 35.3919983 17.2908993 0.812817
4156 1 36.1292992 14.9155998 2.7535901
1103 1 29.4647999 25.5918999 5.3162999
16 1 23.1462994 4.46242 0.0433561
60 1 38.3697014 16.5300999 1.87889
72 1 40.6757012 18.0716991 0.544155
4145 1 39.9686012 15.4666996 -0.208032
2182 1 40.9314004 16.8153 2.6973601
2193 1 43.2738991 18.0484009 2.1607299
1011 1 42.5494004 15.7210999 0.651022
4157 1 45.209301 15.9787998 2.3290999
4232 1 47.7001992 16.2898007 1.34789
61 1 45.5614014 17.6243992 0.215902
4158 1 50.4991989 15.1392002 2.33551
6291 1 50.9939996 18.0006008 1.24607
4160 1 9.7764302 23.8064995 0.109577
6282 1 1.06817 19.4755993 0.822317
6604 1 4.6876302 20.4340992 0.244285
5111 1 5.96877 18.1587009 0.105962
6281 1 7.2779999 20.7325001 1.30561
2175 1 10.2482996 19.2401009 1.82099
4707 1 27.6970997 7.0904999 25.4393006
139 1 11.9666004 20.3976994 0.321786
6271 1 12.6117001 19.2150993 2.77997
6199 1 17.0394993 20.9221002 1.79764
6283 1 14.1773005 21.0480003 1.5654301
4153 1 22.1495991 17.9580002 0.170123
2178 1 19.5067997 19.7334004 0.302619
4226 1 23.1541004 19.9941006 0.945101
6519 1 0.373429 0.0306355 18.5753002
2095 1 24.1028004 17.809 2.28404
6201 1 25.8799992 19.6604004 1.7877001
2179 1 28.4580994 20.0506992 3.1884201
133 1 28.1968994 19.4199009 0.392754
6276 1 29.5317002 18.1889 2.6450601
144 1 32.3087006 18.4950009 2.4103899
6202 1 30.3216 21.9058 0.586927
56 1 17.1779995 18.4276009 0.0782149
2108 1 30.7630005 18.7045994 0.461676
4229 1 34.733799 19.3369999 3.1665599
4236 1 33.4900017 20.6205006 0.7590691
2196 1 35.7029991 19.5664006 -0.208776
6214 1 37.5152016 19.1350994 1.61913
2119 1 42.0387993 20.1996994 2.0548301
2120 1 44.7486992 20.7492008 1.33674
6290 1 47.3700981 20.7700005 0.918757
7250 1 50.368599 20.3570004 1.09229
4243 1 48.7907982 19.2217999 3.3359499
4392 1 13.8514996 -0.320255 12.6061001
4168 1 48.5433007 18.5126992 0.491575
2110 1 50.2956009 15.8114996 -0.0815606
7606 1 18.1413994 25.5930996 23.1644993
3075 1 2.3843 23.9755994 1.86874
7242 1 0.197906 22.4818001 1.14687
5194 1 2.5118501 21.3810005 2.5516
1036 1 4.61481 22.8686008 1.00896
6652 1 45.6907997 24.2467003 25.2432995
6245 1 39.8568994 3.8592802 -0.311824
2557 1 9.7698899 21.7728005 2.19752
2112 1 7.6055103 23.2854004 2.17309
4024 1 7.4036002 25.6201 0.680676
3068 1 26.1839008 9.7117596 -0.335298
140 1 12.2004995 22.5837002 2.06147
5122 1 14.3675003 25.2059994 1.30896
4161 1 16.3066998 23.1518993 0.14112
7229 1 15.1408997 22.8286 3.013
4308 1 17.3127995 24.0501995 2.60954
4162 1 19.1998005 22.1207008 1.86399
1027 1 19.284401 24.2061997 0.0403869
1028 1 23.8836994 25.0471993 0.0495764
2115 1 21.7203007 22.4223995 1.43172
7245 1 22.7528 24.0326004 3.1264601
7246 1 24.6741009 22.4761009 1.75198
3077 1 27.6114006 24.4860993 0.800986
1102 1 25.5459996 24.6854 2.72856
6212 1 27.5526009 21.9676992 1.36104
3151 1 29.2276001 23.0641003 3.0751801
5199 1 31.8579006 23.2919998 1.7509201
5203 1 30.0447006 24.6550007 0.32362
6213 1 34.8647004 23.7252007 1.23001
5127 1 36.4772988 21.7182999 2.6807201
3211 1 37.6433983 24.0515003 2.2331901
583 1 39.5646019 21.5505009 2.07884
3079 1 40.2268982 24.5942993 2.28387
48 1 14.1244001 10.5300999 25.4176006
4455 1 26.1212997 25.3050003 14.8493996
2129 1 42.550499 23.1823998 2.1162701
4030 1 40.2659989 22.7854004 -0.130806
4167 1 46.2994003 21.1877995 3.26055
7176 1 44.9683 23.7567005 1.6328501
2121 1 47.6203003 23.6291008 2.0829699
2125 1 23.7213993 -0.199592 9.7414103
7459 1 47.7355995 -0.198942 9.7033701
3093 1 50.0704002 24.8148003 1.49421
6226 1 2.76929 0.590671 3.58197
7231 1 2.7927699 2.18273 5.43569
84 1 1.07741 2.87021 3.6693299
2049 1 51.4544983 0.266484 3.47397
4097 1 5.4666901 1.13881 4.5739699
4191 1 6.06318 3.6851001 4.9910002
13 1 9.98065 3.22485 3.6269701
4170 1 10.5486002 1.06129 5.0090299
4181 1 7.9765902 1.61728 4.2563
6293 1 9.4354 1.87543 7.1785002
2134 1 11.6268997 3.0889699 6.0313101
4171 1 12.8534002 2.35127 4.05369
150 1 13.1536999 0.940993 6.2424102
2198 1 14.5422001 3.18559 6.0402699
4099 1 15.7365999 1.7358002 3.60953
68 1 17.469801 1.28501 5.9671102
77 1 20.3673 1.2971701 6.22471
2062 1 22.0475998 1.21622 3.69137
4 1 23.4778004 1.4953702 7.0149698
6148 1 24.7891999 -0.0262898 5.1710901
6223 1 29.0326004 1.42948 3.28969
2075 1 26.9333 1.4900301 3.8908604
79 1 28.9983998 1.9328002 5.90614
4174 1 26.4470997 2.13553 6.6769901
5063 1 35.2258988 3.94016 -0.151275
6298 1 31.3768005 0.350221 4.5847302
4175 1 28.9218998 0.0684274 7.5529599
2202 1 33.1425018 1.43293 6.9422698
2606 1 20.909401 15.4295998 25.1898995
4196 1 33.7140999 1.9470202 4.1736698
4186 1 36.0344009 1.74041 6.2308698
6234 1 39.6809998 0.601923 3.2439499
4187 1 36.8036003 0.195402 4.0395799
91 1 39.0864983 0.768302 6.2493301
2139 1 38.0693016 2.5806601 4.2484498
6236 1 41.3512993 1.5519101 4.4841099
4253 1 41.8434982 0.700469 6.96207
4177 1 44.4320984 1.15289 4.1791701
82 1 47.3152008 1.4874801 4.4243102
4178 1 45.921299 1.54873 6.5416799
6302 1 51.5489006 1.44861 7.0728302
4179 1 50.0688019 1.69176 4.87431
2131 1 48.9639016 1.3575602 7.23417
2141 1 47.9558984 4.0581598 3.17732
6227 1 0.408878 5.6684799 4.35745
74 1 3.5225201 3.8808602 3.8383
2226 1 3.14539 5.3771701 5.7434502
22 1 3.12883 6.9127598 3.1215601
6155 1 5.3416 5.77456 3.93252
4108 1 7.5794201 4.5303602 3.24581
2060 1 9.9949904 5.6394801 3.67346
6228 1 7.4438701 6.6923099 5.43046
2133 1 10.7300997 5.8128801 6.2838502
149 1 8.8185396 3.9075204 5.9782702
86 1 12.8191004 4.99082 4.6633702
6229 1 14.8926002 6.3834601 6.1223698
2124 1 16.8731996 3.7633801 7.1199002
2061 1 17.3796997 5.77282 5.5723801
4184 1 19.2833996 3.98485 5.3039298
6242 1 21.8237992 6.01548 3.5579
6232 1 21.8097 3.8073101 4.89322
152 1 24.6851998 2.6020999 4.6356201
172 1 24.5576 5.1054602 4.80723
162 1 22.8199005 6.2351298 6.6820598
99 1 26.9291992 5.4286199 3.0067599
4185 1 28.8017998 4.10256 4.2075901
6306 1 28.3456993 6.9709102 6.3144002
2126 1 26.6123009 4.5911103 5.9727702
2212 1 32.7528 4.7249999 3.41646
6316 1 31.5618992 3.53987 5.6284199
4278 1 30.4713993 6.0359101 5.0370302
4279 1 32.8451996 6.3118801 6.1212301
2138 1 35.8205986 3.94677 3.81052
173 1 34.2071991 3.83563 5.7964201
4269 1 35.3125 6.3691402 4.7726302
4197 1 38.7823982 5.1358299 4.1059499
2213 1 40.2226982 3.7158201 6.0398402
6308 1 36.9822998 4.5999999 6.41259
4270 1 40.3712006 6.3839898 6.3757901
2140 1 41.8647996 5.1997399 3.87042
167 1 43.2689018 2.7137499 5.9102702
6310 1 45.4053002 3.3903799 4.7122798
4199 1 44.3395004 5.6454301 5.5697899
4189 1 46.9085008 6.3610401 4.2727099
94 1 48.0713997 3.74626 5.7414398
2132 1 50.8658982 3.3657301 2.9156104
2153 1 49.4799004 5.94793 4.2340398
2142 1 51.1166992 4.1800299 5.6633301
106 1 3.41592 9.6762305 3.5355401
4190 1 1.69969 7.83215 5.47473
4211 1 2.2479301 10.3304005 6.3036599
2244 1 51.2291985 9.7807303 6.9836998
6238 1 4.6764002 7.7375598 5.4334603
96 1 7.4173799 9.6376305 5.5263601
2154 1 5.4405899 11.0668001 5.1047902
24 1 10.0058002 8.3086596 4.5009899
6167 1 13.7228003 7.43359 3.97889
2155 1 11.4919005 10.3690996 5.98276
4182 1 12.2816 7.8632202 6.5203901
4192 1 12.1971998 9.5493202 3.3311901
2227 1 13.9805002 10.3423996 5.2917199
2156 1 18.2033997 7.9095502 4.0356302
6230 1 15.8073998 8.4699803 5.91603
6253 1 20.2761002 6.94487 5.33671
4205 1 19.7600994 10.2221003 4.9861002
6251 1 18.6021004 8.3769302 6.9093
109 1 22.5018006 8.8224402 5.1346998
2229 1 25.1672001 7.5676999 5.5759301
181 1 28.4687004 9.9855004 6.6452499
4207 1 28.3696995 7.79564 3.90992
2085 1 26.5303993 9.9006396 4.3828101
2076 1 30.7821007 8.7487602 5.2416401
4208 1 33.074501 9.1978397 5.7508703
2232 1 35.7350998 8.3504696 6.4314399
4198 1 39.9715004 7.4801402 4.15588
113 1 37.4413986 9.4569397 4.4361501
2161 1 37.7943993 7.0435901 6.2248998
185 1 39.5460015 9.2030897 6.0265002
4280 1 37.4715996 10.2847004 7.2283301
2151 1 42.283001 7.8658 5.46203
6257 1 41.1292992 9.4209004 3.2971301
2162 1 43.8830986 10.0437002 4.0612998
2088 1 47.3610993 10.4624996 5.0920401
114 1 45.5325012 8.64433 5.2082701
6331 1 50.5638008 8.2937098 4.1539202
6247 1 48.4662018 8.2397204 6.1977701
2090 1 48.1622009 8.8328896 3.3903101
4212 1 0.442833 9.7173004 3.8117099
6259 1 0.275618 12.1424999 5.3394399
4284 1 2.5133 12.3100996 3.8769804
197 1 2.37956 13.9770002 5.6782599
2165 1 7.6415301 12.9604998 3.95996
4202 1 3.4242201 12.1941004 7.9133402
2176 1 8.2501898 14.6766997 7.56035
6250 1 9.7081204 11.0051003 3.96676
6332 1 9.70296 12.7314997 6.1097002
118 1 10.3634005 13.5887003 3.10287
6261 1 7.5605102 11.7826996 7.2167502
108 1 12.1941004 12.4533997 4.6895499
107 1 12.5156002 12.5292998 7.3791599
4141 1 17.0748005 13.3106003 2.9254304
2237 1 14.9399996 13.0279999 5.2732501
2166 1 16.9916 10.8532 4.4812198
6273 1 17.660101 13.3072996 5.8179102
2167 1 19.6320992 13.0306997 3.93622
4206 1 24.3607998 10.9104996 3.89388
2168 1 22.2908993 11.8017998 4.92124
2240 1 24.5091 13.1806002 5.17313
6325 1 24.6315995 10.4570999 6.2779999
6326 1 27.5107994 12.2356997 5.6260801
47 1 26.0597992 14.1552 3.0181601
121 1 29.1937008 14.5084 4.5344901
112 1 29.8523998 10.8724004 3.99658
6327 1 32.1954994 11.4000998 5.5914798
183 1 30.1343002 11.7825003 6.8249898
6267 1 35.1502991 10.7565003 5.5321698
6347 1 33.9711 13.4405003 6.2281399
2233 1 38.9155006 12.2428999 5.7981701
6328 1 36.7453003 13.0544996 4.83283
6338 1 38.3049011 14.6497002 7.1877799
4209 1 41.5688019 11.5555001 5.2782102
124 1 41.4155007 13.8551998 4.4479499
115 1 43.7244988 14.3676996 6.0685501
4220 1 45.4379998 12.4686003 4.3572602
196 1 47.6473007 12.9288998 5.79424
4291 1 45.456501 11.6081 6.7895899
4210 1 49.8316994 10.9638004 4.8927698
2099 1 50.2173996 13.9765998 4.8376599
126 1 0.726059 15.5081997 4.7238403
2174 1 2.99508 15.5073004 3.1983199
2195 1 1.68949 18.4782009 3.29197
2164 1 -0.0181779 14.2209997 7.07972
4233 1 2.81423 17.2089005 5.7472902
116 1 5.1180501 15.0235996 6.1140599
4149 1 4.9273802 17.2303009 3.8675004
209 1 5.81565 17.6597996 6.4112101
6260 1 7.36902 15.8441 4.7079201
4234 1 8.8426104 17.9717008 4.20965
4285 1 9.6463204 15.0408001 5.0695
4214 1 12.4638996 15.0452995 5.12886
130 1 11.3007002 17.8101998 4.73805
129 1 12.7335997 17.4580002 6.81351
2248 1 14.4582005 17.2880993 4.4848099
4224 1 15.0620003 15.1288996 3.3634
4215 1 16.0949001 15.5713997 5.8715802
2177 1 16.9433002 17.8873006 4.1777902
120 1 18.4153004 15.5537997 4.1761198
6345 1 20.0137997 17.7539997 4.79876
201 1 19.8775998 15.0532999 6.3172302
2239 1 22.1597004 14.4337998 5.1447902
2158 1 24.7814999 16.0685997 3.98973
6336 1 23.0053997 18.0023003 5.09972
2169 1 27.4867001 16.9503994 3.9561802
111 1 26.8033009 14.8125 6.04497
6265 1 28.9060994 16.7346993 6.5850702
4227 1 25.8607006 17.9221992 6.8345399
2170 1 32.4054985 14.2587004 4.4812298
4218 1 31.2353993 16.5382996 4.60215
204 1 31.2544003 17.5858994 7.46835
123 1 34.2001991 16.6046009 3.5880201
2181 1 33.603199 16.3143997 6.5054102
6288 1 35.4233017 18.1819 6.04249
6348 1 36.926899 17.2492008 3.85863
134 1 36.5027008 15.5642996 5.4860802
135 1 38.7302017 14.9544002 3.9681202
195 1 38.8260002 17.6261006 5.7835102
2183 1 43.303299 14.3839998 3.03338
6279 1 41.9832994 16.1396008 5.6513
62 1 44.4524994 17.1016998 5.0297198
125 1 48.0415993 14.7848997 3.5091601
6268 1 45.846901 14.7909003 5.3448901
2184 1 47.2375984 17.0098991 4.84224
6280 1 48.6133995 15.1998997 6.5576201
137 1 49.983101 16.9433994 4.0774798
206 1 50.8624992 16.6401005 6.8358898
208 1 1.3200901 20.5268002 5.4882002
4222 1 51.3933983 20.2364006 3.99715
6350 1 0.124851 18.4810009 6.0296402
6197 1 4.0310202 19.2866001 2.7270401
2082 1 5.6557398 21.9288006 3.28425
2186 1 3.58423 19.5410004 5.66783
6270 1 6.2771301 19.1849003 4.2859202
2257 1 6.2039499 21.3747997 6.2883301
2258 1 7.8287201 19.3048992 6.5718298
2187 1 8.3049097 21.1464005 4.20541
1042 1 10.9251004 20.7607003 4.6581402
128 1 10.2123003 19.4904995 6.8990502
2188 1 13.2768002 19.4468994 5.6826902
7532 1 13.4092999 21.9305992 4.5774102
131 1 15.4520998 18.1578999 7.1094899
6284 1 15.4614001 20.4533005 4.2690902
6263 1 21.6361008 19.1555996 2.8540102
1323 1 17.8869992 19.7462006 6.04005
6285 1 18.7015 19.8596002 3.4732201
2250 1 21.4640999 20.1072998 5.81385
6275 1 24.5452996 20.4766007 6.2989402
4238 1 23.3393994 21.1179009 3.5247801
4228 1 25.6294995 18.9967996 4.2935
143 1 30.3286991 19.0561008 5.6942001
2192 1 31.3493004 20.8355999 3.2713301
6287 1 32.3195992 21.0625 6.1710601
2180 1 32.6689987 18.7663994 5.2541499
2118 1 35.2228012 20.4836998 5.4335199
2262 1 33.648201 21.5079003 3.5283799
6204 1 39.664299 18.7733994 3.36502
71 1 37.5427017 19.7148991 4.3052001
4241 1 39.4903984 20.6341992 5.7905503
6278 1 42.4113999 18.8577004 4.5421901
146 1 44.1223984 20.3845005 4.03651
6289 1 43.3809013 21.9529992 6.3017902
4242 1 46.1389999 18.5662003 2.56638
4301 1 46.7963982 19.6056996 4.94235
3226 1 45.867199 21.6569004 6.04178
4231 1 44.2901001 19.0918007 6.7458501
6574 1 49.4446984 19.0503998 5.89149
1107 1 48.6114006 21.5690003 4.8404598
6609 1 50.918499 21.7250004 5.7098198
1108 1 0.727888 23.0037003 3.96714
1180 1 0.55915 23.3672009 6.69979
3146 1 2.0213599 24.9386998 4.6050902
1171 1 5.2333598 24.1096001 6.0770102
5195 1 4.5742002 24.3124008 3.3822601
4304 1 3.20944 22.4859009 5.56213
7315 1 9.0884104 24.6732006 6.4221001
3147 1 7.3410201 23.3717995 4.68362
70 1 9.4024601 21.8043995 6.3282099
290 1 10.0066996 23.4561005 4.1440301
1172 1 11.8963004 24.0065002 6.1081801
5196 1 13.1598997 24.9051992 3.93484
6210 1 17.8743 21.8479004 4.5237003
1173 1 15.3414002 23.4529 5.4217801
1101 1 17.6998005 24.4414006 5.39639
2065 1 32.4786988 1.89419 -0.249583
6208 1 19.6746006 24.4867001 3.5630801
4307 1 20.1068001 22.5116005 6.5810099
142 1 20.9799004 21.7999001 4.2887802
202 1 22.8897 22.1623001 6.3136501
6355 1 22.0037003 24.2490997 5.5457101
5139 1 24.7311993 23.3523998 4.8576698
2116 1 26.1345997 21.7672997 3.8448802
2191 1 29.3694992 22.2605991 5.5341001
213 1 26.8129998 22.2735005 6.2590799
6286 1 27.3514004 24.1376 4.3831
1176 1 31.6277008 23.2724991 4.7389102
6358 1 30.4622994 23.4505997 7.4847698
5558 1 48.2807007 23.2217007 21.9339008
1522 1 34.2142983 23.0524006 6.14431
216 1 37.0858002 22.1110001 6.3382001
7173 1 33.7751007 24.5634003 3.77265
4166 1 36.6278992 24.2695007 4.8331499
6798 1 41.8746986 13.6260996 25.0258007
1476 1 38.9926988 22.7887001 4.1928701
7321 1 40.0578003 23.2105007 6.7101102
5201 1 41.9639016 24.2341995 5.7825899
1105 1 41.5536003 21.5319996 4.4601698
217 1 43.8302994 23.4769001 4.1662898
1106 1 46.5349007 23.764 4.2602801
7323 1 49.0551987 23.9958 5.6067801
7251 1 50.2322006 22.7863007 2.9951602
5276 1 51.3012009 24.8530006 4.92301
4244 1 2.0811 1.08204 7.5967398
6372 1 0.38937 2.0120001 10.7011996
2289 1 3.56492 2.3736899 10.0754004
95 1 1.31573 3.87109 7.0790801
3515 1 40.9084016 25.3789997 21.5133991
148 1 5.8559198 1.18273 9.3809404
160 1 6.62814 2.2813599 7.03932
4180 1 4.1360202 3.1219299 7.4049602
4255 1 8.5334997 2.97417 9.5875902
231 1 9.4573298 0.21553 11.4396
954 1 17.6588002 -0.143438 -0.439327
6294 1 13.3385 2.62324 8.5651798
4245 1 11.6310997 0.41944 8.0742397
6365 1 11.0094996 2.3431301 9.9601098
3356 1 12.7701998 0.515623 10.5960999
6215 1 5.4077501 25.3910999 8.8068199
151 1 14.7681999 2.3619201 11.1465998
6219 1 15.7700997 1.71226 8.2130804
4246 1 17.3026009 2.4928 10.4158001
6241 1 18.0853996 -0.374898 8.3326702
14 1 21.3388004 0.833523 8.8023701
2200 1 19.1499004 2.88099 8.2566204
59 1 33.2910996 17.7387009 -0.302679
4258 1 25.2423 2.1303699 9.2969399
3081 1 44.7961006 25.5007992 -0.303535
163 1 28.1077004 2.0380199 8.8718596
6218 1 4.91505 0.336833 7.21945
4259 1 30.8747006 2.14235 8.3645897
154 1 29.3551998 1.2893601 10.7049999
4251 1 33.1027985 1.64703 10.2726002
4140 1 35.6887017 0.669082 10.6413002
2203 1 35.3422012 2.91584 8.5904303
5583 1 37.3400993 0.293302 8.47258
4252 1 40.031601 0.495068 9.2460499
156 1 38.1852989 2.78315 7.8856702
2286 1 36.8745004 2.8058901 11.2379999
2214 1 44.5256005 2.4414799 8.4918003
4261 1 42.8577004 1.2538 10.2656002
4263 1 47.2916985 2.6599701 9.0878201
2097 1 37.0746002 15.3738003 -0.163208
4264 1 50.2300987 0.927014 9.5189696
6319 1 1.35492 4.4840598 10.2546997
168 1 1.56907 6.6209798 7.70717
4265 1 5.7898302 5.4595199 6.95359
159 1 5.8974 4.0295701 9.1390495
6312 1 5.2720299 6.66325 9.7123204
2207 1 3.4223399 4.9625402 8.6792097
2217 1 8.0462399 5.5209699 8.2194595
4256 1 10.6050997 3.95045 8.2657004
6375 1 9.7119999 5.1949201 10.4952002
2135 1 13.0165997 5.0194101 7.37989
87 1 12.5703001 4.6171599 10.1749001
2144 1 11.5570002 6.9705 9.1402102
88 1 15.3304997 4.5774102 9.2720299
6377 1 16.8320999 6.89919 8.2313004
4329 1 18.1040001 4.88368 10.0452995
2145 1 19.2462006 5.6693702 7.4610601
161 1 20.7224999 5.4081898 9.59443
4193 1 21.5746994 3.7854901 7.5704198
6231 1 22.5135994 2.98915 9.7662401
6305 1 24.5272999 4.2163801 7.6756501
2219 1 23.2376995 6.4629998 9.6627999
6315 1 24.988701 4.5137301 10.3156996
4257 1 25.7269001 6.4830299 8.1461802
6233 1 27.4060993 4.5839801 8.5937996
235 1 28.5704994 7.03934 9.4422999
4268 1 29.6317005 3.98106 9.5961905
237 1 29.3404999 4.2625299 7.1117902
6307 1 32.7798996 4.0317602 8.3879604
2284 1 31.2859001 5.9337102 9.1328602
2221 1 35.0662003 5.7074399 7.7663899
2294 1 33.5320015 6.5416198 10.6388998
4260 1 34.8176003 4.38446 10.4663
165 1 37.1898995 5.37848 9.4948702
4334 1 39.3907013 2.97647 10.0588999
249 1 40.0610008 5.5767498 8.6579705
166 1 41.6064987 2.98792 8.2472601
175 1 42.5890007 5.0587502 7.0265799
251 1 42.9653016 4.67693 9.8234101
4271 1 45.5155983 4.3961902 7.5486899
4347 1 45.3409996 4.0840001 10.3831997
2223 1 46.703701 6.2757802 6.8530502
2216 1 50.2355995 3.4522701 8.2263699
2215 1 49.5237999 5.3614702 6.7432299
6384 1 48.2694016 5.03409 8.7639599
105 1 51.3195 5.91878 8.8947002
4283 1 0.0723943 8.4955197 9.31779
177 1 2.33793 9.8648396 9.1957903
4272 1 5.10709 10.0152998 7.5462399
169 1 3.8959602 7.82829 7.84158
2143 1 6.6970001 8.0391302 8.1269398
6321 1 4.61513 9.2258797 10.6259003
2208 1 9.6798697 7.91009 7.3874898
6313 1 7.1336999 10.3528996 9.35044
170 1 11.7082997 9.3460398 10.4130001
2278 1 8.9661398 7.86229 9.8915596
6240 1 13.0222998 9.6268196 7.9780502
6314 1 14.2512999 7.3211498 8.5422898
2228 1 15.2846003 9.91325 8.1218796
6324 1 17.1065006 8.9689302 9.6174402
244 1 16.1294003 6.9478698 10.8162003
4275 1 14.5529003 9.4173899 11.0424995
4204 1 20.9421006 7.9754702 7.7971802
245 1 19.1781006 7.5412998 9.9418202
4276 1 19.6410008 10.3551998 8.5415402
4352 1 21.4797001 8.9578506 10.1222
2304 1 23.6287995 8.5154696 7.8853302
4267 1 25.6305008 7.43716 10.4292002
2157 1 22.0774994 10.3828001 7.6217199
2220 1 26.2810993 9.0371199 8.2509403
4341 1 26.5797005 10.5396996 11.2785998
2160 1 30.848301 7.6336003 7.5092201
182 1 29.1270008 9.9847298 9.3939896
2285 1 31.3358002 8.0658798 10.3792
184 1 31.5935993 10.2308998 8.37039
6380 1 33.8754998 7.9930902 8.1872597
259 1 34.2584992 9.3018303 10.3465004
248 1 34.3838005 10.8856002 8.1104498
321 1 36.485199 8.0938902 8.9907704
2296 1 39.0349007 8.2074299 8.6863499
4345 1 38.3115006 9.28473 10.6069002
2222 1 41.3905983 8.1210604 8.0895901
6394 1 41.0429993 10.2251997 10.5352001
2234 1 43.7394982 9.4943304 7.0285902
2298 1 43.9044 6.90618 7.8224602
174 1 40.6599007 10.6754999 8.0009203
6329 1 46.1869011 9.25492 7.6638499
186 1 44.1591988 8.7826004 9.9584198
4282 1 45.8204003 6.7565999 9.5884505
6330 1 47.2308998 9.3338099 10.1542997
6248 1 51.1890984 7.40417 6.6167698
2235 1 49.3554993 7.9509502 8.4616299
198 1 0.702343 12.1489 8.4296904
2247 1 2.62464 12.9783002 10.3898001
6322 1 5.16569 11.8415004 10.1014996
2302 1 10.0709 10.6955996 8.3803997
178 1 7.9749098 12.8738004 9.7677098
117 1 11.0065002 14.4777003 7.6620999
6333 1 13.5865002 11.8486004 9.4372597
189 1 13.8752004 14.7596998 6.93498
180 1 16.0872002 13.0620003 7.88162
6252 1 17.7957001 11.1075001 7.25383
6334 1 18.8299008 12.8333998 8.7347298
119 1 20.4036999 12.5317002 6.8954402
4277 1 24.5492993 11.0656996 8.9582396
4287 1 21.5760994 12.0656996 9.7038603
4286 1 22.6917 12.9168998 7.32194
192 1 23.8663006 14.0431995 9.5716496
4216 1 25.5349999 13.2852001 7.7898102
2230 1 27.5242005 11.7950001 8.6643696
193 1 28.7175999 14.1541004 7.9425602
269 1 28.2404995 14.3460999 10.6335001
6411 1 25.8782006 13.3253002 10.7370005
4364 1 30.2392998 12.8085003 9.16961
4299 1 32.2914009 14.3619003 9.9533796
2242 1 32.875702 12.5661001 8.2285099
4354 1 34.5463982 13.0379 10.0215998
6337 1 36.0657005 12.8731004 7.4312301
2231 1 37.4329987 14.2438002 9.8248997
6403 1 36.4025993 11.1141005 9.89421
4356 1 38.9431 12.2495003 8.5915003
4281 1 41.4297982 13.2865 7.1706901
2308 1 41.7807007 12.8983002 10.243
272 1 42.9152986 11.54 8.57374
4230 1 43.4380989 14.3045998 8.9301596
2309 1 45.7742996 11.1294003 9.4581204
136 1 46.3390007 13.7186003 8.1145401
2173 1 48.4737015 10.6329003 7.4532099
2321 1 50.1619988 12.7152996 7.4645701
4292 1 48.1161995 12.6898003 9.4870997
6339 1 50.3709984 10.5741997 9.4824801
263 1 50.7985993 13.1598997 9.97114
6269 1 2.88582 14.4427996 8.0912704
2254 1 1.10767 16.6191006 7.7445202
4293 1 0.427605 15.2002001 9.8793602
4223 1 5.48769 13.7718001 8.3104096
4294 1 4.1739602 16.6947994 8.4991303
2255 1 3.97104 15.1470003 10.4677
199 1 6.6517201 16.4722004 9.2961197
54 1 9.6191702 16.9211006 6.8150502
127 1 9.1236095 15.5445996 9.60184
4360 1 12.6789999 14.6914997 9.5942498
211 1 14.684 16.5629006 8.65094
4295 1 11.3894997 17.2707996 9.7951098
266 1 15.2125998 14.1588001 9.9611798
191 1 17.4295998 15.0419998 7.9759302
2249 1 17.1033993 17.1182995 9.3205004
2189 1 18.2292996 16.9960996 6.6226301
2314 1 19.3798008 16.2045994 9.1432896
2238 1 21.2339001 17.0471993 6.94946
4297 1 21.4405995 17.6364994 9.3730803
6335 1 21.2129002 14.8164997 8.6040898
2241 1 24.0604 15.7937002 6.9976102
4298 1 24.0380993 17.1009007 9.6005602
4217 1 26.6343994 15.8535004 8.6106997
6346 1 28.5063 18.3283005 8.3962097
203 1 27.1786003 17.5361996 10.6456003
2316 1 29.8747006 15.9884996 9.5787001
4289 1 31.2614994 15.0473003 7.0799799
2251 1 32.6016007 16.7866001 9.2214804
194 1 34.9334984 14.9667998 8.5516997
281 1 34.9053002 18.1928005 9.3347702
4367 1 36.993599 16.8169995 8.1278095
6414 1 39.0227013 17.0935993 10.1702004
4377 1 40.024601 16.2602997 7.4954901
260 1 40.1399994 14.5655003 9.4656496
2253 1 43.896801 16.4242001 7.5844498
6426 1 41.8082009 16.9937 9.1421003
4378 1 44.8042984 16.0622997 10.0614004
6349 1 46.3605003 16.7821007 7.6149502
2245 1 47.2568016 15.5564003 9.71103
4379 1 48.9356996 17.5496006 8.2783804
6351 1 50.2014008 15.2361002 9.0031404
219 1 -0.251394 20.6951008 8.2197104
207 1 2.34957 19.1847992 8.2801199
6341 1 0.959223 20.0653 11.1573
460 1 4.1916099 21.8493004 7.85312
2256 1 5.7453799 19.2747994 8.1880102
4381 1 4.2399402 19.5431996 10.0698996
4370 1 6.86412 19.3031006 11.1197996
200 1 8.76686 18.3169003 8.8980104
4305 1 10.896 20.2775002 9.2866202
6352 1 8.4316502 20.8619004 8.7770005
6216 1 12.3653002 21.4922009 7.1914702
6344 1 13.6177998 19.3339996 8.4591799
287 1 13.8922006 21.4494992 9.6405602
6354 1 15.3018999 21.3745995 6.9235402
6272 1 16.3656998 20.1693001 8.8302002
4382 1 15.3972998 18.8778 10.7221003
277 1 19.3036003 22.1133995 9.5391102
2259 1 20.1422005 19.7523995 8.0367498