dump/Mg_700_0/steps_81 (written by ASE) 

4000 	 atoms 
1  atom types
0.0      32.100000000000001  xlo xhi
0.0      55.598830921999998  ylo yhi
0.0      52.130399999999995  zlo zhi


Atoms 

     1   1      31.983463589108219     0.05313620668860821     0.11423678856396328
     2   1      1.5629416415567796      2.8550111244109941    0.033065704917810183
     3   1      1.7643776804118718      0.6648589904676333      2.5690803556343922
     4   1      32.020742448098851       3.699944830098429      2.7869322403911538
     5   1      31.975293514004736      5.5362387619349072      52.023249069706679
     6   1      1.5135554828572622      8.2540685820797997      52.054036301812758
     7   1      1.8575901967422868      6.4861859644854807      2.7881108352031969
     8   1    0.073110091665569824      8.9821448179321841      2.4445296315048863
     9   1      32.099054460163188      11.204935405819384    0.099913159586652048
    10   1      2.0074150118722738      14.049661950905175     0.12190338383909632
    11   1      1.8975179923217766      12.206122268805832      2.4965114040896537
    12   1      32.064210581871592      14.869482732991678      2.5925320686247599
    13   1     0.20571472956058984      16.616390167891193      0.3550938412092674
    14   1      1.5582616551314454        19.4209257101692     0.15466760523570799
    15   1      1.7254530249554838      17.745724365066501      2.6350343155361546
    16   1    0.036149175931394925      20.411957412330839      2.7376764653533479
    17   1      31.905519230981998      22.287353031877153    0.085115683536400755
    18   1      1.4151927237387025      25.325780352450057      52.126868098081928
    19   1      1.7000591104311429      23.042379614414159      2.6581556306418688
    20   1     0.16147514670457383      26.064582969470056      2.7711497801484568
    21   1   0.0072824318288570592      28.074565480355815    0.011884207972082821
    22   1       1.399403271224178      30.734503354353144      51.901467949132126
    23   1      1.4117663390045903       28.83049252243411      2.3465883404052938
    24   1      32.043698661645777      31.349192889520992      2.3571851685691754
    25   1      31.856590505971337      33.465035705347447     0.39580256336085917
    26   1      1.4518833156522546       36.26362138599395    0.017870683867750814
    27   1      1.4667106757655821      34.452135216827749      3.0018789707049578
    28   1      31.932314196351406      36.877312323427461      2.5501668010161054
    29   1      31.717333105905354      39.032858301384984      52.048875641590897
    30   1      1.6472401845807005      41.493818161236874     0.34714421202336798
    31   1      1.3278184978512206        39.6550264658336      2.7668188601850421
    32   1      31.974703029551272      42.116758603452389      2.9364462164805789
    33   1    0.037675429117498986      44.135273601784441     0.21713684892888777
    34   1       1.604464362447942      47.112764843627595      51.939419531299379
    35   1      1.4295591436201267      45.309939323701784       2.461884238102467
    36   1     0.45387372241154239      48.242136251823226       2.391353208849567
    37   1     0.32264955751400348        49.8926400038807    0.071132650460960206
    38   1      1.7661990785175961      52.605091126512825     0.04792950351773613
    39   1      1.7982312013651307      50.844491766321156      2.5859261688458095
    40   1      31.870365832286705      53.628497521279549      2.3539962895186575
    41   1      3.0739599374269595      55.477561977411852     0.15881152398768569
    42   1       4.874916781054158      2.9676367465819968    0.099391457644491463
    43   1      5.1390462481708772     0.82215552855201646      2.3949410832428435
    44   1      3.1958271712232111      3.4040703987142571      2.6574388509709856
    45   1      3.2381476846621045      5.7223418038355547    0.017567186798549943
    46   1       4.676127877803907      8.1808159534101126     0.16881162300621597
    47   1       5.052819407898518      6.2733233550700023      2.5478146779676458
    48   1      3.4327232006708321        9.34967345324125      2.7662895257894107
    49   1      3.3974725338878171      11.168986522122326    0.026789807824026398
    50   1      5.0116866929561805      14.060628123009135      51.909341279062964
    51   1      4.9566015526071174      12.055919290427264      2.6116495849860941
    52   1      3.0910629944377122      15.112106033078742      2.5627925028715439
    53   1      3.3646446665173442       16.99716166298219      51.577679087759698
    54   1       4.701141070545706       19.77118067731562      52.031009555796864
    55   1      4.7098377785771905      17.425058054095121       2.154629722760077
    56   1      3.3460060832007796      20.367988891807201      2.5176303395807977
    57   1       2.609636023957604      22.288146319187231     0.19877782997364471
    58   1      4.9017749276405267      24.994346304143317      51.902117035320103
    59   1      4.9132048998736639       23.32446168635099      2.5042182093110945
    60   1      3.2443197987142338      25.975478784235701      2.3266146720400243
    61   1       3.205050699791983      27.869638049175158    0.016822947237961561
    62   1      4.4906566866943987      30.867018332247039      51.909114772864228
    63   1      5.0213682284952537      28.618918870080076      2.5798946564649534
    64   1      3.1516670393113388      31.341531800630641      2.4740157136759735
    65   1      2.7440323208052542       33.36589652075066    0.010185888845124908
    66   1      5.0450248539362619      36.090980114245291      0.0652147333408684
    67   1      4.5957704400887325      34.199246923223953      2.5549916840993578
    68   1      3.3107100645058156      36.959111190184764      2.5433156801234498
    69   1      3.2766939174650038       38.67526291123572      52.114058380062311
    70   1      4.5953832765874951      41.621023714702588      51.758772811439044
    71   1      4.5565980931124113      39.726467497441789      2.4926712069279273
    72   1      2.7614587279256417      42.590911093252871      2.6728374871681688
    73   1      3.3885635075419067      44.139781663301896      52.066763172591848
    74   1      5.1520052093562949       47.03346497367388    0.012723191209479847
    75   1      4.6326160156263372      45.276678627970838      2.6037706447343796
    76   1      3.3829856443563098      48.174527126488414      2.4201777103047974
    77   1      3.4973194891230976      49.701296024239952    0.061667347725772974
    78   1      5.0097995038701377      52.923090003964248       52.06082612535819
    79   1      5.0437688826142351      51.038338225474625      2.4364105337103243
    80   1      3.5009608848171587      53.746485986880323      2.4852318442823966
    81   1      6.4853248759799254      55.391591802909666      52.126215768817012
    82   1      7.8132126958872608      2.8550713860798211    0.044928795399920632
    83   1      8.0369087902644054      1.0173020922398515      2.6244345805287002
    84   1      6.5511531462502832      3.8691584707448836      2.7941779925178492
    85   1      6.9208337222128913      5.8310972701014663      51.993714119553921
    86   1      8.0880763456667637        8.52637613370546     0.23884051805219117
    87   1      8.5729534718474056      6.5771295251892727      2.6105251627708199
    88   1      6.3130760597640121      9.2334278311662512      2.5956448692519918
    89   1      6.4102399789786402      11.112288051820913      51.985971464971563
    90   1      8.0265087543167351       14.18989232944239       51.98411169200461
    91   1      8.2046986379211972      12.177119408240035      2.4511940804765397
    92   1      6.3698613678001461      14.653213441672001      2.5207352641204208
    93   1      6.2976059797053816      16.541929511123154      51.916851285266127
    94   1      7.7129427040867959      19.129368179302404      52.038096427482188
    95   1      7.8816105519787429      17.584401396798622      2.6737369127841628
    96   1      6.4986430919933671      20.302892471030443      2.4104420537526385
    97   1      6.3989682991380388      22.293249037773808      52.106938366804911
    98   1      7.8917479992591097      24.943267353803975      51.934426434934629
    99   1      7.9183400968960296      22.875649655164317      2.7086870988481859
   100   1       6.684167709473515      25.797541890853701      2.5613002387831689
   101   1      6.0625653732628164      27.810331444280532      51.955092232193032
   102   1      7.8571298834452712       30.28354784703286      51.916983976070973
   103   1      8.2505075860955444      28.577613283664093      2.6878876222469161
   104   1      6.4583758212791889      31.292796261631771      2.5417163973849912
   105   1      6.5698645594925349      33.330192421743597  0.00096826871141984143
   106   1      7.6057102423815044      36.288892044888364      52.077653470180934
   107   1      8.1927901060744084       34.27391669414267      2.3495850546987023
   108   1      6.4710661882814202      37.124120939431421      2.7828082232342095
   109   1      6.4027511881358654      38.862451434743129      51.807385590665447
   110   1      7.7758722137722103      41.515978866593308      52.023614106660858
   111   1      7.6200241422150441      40.060671852882002      2.7330624200089413
   112   1      6.2909512163180139      42.764386928052765      2.8042059240632362
   113   1      6.4100191491158807      44.610415968852408      51.825788957708589
   114   1      8.0287168591640672      47.206116717240342    0.035504923816160515
   115   1      7.8298225103281061      45.370116059757656      2.5869715388006203
   116   1      6.4018505544723761      47.990748079758866      2.6372794267559763
   117   1      6.5620383180745012      50.156843505111475    0.099553924241335107
   118   1      8.1189164230202824      52.861956684759932      51.737999151528967
   119   1      8.0926949406556457      50.936432726413656       2.615725515042338
   120   1      6.6885815059021576      53.818714058423318      2.4524774323649505
   121   1      9.4403039034638532     0.44685223155379605     0.10357350605007754
   122   1       10.88765825136077       3.079260413664747      52.030598109616669
   123   1       11.02546495378553     0.89498194108496609      2.4461827390529485
   124   1      9.5662225164967527      3.3451516170055831      2.6237016758676375
   125   1      9.9626991827163618      5.8020871578838964    0.013089603678102068
   126   1      11.568131333357581      8.3641654906350933    0.027566217498921547
   127   1      11.689835987814439      6.6274716226600185      2.9442179658925003
   128   1      9.7813632006251101      9.4740920534873876      2.6608842231659962
   129   1      9.8312844475863947      11.264628612274569    0.036553037782845688
   130   1       11.23143882894168      13.847905158005203      52.053564184468769
   131   1      11.114455393712365      12.219374526473274      2.8400461688521976
   132   1      9.7344411735412315      14.832785287673737      2.3991655591994476
   133   1      9.6399177946445267      16.476016991922886    0.044754675612778745
   134   1      10.966187887317853      19.279567387233914    0.040196069023069221
   135   1      11.191025833716964      17.554133173552582      2.6532913467687909
   136   1       9.703424649400846      20.344501461786116      2.5430381427706577
   137   1      9.4008762464875186      22.490822131246151      52.096963857040684
   138   1      11.405317292448743      25.144245174683572     0.13767545786728766
   139   1      11.203150012287502      23.195564214568808      2.6597729648991248
   140   1      9.7652274314200636      25.795282645822336      2.6247878172136243
   141   1      9.5013074314081667      27.551890267338962    0.092800187832590794
   142   1      10.877400058623616      30.763415024243365    0.018044391250657633
   143   1      11.263496840183674      28.709807371286406      2.4877986963768146
   144   1       9.618215555655441      31.778410919633256      2.5202575636642974
   145   1      9.7820079321272324      33.435128412121436      51.966679386077935
   146   1      11.278723911707372      36.192808998080494      51.854386039871905
   147   1      11.411574481308447      34.492122705775337      2.3769379110445881
   148   1      9.3034029701154317      37.188893787220259      2.3864072751726688
   149   1      9.4069294538649721      38.891269994813371       52.03351298518001
   150   1      11.115368935658013      41.711807968274236    0.057254490438358056
   151   1       11.18267654300826      39.927159596251911      2.6478697447397681
   152   1      9.3032522293614601      42.357120699333755      2.4693750779720078
   153   1      9.6166934741552446      44.644336662153819      0.2623829307445758
   154   1      11.143908033007721      47.025594714004328    0.081123917725392278
   155   1       11.46230222680669      45.403835155568366      2.5717834228160315
   156   1      10.086125771408026      48.031919928368652      2.9190985388087154
   157   1       9.814957940125657      49.983372866749903     0.19613799754305067
   158   1      11.179499281334605       53.25642886632879     0.41254733999420207
   159   1      11.423793787974757      50.999908323407865      2.9538606230375675
   160   1      9.8690994187271013      53.863378257132226      2.7553417809085214
   161   1      12.946196393894915     0.43952725909157159    0.027098541406462399
   162   1      14.675408602989744      2.8949663100525602    0.077512506735064268
   163   1      14.403723197901325      1.2609679945978263      2.7477005906196932
   164   1      12.959066958837383      3.8958928687783159      2.4707904724261915
   165   1      13.352815510226979      5.7356767236761232     0.18229647300434293
   166   1       14.68128224736599       8.339348978643331     0.22356470691410152
   167   1      14.888984883025678      6.4408381655890024      2.6430811201591098
   168   1      12.897349611590105      9.5451934040969935       2.682994139654979
   169   1      12.798969196169308      11.112115579061468    0.062906011194705971
   170   1      14.435443396238966      13.974464327625867      52.097924239687153
   171   1       14.32138543065069      12.213365167642445      2.6510302614840602
   172   1      13.002973781153718      14.590025574390037      2.7556270353754195
   173   1      12.790025489041437       16.93378663203422      51.983537829146826
   174   1      14.197316191632325      19.179145964183398       52.01941410766544
   175   1      14.453713506942856      17.454633412176694      2.5676276607503441
   176   1      12.658533641461862      20.379681505085859      2.6254318691611829
   177   1      12.418986885560949      22.264669657419454     0.11221109540953804
   178   1      14.522639652309945      24.988619061074864   0.0033530476312104828
   179   1       14.40796965352266      22.890015692951742      2.4814800286564416
   180   1      12.741670026728048      25.981111851294937      2.7700268444932203
   181   1      12.896432285464513      27.946647914717214     0.17156550330153369
   182   1      14.691574825433984      30.870028595847327      52.002678391716607
   183   1      14.613911752543883      28.890112945144821      2.7431883253319236
   184   1       12.93936114668109      31.602914427512921      2.2988470957286311
   185   1       12.65591879407569      33.359226917083838      51.944854343041534
   186   1      14.265691585121441      36.163664354132059     0.11349252784562562
   187   1      14.418500399393837      34.347813745738463      2.5868421436085538
   188   1      12.540238378435777      37.207082731792745      2.5339721359604965
   189   1      12.688829731123455      39.001480650502948      51.907224080377809
   190   1       14.22601819938294      41.754128893279308    0.060743192873523838
   191   1       14.38298624967822       39.80226323286454      2.7891962934976324
   192   1      12.703058376783964      42.593216132318091      2.7644901821330317
   193   1      12.763498555649505      44.299921603718133    0.069843306543955472
   194   1      14.217275787208129      47.378024025086276    0.025115550764895279
   195   1       14.47388985954543      45.403986452906416      2.3240862580341539
   196   1      13.115660622449505      48.445450800971351      2.3915896887963486
   197   1      13.042961206837649      50.303356301556079     0.14377827237775165
   198   1      14.492913623592464      53.104720621203015      52.049956646928884
   199   1      14.632575188613885      51.128433829715277      2.4735922125630951
   200   1      12.961827951368829      54.046127705777195      2.7480648967069872
   201   1      16.482934317038591      0.1344384550922669    0.049660488081461597
   202   1      17.960993721278204      2.7570873218863601    0.093097184749408271
   203   1      17.940612648919412      1.0160983486762825      2.6335712388232366
   204   1      16.467671481318288      3.8331758734641568      2.5573396118625231
   205   1      16.477589503322271      5.4005682321248889     0.12977928110868048
   206   1      17.868795191165201      8.3698767901046622     0.23291759388857894
   207   1      18.026365382989955      6.5789845555272946      2.9639624135642979
   208   1      16.186507501574635      9.2427329168151875      3.1189764757835596
   209   1      16.080979580456447      11.048164792013507     0.15739939574470019
   210   1      17.774227682796706       13.81149575521858    0.079954844315243814
   211   1      17.971953224449948       12.17603745954901      2.7817982334568652
   212   1      16.153335735571254      14.660895547115372      2.6085575893305069
   213   1      16.134641959249549      16.521773949925869     0.16338274618450338
   214   1      17.750689589461381      19.202846470640136      52.104719521078387
   215   1      17.460160104076746      17.502751044452186      2.8779413574072272
   216   1      16.185146341664893       20.03508757671743      2.7314282541638142
   217   1       15.97599776576469      21.968540484323196      52.067820054771232
   218   1      17.600976471898942      24.974941780597632    0.015836951794012108
   219   1      17.715259564339885      22.923860751335081      2.0872115337177788
   220   1      15.923475395284788      25.997311659021452      2.3812529030041687
   221   1      15.958199299314243      27.923344309079557     0.10017895218410044
   222   1      17.643224123582517      30.752522226112781      51.972180534975735
   223   1      17.953321334478275      29.121036159678347      2.2814748294573226
   224   1      16.251001676335619      31.796838242822748       2.330661890841276
   225   1      15.853983987559007      33.605411301255188      52.106172970656971
   226   1      17.594087041034747      36.274321306525479   0.0071261945767113442
   227   1      17.796389944341836      34.565536698908105      2.6769596638735762
   228   1      15.846546971746179      37.007412158810432      2.3682485558978752
   229   1      15.961658925228425      38.798497510275389     0.14594940348367577
   230   1      17.699036682703138      41.545206578343034     0.30994580352513618
   231   1      17.314261567069785      39.710153515897993      2.7506787656756013
   232   1      15.924453307063599      42.915927915908533      2.5127315920697182
   233   1      16.379250361492439      44.357119231941098    0.077822766905389903
   234   1      17.381221074899191      47.280910747210626      52.123902443441033
   235   1      18.007994764895187      45.347312172328536      2.4388596206479822
   236   1      16.376451868382969      47.918858103615293      2.7342526444177211
   237   1      16.168377192362566      50.084670143073858     0.29802931995818166
   238   1      17.858724538702116      52.847057262763713     0.16415114635943093
   239   1      17.655545183475827      50.623935728566693      2.9249591537038935
   240   1      16.050860247188734      53.844583940629597      2.4924642613022088
   241   1       19.61048858450367    0.084875631917855465      51.788256163558216
   242   1      21.073568217066043       2.811794078000351      52.088222131984821
   243   1      21.404842316746663      1.0382953315512158      2.3998197194245523
   244   1      19.721317123433678      3.8342791753633043       2.659222650941889
   245   1      19.942836828106866      5.5000081176379814     0.07808206057724848
   246   1      21.103412315243176      8.5006040857033547    0.074154695457417791
   247   1      21.259070929881627      6.5248140017627971      2.6872729088964151
   248   1      19.424040069401137      9.4089425648008778      2.7664019255958747
   249   1      19.271374156073421      10.920519620067726    0.073347427336047544
   250   1      20.973313522271955      14.214253858200205      52.039109054949279
   251   1      21.015543261191766      12.231879500249079      2.7609806331278328
   252   1      19.352488104954009      14.732485541036583      2.6147443569828352
   253   1      19.100607787418575      16.499251232507515     0.29373820774234205
   254   1      21.027434518417966      19.531349723667343      51.894645326248657
   255   1      20.763699040618675      17.886182910562972      2.6679669042420699
   256   1      19.337536700118282      20.256648439297994      2.8121764230037956
   257   1      19.532359291618867      22.026374241840134      52.051608907150587
   258   1      20.885145920437648      24.995981101541737     0.10873535373133592
   259   1      20.841441898466737      23.276193658053476      2.5353142015445922
   260   1      19.415161847766676       26.23436511696034      2.4256929461474241
   261   1       19.27943531365672      28.047484993000502      52.100025345068389
   262   1      20.971270123892026       30.96084966320516     0.27855085327670059
   263   1      21.344306020341431      29.011583555008503      2.3805553567820135
   264   1      19.255660039028044       31.60102819083426      2.6033118825378683
   265   1      19.129487448992347      33.404074166535061     0.12109725269485462
   266   1      20.526480146745818      36.038159174991364     0.03732770889528339
   267   1      20.757496813603513      34.523530534961402       2.574635256940212
   268   1      19.048677812531686      37.241903002812897      2.6286038406396481
   269   1      19.181853579987344      38.770830582969197    0.057242748278836374
   270   1      20.863232251334207      41.849784234573697      52.039279099525793
   271   1      20.708603611383289      40.347086887210949      2.4808453762848131
   272   1      19.641827732310947      43.105869349122145      2.3761394484227423
   273   1      19.535131040423238       44.74195115669783    0.031259174347481704
   274   1      20.776889100883274      47.262084539016101     0.01793412162058328
   275   1      21.149624459936486      45.708722353328945       2.813522331327003
   276   1      19.561867613851582      48.058097219530445       2.586230394126801
   277   1      19.199951813620938      49.770553913111463     0.13842938846512956
   278   1       20.59211881065303      52.459297478126317    0.099710510228541091
   279   1      20.790660086765094       50.58420732030757      2.7735964640873663
   280   1      19.237944169741027      53.936276659876896      2.5987801133555557
   281   1      22.508739897055801     0.14607367207220601      51.952508944874793
   282   1      24.226828465094396      3.0055343281134692    0.034376117442682819
   283   1      24.300668785872148      1.1910044106983653      2.3010424700352354
   284   1      22.514688950716543      4.2669771227493669      2.7992497179791811
   285   1      22.774540332740603      5.6900195189521989      52.070387966385852
   286   1       24.12589553890124      8.6802072826667924      51.917979854714304
   287   1      24.382359661590126      6.6012538701550705      2.2885077040425958
   288   1      22.716107646113375      9.4210618090096823      2.5461183971201446
   289   1      22.501906908131193      11.237277767938759    0.098159089897859875
   290   1      24.125023304270183      14.188824006751773      52.017920886615656
   291   1       24.38790397507978      12.378086745153158      2.4168630068086911
   292   1       22.66634719107395      15.165163664292644      2.5594530372350341
   293   1      22.399573381949807      17.100250357068798    0.070411113822852797
   294   1      24.173736276092892      19.497593420338024    0.082581533196591242
   295   1       23.96171083871068      17.699482688162366      3.0286461871677002
   296   1      22.452796163814686      20.609198598110183      2.4088131371687291
   297   1      22.233847946973338       22.26099391168691      52.088174399516447
   298   1      23.822500335104682      24.913016614700943      51.840196157580735
   299   1      24.041527351244454      23.066843273661497      2.6716283765999922
   300   1      22.753085497480285      25.782506823278144      2.5208624025511193
   301   1      22.457018052484866      27.442079311962576      52.078260844847669
   302   1       23.53103759066008      30.441729061482945      52.064401821623782
   303   1      24.217373740264335      28.759293424778619      2.7265844396661088
   304   1      22.311766504408027      31.855322671955971      3.0428832173955458
   305   1      22.412551433328119      33.383187742813277     0.13392110081638509
   306   1      23.734971195616861      36.053145361743411      51.919764765135135
   307   1      23.865388570142773      34.177999133406374      2.7710061618581951
   308   1      22.295830684010308      37.340780311139717      2.4616026431734732
   309   1      22.524238891219394      39.197021521088843      51.859853138555287
   310   1      24.109772757716609      41.734540909425128      51.946979914087983
   311   1      24.294014678641112      39.816289372949129      2.4111301702031378
   312   1      22.892512688293721      42.442797985484148      2.3672468174529717
   313   1      22.508897812974343      44.387433647744629     0.13703678819029541
   314   1       23.99773605504803      47.063981470943368     0.15237993918648643
   315   1      24.126332641204872      45.171107289145866      2.6252849541439667
   316   1      22.931684045526904      48.325991582338794      2.6361761202290062
   317   1      22.363213551751688      49.800387021847222    0.070787031881355614
   318   1      23.978803330842208      52.578004052459725      51.988727634067125
   319   1      24.488575837996386      51.084007828948025      2.5856876761392602
   320   1      22.401234037396222      53.491503071690694      2.4264738758109012
   321   1      25.451495447683758       55.58334029508876      52.109852332324273
   322   1      27.331246023936988      2.8651349992082671    0.091345441399563174
   323   1      27.633726864874504      1.0530653688447598      2.4975105734682215
   324   1      25.759010362635795      4.0130719071822645      2.6697547197937097
   325   1      25.746111734802312      5.8092527307777857        52.0001236967788
   326   1      27.006766170766504      8.2465004809094626     0.21897830279968422
   327   1      27.287754601816761      6.5964225907742273      2.3065912046276811
   328   1      25.787969399728969      9.5109851001556969      2.4722147824890928
   329   1      26.027911885770028      11.151997792122987        51.7731868162033
   330   1      27.300196958335121      14.267408708554871    0.007967584748077584
   331   1      27.547573846869362      12.169263905675356      2.2115782538710138
   332   1      25.718587551002056      14.899224739455288      2.6020802654883206
   333   1      25.644780607408247      16.730500402175981      52.039959903597499
   334   1      27.455155836239825      19.425693603185362     0.12436202153279859
   335   1      27.149594726588397      17.761258790018232      2.6956255219807836
   336   1      25.303073870717359      20.610345660289031      2.7620557106186889
   337   1      25.542552142879334      22.095989549237459       51.95659806701569
   338   1      27.140486333217758      25.326707346410799      51.942950790178926
   339   1      27.040350366408077      23.049982946274589      2.3234191723031454
   340   1      25.845480571827107      25.842190115870089      2.6663040504214006
   341   1      25.562689500470508      27.784271012294493     0.15931006600591419
   342   1      26.866800987113578      30.306312610516951    0.013195952712102011
   343   1      27.315678125450802      28.806347817013808      2.7973087798630858
   344   1      25.216627883088375       31.66225424800264      2.5361728140880544
   345   1      25.363396394597881       33.20061133810556      51.933057077667883
   346   1      27.253878700356861      35.707894381278891     0.15122778828327182
   347   1      27.102016666407479       34.29295773389741      2.9803080919879226
   348   1      25.518186622181698      36.648637925127233       2.819306008094959
   349   1      25.535115474776319      38.450610086521465      52.017173237157841
   350   1      27.433359544840286        41.4186889389917      51.843939265361719
   351   1      27.104161973148177      39.828595695833741      2.4903702539664532
   352   1      25.819405347430937      42.430204928080762      2.4657895133411492
   353   1      25.567815124286074      44.371309526217225      52.110310515468157
   354   1      27.448651084054386      47.191824059431092      52.086657485189626
   355   1      27.241769509827993       45.29467471256681      2.4579431344917162
   356   1      25.887366831865595      47.975087087764742      2.6117098905090259
   357   1      25.864469297054669      49.922993120353212      51.990005919889597
   358   1      27.159013904967484      52.743679605652304      51.687116176947477
   359   1      27.314728318012303      50.719954341068991      2.6593548890242285