dump/Mg_700_0/steps_71 (written by ASE) 

4000 	 atoms 
1  atom types
0.0      32.100000000000001  xlo xhi
0.0      55.598830921999998  ylo yhi
0.0      52.130399999999995  zlo zhi


Atoms 

     1   1     0.19057901938199387     0.04229661728383613    0.048843748708584982
     2   1      1.6243098841908863      2.8253708461776155      51.739139723854066
     3   1      1.5242084502696922     0.90003947457623379      2.4989128214335947
     4   1    0.061707628728379912      3.7545176000851255      2.5630752195997974
     5   1     0.28081064075971712       5.475456988082005     0.21056019115624874
     6   1      1.6791614534657469      8.4796863509676328     0.13429243281723335
     7   1      1.7605175600285878      6.5050955373276889      2.6040960752003595
     8   1     0.22711512379301058      9.0498834015696197      2.7676702825431043
     9   1      0.3028172105650816      11.444513677994074     0.12740821988358342
    10   1      1.8794392668919391      14.220262351712288     0.25220462799552446
    11   1      1.9281208872141427      12.058259293037928       2.941885934627682
    12   1     0.14796791071610307      14.698659453303394      2.6004814146524144
    13   1      32.056928232910295      16.628089331535389      52.114888037029147
    14   1      1.4279469500486475      19.493092137552235     0.27751983209830605
    15   1       1.839899284185891      17.201714764365803      2.8075949247905605
    16   1     0.18913453050520426      20.697820673047673      2.8204606602411806
    17   1      32.070910810052531      22.725578269458005      52.061977275452463
    18   1      1.8689861949625806      25.271246894586543      52.058880023726047
    19   1      1.8677656627569292      23.288666602178388      2.6897543521010152
    20   1     0.35093617786314124      25.694328882161503      2.7033657848100061
    21   1     0.30853364705824826      27.849942080872534      52.044788633553615
    22   1      1.5986348938281529      30.530537442871008      52.030259682410737
    23   1      2.0900411023318761      28.614560640271286      2.6972442132261225
    24   1     0.22045119588687159      31.514776238684878      2.6730608730937964
    25   1      31.989646210759432       33.29314679561498       52.06993168548361
    26   1      1.6484085868135743      36.414560714587715     0.15401950228448025
    27   1      1.3833500556859504      34.534753037353717      2.7901214638151508
    28   1        32.0317120767319      37.052921897772343      2.4953133109184611
    29   1      31.902316912209695      38.951564747437857      51.876282007955844
    30   1      1.8035168688038345      41.488868538012504    0.012262293022643197
    31   1      1.4295798268955224      39.840469783983295      2.6473402161076991
    32   1    0.097867564479852689      42.669523365754365      2.2063175900789092
    33   1      31.708779230287469      44.461939055245196      51.898644314956591
    34   1      1.2363701401986809      47.261397332748963      51.834471752672997
    35   1      1.5631203702222642      45.321512036234388      2.3404435601279783
    36   1      31.836488247733168      48.090366175275776      2.5578200786024592
    37   1      31.908832101242467       49.84618968475997      52.024406109300394
    38   1      1.7676571974700603      52.569636033364155     0.28434633715313445
    39   1       1.185639526579739      50.645034894028463      2.7575430588138161
    40   1      0.1066677905116912      53.535029981596693      2.7376693467901854
    41   1      3.2207909542596496     0.11592697500539723      0.3232419807252005
    42   1       4.719575869773184      3.3588130178572917    0.087034843477732229
    43   1      4.7270115552346352     0.71923277797101048      2.6797770006377397
    44   1      3.0568699041418443      3.5198206869534649      2.5021815133508305
    45   1      3.0411630532137246      5.8494049303228648       51.91702902022805
    46   1      4.9293693744665408       8.358225860148508    0.083438829568050085
    47   1      4.6053324363789123      6.0852846336357196      2.1454411667712781
    48   1      3.5044017424437603      9.3391902250032377      2.6194778369015093
    49   1      3.2863823526575233      11.433965933247785     0.15717912857794444
    50   1      4.9896360961818829      13.952580130497742     0.29181291826482653
    51   1      5.0516927058908738      12.186314686221419      2.8801521562343599
    52   1      3.6482478329479755       14.75660263687263      2.8591864399991676
    53   1      3.3302663055495421      16.627878127431888     0.24265256444369659
    54   1      4.6921519130501324      19.659993822657672     0.14703640118510716
    55   1      4.8779197982710549      17.733011263218703      2.7058833567674441
    56   1      3.0692662022090307      20.167738942808949      2.8343046472396116
    57   1      3.2182570044554422      22.408716140072922    0.052358944130255526
    58   1      4.6284088153973233       25.38011620670585    0.047783700663222836
    59   1      4.6850653069337742      22.907785465127432      2.7157928507308062
    60   1      3.2998687997621512      25.908520932262537       2.581839548407233
    61   1      3.6675182505602537      27.850577428106071     0.17941542222166848
    62   1      4.9899632086337746      30.628775052257634     0.19093988828925304
    63   1      5.2606959018081483      28.737717314435603      2.7606402164800969
    64   1      3.4165884560383346      31.401463342777976      2.8046165351109238
    65   1      3.1909549851865249      33.797825921899303     0.31334770422090102
    66   1      5.0497793438889769      36.216165714932053     0.04696043974315206
    67   1      4.8311270678315372      34.234507736713091      2.5342409371839199
    68   1      3.2955569030708829       36.92721677030903      2.3552675735011852
    69   1      3.6019361770480662      38.868294062660468      51.986750319616974
    70   1      4.6154362356389615      41.943237041859916       51.94255586432768
    71   1      4.7265569575541031      40.056704997328318      2.9060614106269971
    72   1      3.3288718999783473       42.53926804088411      2.5489517203416097
    73   1      2.8114684349314376       44.32255609653685      52.047176027369687
    74   1      4.7759167309019457      47.145786218333612   0.0045968613466577171
    75   1      4.8205780641033522      44.968773277803351      2.7479626213278903
    76   1      3.0283790896884888      47.911665073785784      2.4003951655398059
    77   1      3.2309456969655392      49.792680509028024     0.17811621551627133
    78   1      4.7851316293113104      52.945925960233595     0.15919226099909811
    79   1      4.6887230985695023       51.05844337926068      2.6885713356809591
    80   1      2.9675154571665456      53.344857604874349      2.9160952720256472
    81   1      6.4863672070077323     0.15506735655136392    0.057517561046953748
    82   1      8.0303369595942851      2.5554062257792287     0.24775253083570206
    83   1       7.691121917766929     0.89296474712544727      2.6206690794069458
    84   1      6.4731431533376718      3.6182453521090761       2.422366878557654
    85   1       6.702548464875373      5.5508352425118641      51.982869536861102
    86   1      8.0697024147235279      8.2033876247969708      0.2579153014560327
    87   1      8.0932341643032295      6.2189317937072284      2.5491186492203157
    88   1      6.3553537648167824      8.9507323052072501      2.8784689436275572
    89   1      6.5675580625475076      11.313310351560363    0.079859988526071693
    90   1       8.268857641872545      13.910068989839706     0.12268740159160312
    91   1      8.1115615731748854       11.82460031029397      2.8675901247247562
    92   1      6.8682361649491908      14.649417672075785      2.6230920011017047
    93   1      6.5507103955158401      16.612525604097325      52.096557532867038
    94   1      7.8954795343945108      19.194548544178627     0.18178363627160124
    95   1      8.2701181178104335      17.239667060313995      2.7298262672516751
    96   1      6.2364859205050394      20.339641805387011      2.5307704523588397
    97   1      6.3333076176627294      22.408718793593298     0.18946056113907589
    98   1      8.3012893468960911      25.052831720688921     0.43468966493330996
    99   1      8.0759817614067249      23.010258937267579      2.7702829805340272
   100   1       6.456240808183602       26.10365222901169      2.7201929296149792
   101   1      6.6465748229616555      27.834305353409214     0.10767146419735965
   102   1      8.0937567388977225      30.530631731208079   0.0086754626250080211
   103   1       8.006452928841485      28.909127390962944      2.6316429815891662
   104   1      6.6344577959955053      31.747122988254031      2.4050146468610887
   105   1      6.4406999296852074      33.578497572618851      52.088925024319728
   106   1      8.0088589470689584      36.422245439437724      51.939367607605384
   107   1      8.1833702188168704      34.305443904974517       2.444392759857744
   108   1      6.3628414730295697      37.002180120777709      2.4559976952927034
   109   1      6.5018532461811658      39.407552801105794      52.125772365344588
   110   1      8.0319062486960107      42.131796048687207       51.95234263681305
   111   1        7.87370055353251      39.793503575479065      2.6832545443694267
   112   1      6.4574538759847151      42.604639569560568      2.5762430756806252
   113   1      5.8060192046590862      44.651902947513165      51.809576779198849
   114   1      8.0678345314922435      47.564978492202719    0.031086020378983923
   115   1      8.0482316874781965      45.198100724045325      2.5609485077713763
   116   1      6.0280727021158347      47.737992617752866      2.6717133709698064
   117   1      6.4360845733754646      50.053063368406796     0.19231443631633052
   118   1      7.8418345984861464       52.78071697007551     0.26989183450752396
   119   1      8.2289663436910203      50.663533038223221      2.7484578945509544
   120   1      6.2504830297595388      53.550957006758701      2.6414043943877514
   121   1      9.5652414670563868      55.492713212114872     0.17918326970425008
   122   1      11.257944849722247      2.7437733157774877      52.076008730386263
   123   1      11.665186065602485      0.8446990931055236      2.4135427580858586
   124   1      9.5876384278678106      3.3168723560551103      2.8233802187255455
   125   1      9.6912012604357827      5.3140475629977528     0.14567268046122817
   126   1      11.191692536236079      8.2637019548168613     0.23260800182307104
   127   1      11.352532285268788      6.2497505205854393      2.5183158645152344
   128   1      9.8126970975979386      8.9121941869315808      2.7976469632185568
   129   1      9.4307644703301516      11.031821333078982     0.43574654009270447
   130   1      11.344116011162757      13.697285779632793    0.076079620399365042
   131   1      11.427750241260284      11.638208096021746      2.9693592312520938
   132   1      9.8572833847562631      14.519882609794802      2.6916392811277325
   133   1      9.8518772182792844      16.719094253452418    0.051283627580539351
   134   1      11.442204497253625      19.441598190000143        52.0566909008053
   135   1      11.173761887011045       17.22005411875876      2.9553134288071887
   136   1      9.6661529688354602       20.13122940724546      2.6000157093064793
   137   1       9.529846238729629      21.872833561506038      52.015429588691632
   138   1      11.291114835931557      24.566206809687873     0.30052647270248306
   139   1      11.381137788765667      22.830543564509135      2.7674826245880251
   140   1       9.645517439540864      26.227587179858059      2.8447671619711916
   141   1       9.791676393065158      27.836889670773282     0.30705401570047297
   142   1      11.298211966963143      30.503272440212204    0.022867657632971237
   143   1      11.131676723115678      28.791654131258888      2.6696349390324388
   144   1      9.8986303151920474      31.338084290293292       2.440797820957282
   145   1      9.5265694225389286      33.163508418271959    0.022086852100879972
   146   1      11.426935726362315      36.155559542978025    0.083610433965534831
   147   1      11.369994088034526      33.993422910296125      2.5922930965144304
   148   1      9.6801369288486683      36.908256566569086      2.4598183126171955
   149   1      9.5938843665117997      39.228528234322546       51.95070571540225
   150   1      11.400469311807747      42.328628383697698      51.977192880544912
   151   1      11.305040077823195      39.326158276053036      2.8137294057127402
   152   1      9.6439419643608968      42.566430337166608      2.6879529546317182
   153   1      9.5285170714340861      45.095968132273384    0.082466822501670853
   154   1      11.100239253727091      47.604639842609444      51.761130626683524
   155   1      11.539732123828692      45.469034156399118      2.4373359265872114
   156   1       9.631576339617725      47.889101413545681      2.6260061882677497
   157   1      9.5660836075148783      50.414402716234356     0.25819570886043752
   158   1      11.114356861019921      53.074776756456501      51.863583467328532
   159   1      11.219318980460612      51.032403545564058      2.7186208633276499
   160   1      9.5688694441654079       53.63193027320996      2.8911450077647451
   161   1      13.108493521106318     0.11007119959530527      51.875471134666654
   162   1      14.617824538051226      2.6767604358605639       51.90313145910082
   163   1      14.642053810258092      1.1485876232925907      2.3537568154481487
   164   1      12.943349906311612      3.4347420717100667      2.2789203321607538
   165   1      12.936213234833552      5.6021743595700961     0.20472115963638027
   166   1      14.592971668946983      8.2762965937614634     0.13404328938875268
   167   1      14.474200936862951        6.23979626427694      2.6319965173095374
   168   1      12.947516924549802      9.0007340592474776      2.5695073770114703
   169   1      13.086255022465998      10.869007202363438     0.18035359204387411
   170   1      14.613111872719033      13.900580162054302    0.097866031635285372
   171   1      14.514653458531649      11.954166421842269      2.6380394795055349
   172   1      12.801669350165987      14.774480689249584      2.9166294341099062
   173   1       13.04569674636004      16.461071201813805     0.26171970162078662
   174   1      14.685468562280779      19.338745330797188      51.804186620773258
   175   1      14.492056401183646      17.441940095876376      2.8016983227275869
   176   1      12.914575385668744      20.179713813734271      2.2419660475602612
   177   1      13.038873743907692      22.317465345886916   0.0092258843385960767
   178   1      14.716220744129247      24.785292515575495    0.014640840908319852
   179   1      14.634416384619492      23.175312234103455      2.5207027991962883
   180   1      12.997702456833055      25.720711728434182      3.0146328900896311
   181   1      12.711527420013136       27.72593865530979     0.27316885449997835
   182   1      14.502940412515342      30.485018271176632    0.054105958012022726
   183   1       14.42002418238773      28.691222773682263      2.7873859579343203
   184   1       12.94535956799942      31.213309093656026      2.6786660684254069
   185   1      13.120989428153429      33.293152211905301       52.03684418662052
   186   1      14.543358563541835       36.22835579937415      51.906545106611411
   187   1      14.397052695469423      33.758278824339591      2.4843273287105765
   188   1       12.92051197959591      36.897823176245922      2.6068839378748998
   189   1      12.837295360345093      38.633565138518087     0.22186224290707721
   190   1      14.663585851851106      41.854951243306132    0.022363279703072184
   191   1      14.747653589093934      39.844969846540586      2.4915022511714588
   192   1      12.850004140214038      42.319858585024619      2.6971821145987818
   193   1      12.779170523253216      44.723918535023707      51.820047316320625
   194   1      14.158839223276926      47.729586821130304       52.02825324829584
   195   1      14.440197703768117      45.368132166522486      2.3678423878826425
   196   1      12.807110378447176       48.43773701519914      2.3562534079506672
   197   1      12.829491030642162      50.454347559850561      52.002450394972229
   198   1       14.53797088035666      53.227997075094265     0.09402593160363143
   199   1      14.446270445113715       50.98421021731108      2.6416388727048008
   200   1      13.033775624822724      53.715545214336998      2.4603264843092769
   201   1      16.169691981378598    0.092847625386314969    0.017352066547592592
   202   1      17.886947105813597      2.4777007000473628      52.092151241472159
   203   1      17.918495906196448     0.66738793859969114      2.9545257653671042
   204   1      16.214124246187524      4.0860923903314355      2.2194782443701717
   205   1      16.142373087395509      5.7469075832567711      51.827793842699919
   206   1      17.633604810261165       8.472124291966006      52.093849852955344
   207   1      18.084083791087643      6.4153579717898657      2.5126898336784413
   208   1      16.174394901964007      8.9513829793897468      2.5952514834981857
   209   1      15.962576944113302      11.051517879790424     0.23288910420322678
   210   1      17.759241506178874      13.537610540032295     0.30970122225849933
   211   1      17.607199244922988      11.787997686907094      2.6968148020012892
   212   1      16.008664066278051      14.656412160598713      2.9025296653177661
   213   1      16.009849855600795      16.549472212056699    0.013945099412520364
   214   1      17.786806826029849      19.171923658453096     0.14723046581324656
   215   1      17.582663126368107        17.6132009094772      2.6128063403607231
   216   1      15.998209406470144      20.203638785455119      2.5100017420641194
   217   1      16.342043490287647      21.902787132178663      51.916387676303458
   218   1      17.780698882209816      24.892248277247862      51.789093269045402
   219   1      17.788264688422235      23.080204614221969      2.5852561393429596
   220   1      16.315225379707272      25.825139076371244      2.6994330866454503
   221   1      16.018720839462461      27.756227041041257     0.26750501770535656
   222   1      17.898683226956962      30.497182551125345    0.087356740611488237
   223   1      17.691268164371898      28.613110174846199      2.9326208201480584
   224   1      16.311312543488615      31.251251366061442      2.7700191789281674
   225   1      16.235421739699412      33.537207741674152      51.958608306686585
   226   1      17.837488894915424      36.098134593355546      51.960032589771885
   227   1      18.086995702187512       34.27478341196619      2.4471930532135526
   228   1      16.259046922464602      36.969622842999165      2.3072981717198213
   229   1      16.271764073860059      38.756330484778111      51.865713765312449
   230   1      17.842676723818641      41.773877522340122     0.12906079746262922
   231   1      17.876270956603648      39.847698481697464      2.6044472245577786
   232   1      16.029237384813893      42.512720793451457      2.7298503910622034
   233   1      15.910616373432799      44.538349057906018      51.888093328682878
   234   1      17.358013080499408      47.251624181926907      51.775354932098864
   235   1      17.690512995086166      45.403301340504761      2.7268514101515922
   236   1      16.114843272798034      48.317498036158511      2.3309001116618653
   237   1      16.002982290637775      50.510573953922133    0.095856144006813054
   238   1      18.058456262653088      52.782561066029238      51.768224526735992
   239   1      17.710535183850475      50.668804650144757      2.6285786349273317
   240   1      16.280023336301102      53.717145912352102      2.7649859703309589
   241   1      19.276550721754663      55.306888813529426    0.010061934276344964
   242   1      21.075307703596703      2.8496821484081591       51.92834913743097
   243   1       20.67667402162833     0.93798437702633475      2.2031344386325356
   244   1      19.447352856737322      3.5197754243075821      2.5693180119520149
   245   1      19.185096509085348       5.210172868674924      51.886232490811452
   246   1      20.867983061781246      8.0576006675035465      52.068507184989116
   247   1      21.038203168510925      6.3910832925062548      2.5778012847032326
   248   1      19.564706198754628      9.3752118487487568      2.6664593458570378
   249   1      19.591590229757678      10.875525776677458      52.067647475757148
   250   1      20.921158780109916      13.695521085687739    0.090111634694867285
   251   1       21.31305436241059      11.838656947297968      2.3358166632883077
   252   1       19.23793297861187      14.317214869739894      2.8144418555540147
   253   1       19.08132142056666      16.237055662958298     0.11601955944447899
   254   1      20.961863611978419      19.201009766471518   0.0027652054397557537
   255   1       20.92092312821795      17.475283866993735      2.8655540246721989
   256   1      19.540335652905476      20.188635977698112      2.6080811668320547
   257   1      19.313536828507587      22.272375940993882    0.096611068811427558
   258   1      20.910415630551437      25.144840827363229      51.958758442064322
   259   1       21.12966300563124       23.21738354994983      2.5602447896501257
   260   1      19.354158737745649      25.677521956823767       3.067889157739446
   261   1      19.253002339872353      27.756865401875267      51.968025597768893
   262   1       21.19270858426971      30.581865188938128      0.3474639924102757
   263   1      20.862983623355166      28.590711638663407      2.5755600219179318
   264   1      19.321496655761226      31.186972066529975      2.6921718805551769
   265   1      19.485999466831903      32.872145341122106      51.948134402694293
   266   1         21.140193302078      35.814927310057243      51.908649081093046
   267   1      21.066636572954998      34.038700476873913      2.7649124455709315
   268   1      19.309226115000463      36.854894498649116      2.3134150314196749
   269   1      19.250488388839084      38.955378041940293      51.928910567005722
   270   1      21.261707131888155      41.595960057712283      51.980508713458832
   271   1      21.005305537531545      39.549002640784273      2.3888528808723923
   272   1      19.268046729611385      42.574678192182979      2.4946711361788383
   273   1      18.987612425884823      44.490074469641563      51.984155553387232
   274   1      20.789199460692682      47.345017524414573      52.049361306771964
   275   1      20.819360325753614      45.232680177299962       2.680206715763704
   276   1      19.202194078127061      48.164175495827642      2.5675402961496281
   277   1      19.091547549082119       50.02221498848759    0.017576875293318053
   278   1      21.125515122710137      52.754086247165297    0.043617685813154658
   279   1      20.653424958519231      50.832949850114204      2.7117521345355287
   280   1        19.3558901706627      53.843605410599345      2.3341385270181334
   281   1      22.509835087243463    0.018091636895595155       51.89587855614392
   282   1      24.203440209668127      2.6962964452496996      52.056427350638842
   283   1       23.87778303091676     0.95547222374160512      2.3506620136112732
   284   1       22.50736744993689      3.9717363395149246      2.3267447740135081
   285   1      22.968731111378101      5.6805368564026182      51.913120348809144
   286   1      24.260817953746663      8.1111897751720807     0.14742646615613381
   287   1      24.434189309276309      6.1224838986632353      2.5550968551327169
   288   1       22.91666721176993      8.9661462542467536       2.759243404580503
   289   1      22.681959172568408       10.75127100262732      52.039702574404849
   290   1        23.9696340885544      13.547083975618561     0.10337943423304492
   291   1      24.347492746314416      11.855171531328711      2.5602701589586587
   292   1      22.502003042487061      14.592473889280319      2.6614720155093203
   293   1      22.399424424617361      16.303072077911235     0.12970960026715075
   294   1      24.134092255533258      19.128187307355436     0.17587821449726121
   295   1      24.458404282285066      17.502435879238362      2.5700870399016482
   296   1      22.632853206149175      20.651000706379307      2.4699648399061824
   297   1      22.694432918533202      22.214125640163939      0.1010067532370649
   298   1      24.346687385961545      24.709722311315392      52.073272999919197
   299   1      24.317929393684199      23.095389683809032      2.5763461054016288
   300   1      22.473099043425815      25.880265519020419      2.6163706466633037
   301   1      22.764300229797055      27.698957390686232    0.099073084532363714
   302   1      24.389304376915774      30.448104350440037       52.01834605908995
   303   1      24.338920186329343      28.542817097732016      2.8020296716204611
   304   1      22.541878125632387      31.413993182381279      2.8287012964132972
   305   1      22.656613416450213       32.84808472994046     0.14669081757209088
   306   1      24.274282791714526      36.055278483127729    0.088979932121884195
   307   1      24.277474292941374      34.228210147779613      2.5681674326487625
   308   1      22.240510245905636      36.888289102299439      2.3914761011274845
   309   1      22.554437346190753      38.668292636702041      51.852101756591132
   310   1       24.18146817148493       41.55568208597866      51.993954114807352
   311   1      24.394768770443509      39.757661222022904      2.5477762200607472
   312   1      22.558641237662215      42.373010368822641       2.237580438312444
   313   1      22.309528468718323      44.853095182909186       51.85704302855217
   314   1      23.937855355350862      47.644733970649391      52.060146672051701
   315   1      24.161671501983982      45.326145796422537      2.1443393012944427
   316   1       22.33077756183582      48.259777733461547      2.4011137241032547
   317   1      22.371343196650301      50.148710596870835      51.882716670021246
   318   1      23.971829322842897      53.106896418796161      52.083462166158895
   319   1      23.739603981235764      51.035258096272727      2.4959572762733395
   320   1      22.627860144468823      53.711153952516064       2.656814320217542
   321   1      25.719712172746593      55.233990831055259     0.08824503618475571
   322   1      27.218795432778023      2.5284463288890588       51.84303049401538
   323   1      27.198007847515573     0.84005499722552035      2.5619778484377713
   324   1      26.167163093387806      3.8107262569961127      2.3358855685116526
   325   1      25.922158454712573      5.4798318062675175      51.784105111634155
   326   1      27.549497942832051      8.2090682741169303     0.27380928875101362
   327   1      27.468587710148089       6.424145478768847      2.6133093546707382
   328   1      25.894952538495389      8.9755879038826443      2.7230292901231699
   329   1      25.890529432676221       10.90318714993032      52.082715186426825
   330   1      27.425984069499613       13.94128871070793     0.16663507906062958
   331   1      27.291867870191524      12.241210530929338      2.5846525745615549
   332   1      25.498658746005148       14.64287468371114      2.7249706027373439
   333   1      25.727163650923522       16.48819469724809    0.097780370440790493
   334   1      27.090092941257819      19.487669381086704     0.31251775162044265
   335   1      27.285176614099239      17.507274306134864      2.7545423958858688
   336   1      25.619117980326862      20.325153466812136      2.8683699479920532
   337   1      25.959377701099218      22.212976906219986      51.815072540195871
   338   1       27.48524464195302      24.962364940631531     0.25416942952181232
   339   1      27.525513787169178      23.140568551337957       2.526235539917336
   340   1      25.840956272083535       26.20297581284845      2.6893105414634069
   341   1      25.702939919137762      27.431371872147974       51.97101367020641
   342   1      27.597835469511192      30.279893267847182     0.21022046170272049
   343   1      27.880753443430674      28.335171169490089      2.7881597952418011
   344   1      25.777650818801117      31.251174476826627      2.6050810881898654
   345   1      25.870059541199037      33.207984190287895    0.025750257168795893
   346   1      27.113661971611695      36.074115679174774      51.863171094975293
   347   1      27.369678879728056       34.14886678591072      2.4782288719259502
   348   1      25.495732528069066      36.929068071803876      2.2902958867315535
   349   1      25.473226609386618      38.984528922284731    0.062195073071633439
   350   1      27.028093219653993      41.657165318419779      52.030945863659134
   351   1      27.499745468583487      39.596860706152114      2.4081586434453435
   352   1      25.792457731361353      42.562832506050633      2.5159731373030585
   353   1      25.399987716614319      44.471188769595152      51.981075137418017
   354   1      26.872758095738199      47.250689714338556    0.027697580900953922
   355   1       27.14926234844194       45.17213841088526      2.6653344815633457
   356   1      25.431021443297052      48.054441069043406      2.6781704247876537
   357   1      25.538881784423562      50.281935672717083    0.072255166374904256
   358   1      27.112133024827624      52.804222520572758      51.792649706209218
   359   1      27.078093295415034       50.70888663932346      2.4030057567404683