dump/Mg_700_0/steps_31 (written by ASE) 

4000 	 atoms 
1  atom types
0.0      32.100000000000001  xlo xhi
0.0      55.598830921999998  ylo yhi
0.0      52.130399999999995  zlo zhi


Atoms 

     1   1      32.007769764230083      55.513330398810538      52.087305038637965
     2   1      1.1964208234463101      2.6828657980535162      52.125478994916307
     3   1      1.3509294439160495     0.72301256589149754      2.6901546168553692
     4   1      31.838997371422323      3.3058650766608588      2.4369672397909614
     5   1     0.34593809243631612      5.5871113231960159      52.106597794111373
     6   1      1.8331797875268334      8.4650541418004828      52.008853241511197
     7   1      1.8660041130888103      6.1228564788665345      2.5912656863889096
     8   1     0.02796112513480084      9.0553465143699707      2.6463493505470179
     9   1     0.10607961699109945      11.183056165600751     0.15145835327611301
    10   1      1.4660030850813242      14.055847960239481       52.09239640948703
    11   1       1.548199347718866      12.162172986513164      2.3759468020749686
    12   1     0.17431239222860415      15.000583173985589      2.5014086585392796
    13   1     0.24633574379253548      17.059726910907084      52.050205815275504
    14   1      1.7488572966891187      19.511871235521291     0.12190753511389997
    15   1       2.041232147586618      17.599053877056068      2.5513667113238307
    16   1       32.02605911683937       19.88267395148139      2.7095880163166206
    17   1     0.11817748351807511      22.404020913353548      51.993048358511359
    18   1      1.6458871483337871      25.103648963847398      51.982832986414174
    19   1      1.9077318483735695      23.201550701132007      2.3123303546521865
    20   1       31.89891006381945      26.131239021905397      2.6274212260805125
    21   1     0.08326594877636842      27.770809807858999      51.985921209619413
    22   1      1.5228429628980062      30.684503400675833   0.0069479257609247518
    23   1      1.3869003055982161      28.854634787410173      2.6339325536433904
    24   1    0.072386879960324391      31.526225846866058      2.6763911146866555
    25   1      31.708255020108368      33.435140761631466      52.118541786521256
    26   1      1.7925915693677039      36.348386915736633      52.089101634622835
    27   1      1.6149059143798932      34.533546160042853      2.3701479844366289
    28   1      31.886020739254771      37.117324647456599      2.6315357985546339
    29   1      31.976933592512275       39.04845433819078     0.20283619049883869
    30   1      1.6100161673327484       41.82478474038291      52.018110297525787
    31   1      1.5304537156784057      39.718384490552033      2.6661923906264677
    32   1     0.22779859964014398      42.511404390161907      2.4925141775169752
    33   1       32.00428574160135      44.526458321097692       52.01021991526121
    34   1      1.3469299362564831      47.006902528857189   0.0015111714884893451
    35   1      1.4831554973783696      45.278042134122082      2.4813901058883041
    36   1      31.796186412724165      48.088421418829633      2.4169699622522236
    37   1      31.923784173058493      50.393726057546971      51.900892200597369
    38   1      1.5688585628624949      52.743359240473147      51.990152778447637
    39   1      1.3073117513947541      50.976230122794327      2.5398486068638952
    40   1      31.778135917971387      53.697613599241102      2.4627553187710807
    41   1      3.1959441387477825     0.15648481471043879      51.974608895995857
    42   1      4.6925516868241974      2.6340516577845476      52.046889989280807
    43   1      4.5216243852841513     0.79231656004845419      2.3299673139580612
    44   1      3.0541349845231718      3.2897503443910332       2.639381789962421
    45   1      3.4892601288179068       5.891534115609268      52.097766549069874
    46   1      4.8344016111100903      8.4310693865867368     0.26116496996113081
    47   1      4.7982187831185925      6.5328459807103139      2.6775993697942888
    48   1      3.1970085998931865      9.1221305573485747      2.5839413684995964
    49   1      3.2632857894083389      11.208906259693283      52.012232261820152
    50   1      5.1762477497914485      13.729250502506988     0.23599479189158948
    51   1      4.6550156516284229       11.77875156516062      2.7304003710055484
    52   1      3.4192818113590149      14.502805797899839      2.4714197321083975
    53   1      3.2113302642353641      16.724584633606991      52.051497990288965
    54   1      4.7882804391829907      19.521754543408786     0.14326588690957018
    55   1      5.1402150160172608      17.781237037913492      2.3460377100241505
    56   1      3.5152974837015685      20.605890383955771      2.5902024103466803
    57   1       3.387665257905907      22.361715653279838      52.106688319573102
    58   1      5.0641874409500121        24.7968702725172      52.036990846260146
    59   1      5.0651893643879742      23.305449598591149      2.8387257715588787
    60   1      2.8974401548093183       25.92039184828463      2.4718227183893364
    61   1      3.3275959295167752      28.203219382910479      51.923856149925413
    62   1      4.8010692182850088      30.653155171971886      52.009593286876978
    63   1      4.6209666866406476      28.926250136108568      2.4443944545638017
    64   1      2.8780217083899755      31.750946110896326      2.5209875102646273
    65   1      2.9729123155922728      33.435160933022928     0.13296138793712614
    66   1      4.9526466813465628      36.305538106103022       52.08390455429052
    67   1      4.6394467136037321      34.294216927100592      2.4119637324281764
    68   1      3.2274252587773069      37.175384670935671      2.4334433211242179
    69   1      3.0479360474786805      38.926995175105255       52.00044666598815
    70   1      4.7354209301433965      41.729281369717746    0.068809578329369417
    71   1      4.4899503730518564      39.976863645170489      2.5128676295266796
    72   1      3.0530103623151641      42.660550690831016      2.1993717742078243
    73   1      3.2995666197362539      44.666550115666915      51.918400936761586
    74   1      4.7846220705890552      47.408664189832152     0.18327648571251157
    75   1      4.4483174936872034      45.356530542480058      2.6835880634606117
    76   1      3.0569402673458437      48.071793319159632      2.3884329939653068
    77   1      3.0733649731859667      49.880597740609659      51.996641080829448
    78   1       4.681481113743482      52.875760922775669      51.959985034948573
    79   1      4.6201822124084879      50.969611461744549      2.3542024491014102
    80   1      2.7271929561120989      53.784173323270537      2.4123563103293462
    81   1      6.4656100892059616      55.567668395842581      51.827470641211669
    82   1        8.11248490665559      2.7749674255831316      52.082855327728488
    83   1       7.821593237239437      0.7348311114532764      2.5186061468278065
    84   1      6.4960305080346901      3.5490610478660436      2.6486070205147225
    85   1      6.6604367581882062      5.3476877309524182    0.074276877226117061
    86   1      8.0063758726940275      8.2445654800334029     0.12133948142130899
    87   1      8.1364072614106018       6.767970899659371      2.7182981341669001
    88   1      6.8075132251262147      9.4044420908380282      2.9528379139682905
    89   1      6.4465997174102814      11.064477487490787    0.050902131094837016
    90   1      8.3314514189823754      13.765845261688032    0.071125293449376487
    91   1      7.7413174370479529      12.255422696287603      2.5735499293082116
    92   1      6.6529582711977762      14.916342847463541      2.8037529849533631
    93   1      6.4530880898133196      16.340631941550011      52.078508534409863
    94   1      7.7252161779047421      19.233748825006156    0.079012123585694108
    95   1      8.0438117564818228      17.842082028656314      2.8137247179971405
    96   1      6.8019261324817224      20.451492423865389      2.7719249533692429
    97   1      6.5188252671481086      21.894187818950162     0.20443164460335164
    98   1      8.1104297339369751      25.028761512028076      52.051122225419682
    99   1      8.0930863752035762      23.289612634036953      2.8773104024203819
   100   1      6.1219830471989702      26.235396427693299       2.779236887954053
   101   1      5.9509770562021931      27.688151350358559      51.929715373141498
   102   1      7.7860102218040037       30.26520850952922      52.005133767472145
   103   1        7.60412537615316       28.91984821270449      2.5361211185065944
   104   1      6.1359813930530951      31.823859784922185      2.4604295117485586
   105   1      6.3116081833467845      33.765832681709092      52.089616978199167
   106   1      8.0639530355121956      36.198077609498306      51.898500423820288
   107   1      8.1200300731147266      34.354516154568245      2.7627294759280883
   108   1      6.4136825054554789      36.904218306645838      2.4590159850554123
   109   1      6.6128053386788279      38.962084398757277      51.993081602034728
   110   1      8.2691083008192674      41.467868051815323     0.27864741504421114
   111   1      8.1180884782680778      39.756718778261074      2.8067259017219244
   112   1      6.6503846033771117      42.675317872261033      2.6665012248593403
   113   1       6.291613063986099      44.382090925385938      0.4389996738992698
   114   1      7.9197192922496811      46.989818716469664      52.073986694079096
   115   1      7.9663837906251906      45.622292417437023      2.6106120327424844
   116   1      6.1770452069827959      48.036387207532023       2.833885751155246
   117   1      6.5720584032154115      49.892550480766864     0.11630814293797276
   118   1      8.0062779030156168      52.628404344812374      52.077809276294687
   119   1      8.0967731323781802      51.019332016407255      2.9050983961491674
   120   1      6.2666225507565398      53.725033190974962      2.2763522780572831
   121   1      9.4147175025842973      0.1446180435576187    0.018534267315679611
   122   1      11.104008982484462      2.8362600683158967     0.23254304932950265
   123   1      11.390260348826608      1.0976131140693206       2.772117051103109
   124   1      9.4396614303786492      3.9527476087248643      2.5723246470546437
   125   1      9.6187374641089729      5.7662296368655035    0.046843143737252096
   126   1      11.253633242639546      8.4618856239961016     0.12320950408491793
   127   1      11.480674465967159      6.4627720837466676      2.5938338867416171
   128   1      10.165462100087474      9.2145441956818335       2.669217749613892
   129   1      9.4403067230701367      10.957688837645577    0.015005092388469827
   130   1      11.316204081330515      13.761131887331715    0.057553446509390128
   131   1      11.300073296528364       12.10040673577341      2.3073846825016542
   132   1      9.5950880695653851      14.989530340712051      2.6514524657513876
   133   1      9.8277158964774536      16.581073886425656    0.047781895847971073
   134   1      11.069851853563113      19.481400348203383    0.063956671049024721
   135   1      11.345651349523539      17.887712006662763      2.4830823357973273
   136   1      9.6867632635344414      20.616642396475946      2.9141554432571479
   137   1      9.4381294628690711      22.329287794804358     0.21236202817333427
   138   1      11.218992235326514      25.017611917104688    0.077466795779953218
   139   1      11.208223086422468      23.196154951765784      2.6854277506060331
   140   1      9.5725371415352214      25.939410506453385      2.5095917097727303
   141   1       9.538521646829901       27.75091150973773     0.13631587117197938
   142   1      11.019340709892186      30.288918830845638   0.0092157562249197463
   143   1      11.036020460818838      28.602683532175085      2.5390631130294774
   144   1      9.4716120876743677      31.512091443083921      2.4754885763870993
   145   1      9.6770785585333972      33.605307416387042   0.0022636175353924932
   146   1      11.302267102754174      36.151799361136987      51.953783069809631
   147   1      11.474406873781149      34.292833522416537      2.5571040439391814
   148   1       9.595261462570992      36.836478698890716       2.314599086175519
   149   1      9.6015625317907265      38.808174388005476    0.062184671537019065
   150   1      11.145217823045398      41.708650832667814      51.979439713315053
   151   1      11.185276689676874      39.871830802128798      2.7370306421940214
   152   1      9.6519886757758773       43.05242831541463       2.385177986145206
   153   1      9.7222616967512199      44.595389711904389    0.081386474977064679
   154   1      11.096011822650526      47.706912474200301     0.44744475214868001
   155   1      11.066613765948581      45.485089071798697      2.7985381737725348
   156   1      9.5137422657893058      48.085018178763832      2.9797275443304607
   157   1      9.2161730858948765      49.651721323704393     0.34581380301362569
   158   1      10.962108173248138      53.044697285857247     0.23983951745165652
   159   1      11.086777783015785      51.187610330113465      2.8274814408556415
   160   1      9.5205078908283287      53.873048744831564      2.8431765491448644
   161   1      12.833845070060301      55.404125459636376        0.11813197684879
   162   1      14.426440324956479      2.8684068550636237       51.97966434074123
   163   1      14.838649543575485     0.92937814439552857      2.5647522689365525
   164   1      13.103178419034332      3.8651980943712374      2.6428609879159697
   165   1      12.876476023928918       5.587369989078403     0.14171730187726617
   166   1      14.387984863213047      8.4570973056987579      52.016122373925405
   167   1      14.272623930812273      6.5277918078344754      2.8039427855483399
   168   1      13.142227739558425      9.2962689615358247      2.6421592066236577
   169   1      12.868698170559536      11.256311890636161     0.11206778752182382
   170   1      14.543217026712297      14.146472452809936      0.1735044824530608
   171   1      14.436448448247928      12.071366585669681      2.6051595088174415
   172   1        12.5822904504641      15.069395118218621      2.5706823527698068
   173   1      13.198557538321595      16.972734698505683   0.0002653416173623554
   174   1      14.841447897403954      19.552632321316111      51.970175585225086
   175   1      14.741103097687674      17.972314732809995      2.2912976436139219
   176   1      13.005953000818714      20.437225101384058      2.4684376940979478
   177   1      12.956292063594834      22.442251745841901     0.17201963000711781
   178   1      14.449382005143081       25.06766938117217      52.091988358844041
   179   1      14.645699932674617      23.337690746947363      2.5338607682906624
   180   1      12.667879324715846      25.798719574984769       2.682439093793862
   181   1      12.648367014597481      27.682454550425369   0.0038092101389553125
   182   1      14.223184564389136       30.44710906571877      52.120504534794691
   183   1      14.425062895803118      28.391360913213799      2.4093325857276535
   184   1      12.844330744851421      31.424365142853105      2.7323266856797139
   185   1       12.75941396206643      33.489457576124821        51.7490041432957
   186   1      14.535313132434744      36.076459748781716      52.040019756854292
   187   1      14.670066971887632       34.42931803562864      2.7631777275831286
   188   1      13.091559063128548      37.172934540341799      2.3103388288561555
   189   1      12.558372785653424       39.05739731159855       52.12204865410478
   190   1      14.334673609133084       41.57859775736663     0.11488819527694774
   191   1      14.046561024406756       39.97673508707765      2.8052835269477518
   192   1      12.707118664537683      42.722570647130333      2.5755401837250256
   193   1      12.572937552493949      44.615577902127697     0.30142432089272853
   194   1      14.216626324513108      47.078962768754039     0.11338919287223899
   195   1      14.359603639318072      45.259223548676729      2.7963699344804782
   196   1      12.600908793919238      48.303058265695533      2.9167152815518609
   197   1      12.548624893112921      50.034289192740623    0.088911730396656397
   198   1      14.138680137412397      52.548611193518369     0.29068764255070212
   199   1      14.441514236201535       50.87165765870256      2.8170042923225509
   200   1      12.797584196068698      53.680397137568193      3.0669891641771625
   201   1       16.07583810251052     0.15029266262363539      52.089452072107932
   202   1      17.357375653845047      2.8540528225840629     0.13422701494208605
   203   1      17.810093194422141      1.1141952189677473       2.614359093819238
   204   1      16.155744434324731      3.8014580320151494      2.6150135962901939
   205   1      16.008658214483653       5.491628380334113      0.1609607888978713
   206   1      17.566354479186224      8.4965701786813028     0.04221266075988421
   207   1      17.429822780525466      6.8291282817212355      2.8652603576531805
   208   1      16.104286404777081       9.525938956510478      2.4691701019312124
   209   1      16.015344781806679      11.418660351473029    0.037082887716367995
   210   1      17.953855681911538      14.003647342262967     0.38526053443648595
   211   1      17.783590199151355      12.035554966278722      2.8163117873696848
   212   1      16.349925383904598       15.02924891567347      2.6626754332621374
   213   1       16.40745745375024      16.768953112758204    0.095707560182517512
   214   1      17.888946241666506      19.300878890691138      51.880432332714157
   215   1       17.92147477478326      17.810203400919121      2.6069412059036785
   216   1      16.239591481540486      20.480697967155741      2.3718323373157184
   217   1      16.235483929861275      22.523015914317643   0.0010874148231927413
   218   1       17.66093771139969      25.293623937383675    0.029722085298067493
   219   1      17.995676670523718      23.461355982196697      2.4863498487597528
   220   1      16.245326215675853      26.007985303707049      2.7720826460963703
   221   1      16.207745584202037      27.623029553408479      51.965557232717131
   222   1      17.658887499542029      30.247765511134102    0.038780177041752427
   223   1      17.427752724921156      29.044574649334997      2.7249150044105539
   224   1      15.865274465298056      31.628614749319077      2.5152399171900295
   225   1      15.670441547629331      33.400807559018588    0.018699683261242606
   226   1      17.523913748387589      36.105200977530203     0.16990384191262908
   227   1      17.889018468198163      34.255572167779434      2.5833898924426322
   228   1      15.980523951965456      36.777607198197117      2.6652956008985456
   229   1      15.609630399818634      38.717297205510434      52.068883799487232
   230   1      17.189209204453331      41.585135467602207     0.38368186207764826
   231   1      17.693959259020357      39.790849667110315      2.6208649600455729
   232   1      15.872819109604889      42.525366377181072      2.6455085676149017
   233   1      15.896070049288744      44.513732334325518     0.22514253916806889
   234   1      17.473410617432023      47.351487967962996      0.1036939261487386
   235   1      17.485314811445473      45.462031274943442      2.7631968799627136
   236   1      16.175729699983759      48.064155592946783      2.7478853504669192
   237   1      15.704610904185783      49.762716211813455    0.062587874219650841
   238   1      17.236977555943412      52.346952184173531     0.35514280324511888
   239   1      17.636899761924358      50.792550098836216       2.905880579347047
   240   1      15.737264496039927      53.565894587005964      2.8124904483644513
   241   1      19.240674777323537     0.32784380478339642      52.108843408888575
   242   1      20.412146304088342      3.1131807001432477      51.933736111007867
   243   1       20.85460326343394     0.77464934479876568      2.7907515006860786
   244   1      19.183937952689824      3.7477544373688914      2.5389911820998678
   245   1      18.899865426325739       5.748855076165504    0.024654441362087959
   246   1      20.453737916098738      8.3106838331953607    0.081245353490828023
   247   1      20.447855768491042      6.6823942487685253      2.7376484039020199
   248   1      19.149186348642218      9.2967826864941312      2.6432202726530725
   249   1      19.043343674441367      11.094261788775476     0.23980467076357564
   250   1      20.883164539404728      13.650986511482158     0.19018942325364555
   251   1      20.925296539033074       11.77127921439803      2.7746114368998187
   252   1      19.335376662049264      14.679145456210554      2.6735904600904346
   253   1      19.572947242116616      16.579338514605826      52.032941017641669
   254   1      21.192080367743657      19.120244542583634      52.033591723781292
   255   1      21.003249978595189      17.357477181188262       2.536497609068892
   256   1      19.556300090931511      20.436857465688774      2.3940163592886314
   257   1      19.300207665287367      22.077924334553494       51.96331834114654
   258   1      21.042012496677359       25.04201965441812      51.949155495527869
   259   1      21.045675521740147      23.175570287362234      2.3608629325064054
   260   1      19.496031168269141      26.061464079709122      2.3756302648687226
   261   1      19.260007428550452      27.985238638911383      51.945794658588412
   262   1      20.866865914575474      30.592502791468586      51.936513635902557
   263   1      21.364071600332203      28.901701033808937      2.4385407783375812
   264   1      19.329090026695877      31.551988241367191      2.5033413640804318
   265   1      19.209683454752167      33.076138160466201     0.12559173328260359
   266   1      20.507366347161604      36.503273312522531      51.752971222417102
   267   1      20.895990615812483      33.886997745607189      2.4430524117791084
   268   1       19.04409093617863      36.993745480328975      2.3918620291600075
   269   1      18.967973769250957      39.226553599332604      52.067178141190531
   270   1      20.806918498211822      41.965433300965344     0.30721609785449938
   271   1      20.661649130878423      39.625363798568287      2.3484535235983111
   272   1      19.203745988039739      42.502021493292915      2.7999157354038777
   273   1      18.723845237252032      44.373194079671073     0.25508748937775333
   274   1      20.829735683094718      47.177574375656697      51.911950074910088
   275   1      20.602531969647007      45.427098192117512      2.5058487842595158
   276   1      19.493329103397507      48.075529984321832       2.851672373591386
   277   1      19.579607749157265      49.814920290508766       51.81826669520666
   278   1      20.502436466295009       52.98165875497542      51.967254596577639
   279   1      20.754854843336179      51.028208204903422      2.2823795991651128
   280   1      18.986934672024766      53.632666591334178      2.6836623866797065
   281   1      22.185646473468211    0.054777288565819177     0.15110703815336032
   282   1      23.696329906347565      2.9432604264602693     0.45142019379626547
   283   1      24.125082762278716     0.77728735069843569       2.903456766845864
   284   1      22.202889622473442      3.5459785906615524      2.7222810312481247
   285   1      22.173236500887246      5.5492058236302846      52.104294138324512
   286   1       24.08106361049207      8.1119103249683402      51.978375901235026
   287   1      23.950229000071598      6.2399864529335582       2.474742423834122
   288   1      22.495685781510272      9.0842288128196547      2.5703029358182068
   289   1      22.611780616682683      10.716652525012728      52.013993971835831
   290   1      23.918719561944929       13.49728766994903        52.1066088912144
   291   1      23.976419799310108      11.783976627889347      2.8544268125994394
   292   1      22.225061291704311      14.606383217753571      3.0607333964057233
   293   1      22.806717781911054      16.406758825433077       0.122033981964756
   294   1      24.438596483803366      19.140570964260831      52.080913732865803
   295   1      24.202788957143287      17.497368324220698      2.5466201740455836
   296   1      22.690009658773572      20.518046556080833      2.6826721052684737
   297   1      22.374213209799628      22.209579906917963      51.771915495295474
   298   1      24.170902190696609      25.100590460358251       51.76895628102892
   299   1       23.94001522243698      23.141205267712998      2.3205971119263271
   300   1      22.637070291303676      25.894138616515608      2.3907529019940643
   301   1      22.815010258410215      27.630495177618009       51.96895336931609
   302   1      23.944936539405411      30.563990706776163     0.15691671625981587
   303   1      24.510092203145771      28.741338583459868      2.6705890612580503
   304   1      22.802839376187514      31.453532624399244      2.6718105533231342
   305   1      22.027163534299419      33.309186264620458    0.040776067888820676
   306   1      23.871630943812185      36.435427435192238    0.072339482268451258
   307   1      23.896880779473722      34.399609287741903      2.6270374039018565
   308   1      22.158335204106972      36.697669641029265      2.6315499693866728
   309   1      22.451992270251331      38.662829300257172     0.11461965916545244
   310   1      23.899374346116787      41.620467718999386     0.18382420943380856
   311   1      23.895185946643593      40.087532137125848       2.709449462954399
   312   1       22.28133860436218      42.882426352256026      2.7609049833415806
   313   1      22.181619705876273      44.421919108004133     0.22212761733969322
   314   1      23.943877498362106      47.300877107416547       51.97909721264682
   315   1      24.156969194835636      45.537241985326041      2.6070703814344505
   316   1      22.375465547798445      48.043094224992167      2.8350221270660456
   317   1      22.454628513057546      49.976434674481951      52.067207854759801
   318   1      23.987729722294336      53.164359211834231       51.90696617180064
   319   1       24.11933726321783      50.971676377718843      2.4395405886062966
   320   1      22.220064899479851      53.627083676930368      2.6964015882185977
   321   1      25.647406648189847      55.567662746309551     0.25392987111070536
   322   1      27.037137571683818      2.5228558608293477    0.079961473055772739
   323   1      27.185730574580891       0.742838007919708      2.9450247095031981
   324   1      25.835214168006949      3.6772432895911962      2.8769578872798922
   325   1      26.045242399457138      5.5192279548315346     0.12150872291309277
   326   1      27.494508073742644      8.3976330388451661     0.24475077280163537
   327   1      27.288935676868594       6.365438775755079      2.9980912932693911
   328   1      25.707031310261865        8.81213788619573      2.8527266001680531
   329   1      25.925788117086594      11.007384915776036     0.11942578472486601
   330   1      27.142657297487894      13.583011868791919     0.21235650662314204
   331   1       27.18402123187219      11.650575375098116      3.1097636123207537
   332   1      25.394519522302094      14.575493484681724      2.5635697641310187
   333   1      26.033136954246341      16.387187645515759      52.046794991921409
   334   1       27.25153647856613      19.215647402017066       51.90479725916471
   335   1      27.346742763172418       17.33263167506669      2.4272812064572742
   336   1      25.603591812902895      20.253776255356268      2.2793119391405283
   337   1      25.335139190336065      21.951137786310621      51.958444586013066
   338   1      27.286815508417238      24.902190413664055      52.097095341032997
   339   1      27.220391465341859      23.032046755878174      2.4481272989311691
   340   1      25.778816781014573      26.037674267784549       2.163224744139145
   341   1      25.901404989104783      27.645899172833722      51.845423689221022
   342   1      27.252885294725893      30.642922878622457     0.11027877576913721
   343   1      27.644893999875958      28.698779487604277      2.6183718598932502
   344   1      25.583470195129912      31.453438640044716      2.5839954304774868
   345   1      25.805346424609013      33.352060405365989     0.31695087881366529
   346   1      27.192294905006239      36.462264673016264      52.011770044821041
   347   1      27.058446429993662      34.243460173446195      2.6579067074436273
   348   1      25.265823991218863      37.064999597022165      2.3325201218291158
   349   1      25.542643883606935      38.997702781151666       0.250679821523138
   350   1      27.175081660338144      41.874766931078945     0.26177520907593665
   351   1       27.23045678761908      40.020494638242482      2.9254965935975941
   352   1      25.442784312354771      42.679990993141843      2.7039481683911299
   353   1      25.814154734536711      44.651711241181196     0.13715675759927104
   354   1      27.164283513386845      47.299349944758859      0.1105481685264777
   355   1      27.330445339690126      45.261931449601548      2.7421913060606991
   356   1      25.353599558596297      48.166034493109159      2.5509268032537626
   357   1       25.83706389459957      50.125358995537951    0.085628097552727087
   358   1      26.896468744743629      52.820871120893855    0.021869489964174933
   359   1       27.03953775713001      50.899208526275793      2.5685837942837195