dump/Mg_700_0/steps_91 (written by ASE) 

4000 	 atoms 
1  atom types
0.0      32.100000000000001  xlo xhi
0.0      55.598830921999998  ylo yhi
0.0      52.130399999999995  zlo zhi


Atoms 

     1   1    0.058669707987943236     0.41724990869099687      52.088727646145102
     2   1      1.4495207252328801      2.7530621410641714      52.050936157756873
     3   1       1.757466785695091     0.74293548998902759      2.3057119015837024
     4   1      32.010369059796027      3.5422616165184158      2.4441706437941293
     5   1      31.988246531842769       5.287349826152437      51.788247162924392
     6   1      1.4440492742831137      7.9838747044062091      51.936917570032861
     7   1      1.4832535494918937      6.0274903086036762      2.3979435308832167
     8   1      0.0797027178431228      9.4280285945703319       2.652963551180584
     9   1    0.081582725695731689      11.149135337772583       51.79355770551701
    10   1      1.6765193369435383       13.80737810913932      51.991899889625408
    11   1      1.7094012921507902      11.854688184154297      2.1144022116922554
    12   1       31.98119210052883      14.693716088408367       2.487661024954908
    13   1     0.13870572465315703      16.542363984976891      51.952270553236495
    14   1      1.7182719334555159      19.258601876661302     0.10978944276485876
    15   1       1.780944738812879      17.661569288292394      2.5799389598963689
    16   1     0.29293345754704353      20.065389190785339       2.580337437354324
    17   1    0.028698725020221881      21.858396027867311      52.051019891678976
    18   1      1.4753398519283607      24.758918335353378      52.091469317918481
    19   1      1.8143820815802558      23.181941156764701      2.5076047046705434
    20   1      31.913714911334374      25.639479043817595       2.537474537937364
    21   1      31.955651000304361      27.575709508874912    0.044360925566390132
    22   1      1.3772539568815128      30.161577252435471      51.945530165595308
    23   1      1.6422556708691811      28.845824225383453      2.4641938131607581
    24   1      32.041762420161987      31.724616316535343      2.6997339599878409
    25   1     0.39141065808629966      33.389810719629281      51.965012639587037
    26   1      1.7100150495971342      36.135748878420415     0.62753603407761105
    27   1      1.8008631608591859      34.151026259105045      2.7039261439567612
    28   1      32.021945816461646      36.845669619558919      2.8627719013659916
    29   1     0.10599571359851119      38.732871298790883     0.36259466205426677
    30   1       1.537251965873057      41.839033296169063     0.14317953641102277
    31   1      1.6607556855420329       39.56494883814959      2.9245348587190838
    32   1      31.944313206450481      42.782822120940985      2.5847897384878884
    33   1      32.097439836839719      44.378222403067959      52.054272687382351
    34   1      1.8718380224207449      47.100653016765428     0.11135511552418775
    35   1      1.2672685763261511      45.573863228144745      2.3417545524344399
    36   1      31.976108685139341      48.116407615297682      2.4299933449022872
    37   1     0.39061255392079625      49.787514592754299      51.997582641785421
    38   1      1.4924479844187624      53.096512790815595      51.975791660081612
    39   1      1.4719017474279141      50.944503439227255      2.5638826293773342
    40   1    0.063424421415769497      53.670233805691538      2.7822000626222909
    41   1      3.0764574758592702      55.305878410567537      51.917587713533962
    42   1      4.5032314108888656      2.0358461322532819      52.036041198667313
    43   1      4.8060123879475993     0.36526921308518318      2.3978328456900608
    44   1      3.2200562906428569      3.5830008379249891      2.5999850033321108
    45   1      2.9315749601319823      5.1536174556297585      51.930634865732642
    46   1      4.8223668688538686      8.2893788053152981      51.963774497090633
    47   1      4.8392818656971679      6.3720861841178378      2.4348330258099797
    48   1      3.1799464103703614      9.0257328647747421      2.3222366069224427
    49   1      3.3555428994567134      10.781216839505955      51.861317806316116
    50   1      4.8284664900121417      13.342275453953778      51.907922943157175
    51   1       4.855517007787582      12.059798619075416       2.436690246210095
    52   1        3.10260861789402      14.523227765189102      2.7647066219518996
    53   1      3.6080012465163813      16.589995378223428     0.24916384995776913
    54   1      4.7292251459891466      19.230433854268327      51.927928419981484
    55   1       4.877319468872507      17.816384389086085      2.7577484611743639
    56   1      3.4325407040577169      20.443100041045806      2.5306166389612872
    57   1      3.6226222632860794       22.11843305782515      51.933837921369864
    58   1      4.7408959170006781      25.102052032783906      52.127792718964713
    59   1      4.7570501848357418      23.361622651154736      2.6123499540431099
    60   1      2.9642828019232415      25.969192128782627      2.4043983767269759
    61   1      2.9734180227384339      27.674246016849125      52.033538579062927
    62   1      4.7704200666176808      30.499517710734636      52.099659382474549
    63   1      4.5893522350730001      28.850861626204821      2.9685748563959038
    64   1      2.9929182064874587      31.269201172894881      2.6660285496115836
    65   1      3.4974657749397835       33.40185579309567     0.21960939297684171
    66   1      4.8952542082679855      36.108189996154394     0.16162158871500126
    67   1      4.9181212073900769      34.367716089042744      2.4552915845678625
    68   1      3.1546496246709821      37.007695323853753      2.9752700209903344
    69   1      3.1860928975074372      39.057285245027948     0.27807870076758273
    70   1      5.0265593753743048      41.775001130991797   0.0011470205876552447
    71   1      5.0181766446252878      39.926586667388293      2.5172447755800911
    72   1      3.2378184293024268      42.834044278125845       2.556773593438705
    73   1      3.1400144006265758      44.161702815765487      52.002214105649664
    74   1      4.7544749561599922      47.303642237346018    0.023025396154474298
    75   1      4.4513261228998759      45.478422805474018      2.5872709026057699
    76   1      3.0716817633451625      48.330903869168637       2.559526613650783
    77   1      3.1976226014845297      50.305979033816953      51.838498316710762
    78   1      4.9783520196866817      52.996771927298951      51.976586539283076
    79   1      4.7057445556777138       50.77093428545033      2.4863560700921239
    80   1      3.2857770676348483      53.550446523659588      2.6350761202966826
    81   1       6.495897259114173      55.292580852234266     0.24577658518522369
    82   1      7.9004263246149247      2.6799850668110814      51.968848179605224
    83   1      7.8240368518476062      0.9166822897029735       2.478700265594918
    84   1      6.1735506751255649      3.3315399121970755      2.6919938837912993
    85   1        6.06257322589589      5.2107925150809677     0.23944144439117906
    86   1      7.9581391880874399      8.4527352688893949    0.016976442581800318
    87   1      8.0079301734913386      6.5084529126102861      2.3955971672288645
    88   1      6.2857041201758879      9.3180119492465572      2.4186971480873236
    89   1      6.6384852267760719      11.115179837095168   0.0037473837176125913
    90   1      8.3220352490779526      13.915149818337401     0.16687616736070837
    91   1      8.1220513200904065       12.39419765250909      2.7509584288902644
    92   1      6.3917854765956292      14.904913360088006      2.5372996121881481
    93   1      6.7871280112981323      16.473961794219317    0.012317340655308881
    94   1      8.1484820094526018      19.280804861782489       52.08423223069007
    95   1      8.0402482292872524      17.791602129006201      2.6346243256491557
    96   1      6.6423861175491199      20.471210739280007      2.3136111063480689
    97   1      6.8440442887446427      22.384288897984458       52.02716627115062
    98   1      8.1137342119773148      25.031087062060074      52.110278817073869
    99   1      8.0814494815592219      23.407020543025148      2.6209936307654971
   100   1      6.0194650569280936      26.078811440049602       2.509445743286435
   101   1      6.1662803237682073      27.919170181607495      52.035925128809261
   102   1      7.8555132728495582      30.495620135085755      51.886930706157806
   103   1      8.2453956039204694      28.746516676526237      2.3981400967602879
   104   1      6.0932487778662576      31.457018968699749      2.9242046192745623
   105   1      6.5241236613468034      33.082382659183622      52.080097606152002
   106   1      7.8346948572061468      36.124473580951751     0.34077952563006048
   107   1      7.7141848104903303      34.274322995040592      2.8990106826471753
   108   1      6.1503624236701553      37.091656264982703      2.7413051960295607
   109   1      6.4591647387342217      38.832839732868862    0.087513914398890599
   110   1      7.9993764149554671      41.757370908117792      52.030883716985343
   111   1      8.0774562370703897      40.167261944341689      2.7074531478026009
   112   1      6.2905442087452981      42.758162268869242      3.0503728245446959
   113   1      6.1053417600481774       44.56436154522509      52.129123795652575
   114   1       8.041824824276814      47.072640476274657   0.0092321230060940021
   115   1       8.095822757331101      45.286399973840545      2.7053249131555681
   116   1      6.2769969807838537      48.114678404320706      2.7895162855746318
   117   1      6.5009850836781329      49.838063689720919     0.03859570352939707
   118   1      7.9006796763969138      52.586916198253533      52.013088676805417
   119   1        8.04463677080801      50.974990773341034      2.4027547428899343
   120   1      6.3400202583400906      53.214076690433814       2.890935193841667
   121   1       9.814476509989964      55.344379433443962     0.25556055645279474
   122   1      11.394081048936412      2.7629899752937912    0.064097933675819757
   123   1      11.306629786615256      1.0501531650209996      2.4739092385903891
   124   1      9.6291098296529682      3.8952087456853488       2.709609814256396
   125   1       9.836820218252857      5.2644324732526391     0.10725006631881889
   126   1      11.366173307478523      9.1217830326237177      52.112441966457517
   127   1      11.407576125966854      6.6249163440066816       2.502679502031699
   128   1      9.3483190608566549       9.550199568585322      2.7552835754077445
   129   1      9.7229852420578986      11.554749263117879      51.903791044581688
   130   1      11.463675936588894      13.985731407679333      0.1245813970100768
   131   1      11.395574214762417       12.13019735369738      2.5103064776083817
   132   1      9.6730550809340219      15.286997721766706      2.4486333191290983
   133   1      9.9845866417171401      16.740919414544496      51.922170697856814
   134   1      11.455320756625246      19.475298561117771      52.107221274702617
   135   1      11.245748495762031         17.846347374129      2.3994611574646023
   136   1      9.6960217961042208       20.63944287828518      2.5394292270019676
   137   1      9.9482201430225405       22.47956398280138      52.121366600908026
   138   1      11.209053070608878      25.056501340551957      52.024923147757612
   139   1      11.320068262174891      23.394532145926082      2.7493154811510196
   140   1      9.9795489271902245      25.955821789037241      2.6033903372845351
   141   1      9.8113747470499568      27.766939705339837    0.070025113350226237
   142   1       11.00949980312223      30.714061621104698    0.059476670196451024
   143   1      11.333058963410492      28.869042622914968      2.4424428536297143
   144   1      9.1216372640442813      31.609937927914526      2.7229822351353898
   145   1      9.8179069312965339      33.594726892538688     0.19069895639649972
   146   1      11.138747215238958      36.385669418381575       52.08019374880346
   147   1      11.150806130050414      34.442630942717749      2.8860795567909232
   148   1      9.3662074387700791      37.214229653783249       2.651052692976922
   149   1      9.4340528687834375      39.093833346480814     0.21771296390755526
   150   1      11.481326229652421      42.008979355363977    0.082352127316506804
   151   1      11.097310186814731      39.771721462717167      3.0529424334404647
   152   1      9.5323413068237155      42.307313649354285       2.717194935028842
   153   1      9.6619059083785839      44.431956800316456     0.17850128665996259
   154   1      11.015035842114267      47.225413487933665   0.0086446608421845688
   155   1      11.128867718323534      45.716114956704949      2.7771431300782323
   156   1       9.587620416947539      48.373920067160526      2.5268299050961307
   157   1      9.2393477751816881      49.806643051169978      52.074660941352526
   158   1      11.156693276450358       52.91671796950807      52.061024590481026
   159   1       11.02128718754024      50.860481805903454      2.4796204006230305
   160   1      9.8296725252818753      53.483654245061679      2.3617200887922305
   161   1      12.686861764146744   0.0048837113177279973      51.963823756724743
   162   1      14.534985395714534      2.8966570748003115     0.32839553766252039
   163   1      14.446108362173154      1.0351674228084013        2.74551489029969
   164   1      12.685389080677627      3.8575454700794971        2.56532435114159
   165   1      13.034325582613587      5.3895648222760606    0.013071532578020286
   166   1      14.376113939680319      8.2269347657381218     0.26407317743170799
   167   1      14.445626308539151      6.4631945081477156      2.7584811522251327
   168   1      12.837979050230102      9.3448595561176155      2.6973410072132666
   169   1      12.857069268654101      11.365215083955578      51.833475691604797
   170   1      14.844923400713101      13.840118407130472       51.84317193627561
   171   1       14.65920790414528      12.189394363823498      2.7367013034710213
   172   1      13.206485114970373      14.933485208517601      2.3882670366480641
   173   1       13.00777802876252      16.759870406352114      52.015870707547968
   174   1      14.565203926323051      19.568523197209771   0.0041653661843030947
   175   1      14.665348269724538      17.562833414942698      2.4643612030235458
   176   1      12.945583706860599      20.444248726742657      2.7465434081785691
   177   1      12.829840473947643      22.515489099893024     0.10395599400449049
   178   1      14.583434623869671      25.131338991610395      52.023532668550082
   179   1      14.508328439633269      23.343647261487611      2.4261899848631385
   180   1      12.911529277927407      26.236642234974827      2.3330147367913447
   181   1      12.899463103465333      27.685921651558338      51.838339302045114
   182   1      14.415838106143923      30.769452202390813   0.0086401422344852159
   183   1      14.338555998141322       28.86809024999339      2.7070467633382673
   184   1      12.707909767094288      31.993851998787306      2.3650104606340454
   185   1      12.959502051620502      33.694224314894718  0.00070503075510514306
   186   1      14.440877429994638      36.597604007057555      51.883119503222623
   187   1      14.194746537652343      34.402482993713974      2.8982622637377622
   188   1      12.605862356076823       37.22115376885543      2.5596349766120814
   189   1      12.607336132083951      39.122273535414031      52.114183152401786
   190   1      14.542383016547497      42.016436491334829      52.070844057357299
   191   1      14.342668508703524      39.859735977444494      2.1423265037524537
   192   1       12.61813220787362      43.028240776882924      2.5683194334850743
   193   1      12.724915448146239       44.63796418446659      52.121574331269926
   194   1      14.748852924739817      47.725326234541036      51.689015185893105
   195   1      14.426741025960204      45.531048335076434      2.4702003250594662
   196   1      12.740942584060576      48.725455153036521      2.4962016927643758
   197   1      12.656213696226141      49.925516592974795       51.87327896407588
   198   1      14.098262792023132      52.629965937996673    0.055113532220430958
   199   1      14.233999875896732      51.298245467294848      2.7501043490478145
   200   1      12.790684398981147      54.275594361498968      2.5737189439201766
   201   1      16.072138421912609      55.539431081266514      52.119322443383119
   202   1      18.022103189667064      2.9888820439978923      51.979465665516599
   203   1      17.520195219949947     0.99890387502758615      2.6675714460067441
   204   1      15.824135045818288      3.8779727561788615      2.8880209743285676
   205   1      16.223988962034063      5.4961591280585278      0.2323222180509327
   206   1      17.859258401648024      8.1649680125642909     0.30608198424045396
   207   1      17.684569232796839      6.4261829108047852      2.6505569293919198
   208   1      16.038544140916063      9.3195043726163913      2.8313403107857527
   209   1       15.98195281216859       11.00658934991139      52.105293051510593
   210   1      17.885493117196255      13.916771858094524     0.24569560319581771
   211   1      17.929756018660164      12.055764706389843       2.663544436992475
   212   1       16.28845497479135       14.75249965614465      2.6185603083717628
   213   1      16.531569814392792      16.679020043906494       52.05957155546691
   214   1      17.982340642366296      19.360969074371887      51.951149515247621
   215   1      17.819490159248566      17.811527473839618      2.4604616808731352
   216   1       16.23491747575704      20.468606161185491      2.5363274240304041
   217   1      15.919353685202916      22.194857862171819      52.069925192454939
   218   1      17.789636352248859      25.191692596422502      52.109762853273246
   219   1      17.544655030699861      23.222046018975856      2.4692069446484397
   220   1      16.237502774705025      26.070436314549195      2.3963840129367675
   221   1      15.876510951842313      27.816159600612394     0.19831303513988285
   222   1      17.596862542236863       30.33910992776778     0.10286347335420354
   223   1      17.677024822493461      28.723935069374321      2.4517520627961509
   224   1      16.229950980764457      31.622385898826977       2.593605834252211
   225   1      15.903173657539899      33.512148237182323     0.41017157195819132
   226   1      17.343915497125131      36.141584205705733    0.042216703685677447
   227   1      17.301876427349661      34.794233615722966      2.6682323750046741
   228   1      15.526182425304468      37.491088071043968      2.7325896465524901
   229   1       15.96965893365546      39.334551101724379      52.005921773125472
   230   1      17.776726264278235      41.763132633069837     0.24380917617676875
   231   1      17.576604617682108      39.790749176522439      2.5787281375003643
   232   1      16.132634895072439      42.650459060290409      2.6446090506412827
   233   1       16.03969775562798      44.634125533575116      52.052574511763588
   234   1      17.606548001466802      47.458032623477926      51.952117207591129
   235   1      17.764069567845581      45.388424288021689      2.3323101462240974
   236   1      15.836115280285446      48.655724003286764      2.5981392992310663
   237   1      16.019794660457965      50.355664804642473      52.074759380245006
   238   1      17.306251552577191      53.086303323616846      51.863092095004696
   239   1      17.350768711211622        51.1419824765781      2.3373333478342579
   240   1      15.794656430839728      53.907825025467631       2.451442873658336
   241   1      19.054893335404376     0.12618066020230614      51.952482281520993
   242   1      21.133835042375434      2.8071841651412925     0.25033652725560362
   243   1      20.775302479815128       1.031257347055119      2.4872888540878333
   244   1      19.059157896964035      3.5720035476121867      2.4329323676089305
   245   1      19.707933292801936      5.5729499162461291      51.964582467456658
   246   1      20.838546652166929       8.422680695930449      52.090530243590656
   247   1      20.892003971011643       6.319264940773893      2.3811528732741718
   248   1      19.324471335856877      9.2215060969216598      2.6047302705883206
   249   1      19.578510143648984      11.275987124757329     0.27256538641008227
   250   1      21.037863426426462      13.656673215536715     0.11971511249700005
   251   1      21.123005545605977      11.803102119276597      2.5087555378430717
   252   1      19.858123104077631       14.69003586818031      2.8776483312072347
   253   1      19.689776113590245      16.354192787063056     0.18012178396512657
   254   1      20.878684253434038      19.523501673915671      51.974010909398665
   255   1      21.192036405722185      17.665218240058518       2.931195239411208
   256   1      19.345061882692153       20.50943140871167      2.6269127164096888
   257   1      19.166204837469692      22.244863939171321      52.081961248026701
   258   1      20.891445520057879      24.918228201024974    0.018457202941298344
   259   1      21.190943216869531      23.217006284823405      2.6389869891582145
   260   1      19.419803790123961       25.94517648782513      2.4955648381970366
   261   1      19.073663025489072      27.959194174922768      51.949761319568672
   262   1      20.884854927336903      30.524120805135247      52.118762494744118
   263   1      20.813476353997686       29.01551479424305      2.2635167797265017
   264   1      19.115348590644015      31.745967926356485      2.6471636861981138
   265   1      19.237935599679048      33.392920746312257     0.10270632105643673
   266   1      20.818955353396465      36.396422097941645      52.039965138454278
   267   1      20.557218291459414      34.484521404881548      2.5443552600024524
   268   1      18.699607549879751      37.378466092934545       2.686427610604345
   269   1      18.781050414617525      38.631677986718636      52.022222335263059
   270   1      20.994092648394364      41.752837284359963     0.18472459045551967
   271   1      20.913006199065986       39.53333482129306      2.6383291584963025
   272   1      19.535204213077385      42.683381689059445      2.7780545649036559
   273   1      19.516533374864359      44.522604593139668     0.11277241440691185
   274   1       20.85960635842228      47.475812932873311      52.017222045708145
   275   1      20.735041042400429      45.249296383876235      2.8300623513022947
   276   1      18.917266659893173      48.302834023671288      2.6089025885510893
   277   1      19.324451575884641      49.987231071592717     0.18845750686591164
   278   1      20.514006477694672      52.794601802187948    0.021434080078947385
   279   1       20.62515534618764      51.067867198655122      2.6138879294599673
   280   1      19.151254493243812       53.81479196121871      2.6654091326860652
   281   1      22.081546981426524       55.55022872027682      52.018918401698258
   282   1      24.017593417226596      2.9538271177869126    0.029744396814045743
   283   1       23.50682244154477     0.94402472040525165      2.5766887111296355
   284   1      22.535371998113714      3.7377501532101887      2.6655011705001357
   285   1      22.667472216845052      5.5531827180232032      52.096579818786289
   286   1       24.33709235206285       8.232521399213045    0.091058299916302418
   287   1      24.212247926018506      6.4251740495311482      2.7550730464120168
   288   1      22.833979225712866      9.1445797922708625      2.5177143943154201
   289   1      22.345842873021258      11.038375883785964      51.907442739555634
   290   1      23.813157821823538      14.080427130588525      51.581761070638997
   291   1      24.093351744753395      12.211710476502388       2.540885533958257
   292   1      22.795843511713283      15.006347687382959      2.2222748339760869
   293   1      22.694267302728665      17.119202277890462      51.853216144489132
   294   1      24.307296919996418      19.558503210902526      51.952172193759672
   295   1      24.267502596995019      17.529470857630379      2.4894573289006066
   296   1      22.575034264918109      20.379996937842478      2.3811753902751565
   297   1      22.553017469429435      22.077334608598512    0.015083446383952391
   298   1      24.024526687767938      24.930719141825765      51.956330536504751
   299   1      24.142378303349183      23.194028234223225      2.7585379507118999
   300   1      22.480647479368216      26.044724767131626      2.5200609049479734
   301   1      22.302588847363531      27.597341391834338    0.025151610260188566
   302   1      23.877488727262985      30.958103271906186      52.004414075472688
   303   1      23.888919750595793      29.148404624245256      2.4153202572731987
   304   1      22.247581636731812      31.772702212978526      2.5109337697266132
   305   1       22.39616655748102      33.676733517604148       0.174461577620944
   306   1      24.308854202660957      35.974741781026687      52.085370595799674
   307   1      23.920843027851795      34.420047950344149       2.521336813889961
   308   1      22.452857824985372      36.920807792546022      2.7473828801362621
   309   1      22.782858578931918      38.876635224239763    0.050528256068874358
   310   1      23.926259817218018      41.695388311859269     0.36448798753662143
   311   1      24.029952059242628      39.651673090805382      2.7592987810531815
   312   1      22.457992188831263      42.357129392873709      3.0574165323122919
   313   1      22.215516058994751      44.741343227798474     0.11170115836110786
   314   1      23.734390056947053      47.049245311183789     0.16952040165801066
   315   1      24.061372040841267      45.430822285085981      2.7457770253209226
   316   1      22.235627058239448      48.215402332588255      2.6172808275750366
   317   1      22.368538798392947      50.076169311627517    0.020363792738012369
   318   1      23.652197306824711      52.848058786826527     0.12053169466839432
   319   1      24.065506408203234      51.105504716864246      2.6328023895884218
   320   1      21.941208986845822      54.001205460794061      2.7663586684358874
   321   1      25.117200533746963      55.546851381410391    0.095834858404597573
   322   1      27.218574046349591      2.5130972500919082     0.14809576845470881
   323   1      27.480545847622793     0.72185545745271984      2.7595303625484409
   324   1      25.527360904835085      3.5202914547662645      2.8803042895940405
   325   1      25.670405902325388      5.4227311524922923     0.13403068586585981
   326   1      27.376591989799483       8.416275022350252      52.043562522692667
   327   1      27.432696306416815      6.1978037958600414      2.5804814961880393
   328   1      25.665017381089427      9.2952946918821429      2.4954924900034281
   329   1       25.39115029819547      11.342877463890302      52.111052915955135
   330   1      27.136821825344818      13.827098454186872      52.027835883911024
   331   1      27.546116909520876      11.978125031271317      2.2352953366357333
   332   1      25.865599234278175        15.0391465016019      2.5441371696361776
   333   1      25.653393541131862      16.552511657237982      51.759711833162896
   334   1      27.310294248852578      19.086395953383128      52.049298878637899
   335   1      27.315120442400005      17.637190479365501       2.646536954037193
   336   1      25.361121592505874       20.40085517935475      2.3181334009066776
   337   1      25.467926512559355      22.394974056518809      52.090312393299655
   338   1      27.478838281387247      25.136310490373031      52.050627523512162
   339   1      27.407088586965244      23.190523290123448       2.340595688912372
   340   1       25.63447711261286      25.835011429653999      2.7309305551129741
   341   1      25.410825962300244       27.91324198488438      51.875178464731754
   342   1      27.311535236858827      30.390624412796349      52.007897045316518
   343   1      27.243187292900277       28.83247673733759      2.7888386494698767
   344   1      25.740649570033263       31.55262142561044      2.7619714808081421
   345   1      25.940592340154389       33.31680575585483      52.124080960558125
   346   1      27.286347500983055      35.960901503118627    0.020015960880070294
   347   1      27.309239434680624      34.548717808393597      2.4320924704101197
   348   1      25.539223483445088      37.247100017972684      2.4371289263365696
   349   1      25.763831141255917       38.82031612299938       52.10747376690788
   350   1      27.122706087984891      41.707963881794889     0.10361511201666478
   351   1      27.416570213536943      39.805396343734408      2.4767583979602397
   352   1      25.596186155338209      42.478277246182735      2.8385265008502918
   353   1      25.490001297398553      44.485628980204595      52.021010886686568
   354   1      27.250667099677223      47.073705559552273      52.101541035345328
   355   1      27.206150403473512      45.161619956261674      2.6033026131739603
   356   1       25.61580701591442      48.102240276654925      2.5048538453580362
   357   1      25.970323586493599      49.727242019897218       52.01236272442658
   358   1      27.204583232299811      53.033797710474097     0.44529714461920206
   359   1      27.131132166738077      51.016175879306353      2.8777333804864416