dump/S5_s00_n130_r1024_720_5/steps_1 (written by ASE) 

1529 	 atoms 
1  atom types
0.0           114.158223526  xlo xhi
0.0      7.2199999999999998  ylo yhi
0.0      22.831644699999995  zlo zhi


Atoms 

     1   1      2.0190281072076393      2.0817663822920411      4.0475979002089542
     2   1      1.9391161553034844      5.8842826168941009      3.9098896994392041
     3   1      7.3367106334438148      1.8603716718973142      4.1493216143930001
     4   1      7.5941435051740136      5.7320275505669729      4.1645943736665174
     5   1      13.246518738101251      1.7778332748225525      4.0993954784985513
     6   1      13.425442517783344      5.3103844273659782      4.3087651006257763
     7   1       19.23446984483223      1.4585549700682241      4.1514276056677648
     8   1      19.239549882125853      5.2047084071167005       3.976987410673773
     9   1      25.175063795555069      1.5982952812833777       4.239882294872559
    10   1      24.907835570002678      5.1875119455835046      4.1823389157872235
    11   1      30.874073386779028      1.8710289494067687      4.1536642948535691
    12   1      30.870360202627353      5.3021103926469726      4.3144929830242642
    13   1      36.652224914032196      1.6146608275335967      4.4211121816909911
    14   1       36.73680669237342      5.2020741888067992      4.4384459658424698
    15   1      42.289027890476547      1.5431608575742313      4.5898615135847107
    16   1      42.214214199263495      5.3454695729594714      4.6597093072070086
    17   1      48.202437252367496      1.8626691190275222      4.3997575179181441
    18   1      48.065196187431731      5.3336397881254616      4.3477797583627495
    19   1      53.983309004591874      1.6751080260514317      4.2483985230010717
    20   1      54.146512511642918      5.3774198820951433      4.4617942707136349
    21   1      1.3172435600281363      1.5253814044898191      9.9791591225779364
    22   1      1.4894276610957713      5.6163380092921962      9.7951184283594568
    23   1      7.4649426747235452      1.8068952263314184      10.103627063470659
    24   1      7.5390166219691475      5.3619758112014884      9.7282213296543247
    25   1      13.259470019002505      1.8127389126807527      9.9335120080991075
    26   1      13.382797867193649      5.1963197267589809      9.8833749801291937
    27   1      19.283434529042008      1.5617991811428835      9.8175845432170004
    28   1      19.208239458588196      5.3009751969455268      10.038944141089772
    29   1      25.067718333498277      1.6671770151465797      9.9902050775811713
    30   1      25.035030455582387       5.320238972174514      9.8865235508651068
    31   1      30.707096036851819      1.4863328130272642      9.9070299810077973
    32   1      30.878141498578607      4.8857721675083914      9.9512330264119768
    33   1      36.771689259302853      1.5680230296710032       10.25210043787561
    34   1       36.66243122457319      5.0213364347767975       9.925208336545154
    35   1      42.177728881777583      1.5302447381938138      10.075508865372864
    36   1      42.413225058246361       5.218288987858009      10.121509734361045
    37   1      48.298293771650464      1.7414756614755755      9.8639445636678893
    38   1      48.272270815181109      5.1186085594926984      9.9331438767828431
    39   1      54.488541518023375      1.6171414091778578      10.579034848526874
    40   1      54.198144527034728      5.6230221034406105      9.9335531960491998
    41   1      1.5299876495689084      2.0577638694996714      15.661552597701178
    42   1      1.6829319254118313      5.3808286322344179      15.574677407264454
    43   1      7.7443925095028652      1.8404443502300263      15.425753482378628
    44   1      7.8656506867713381      5.7016895466823074      15.531925519852031
    45   1      13.379267078972148        1.78559409944296      15.527711553363632
    46   1      13.604574956582518      5.2461448404840549      15.590116572122552
    47   1       19.31243715542919      1.7121687833757977      15.685004259914322
    48   1      20.645633069561917      6.9962436665018934      16.468894906474784
    49   1      25.032004446533353      1.6101215843059253      15.512699719662153
    50   1      25.066816453745567       5.128586297538277      15.727036607887209
    51   1      30.749141092729506      1.3873266583160533      15.792397410056463
    52   1      30.840627437957473      5.1830838755428923      15.866341600123485
    53   1      36.671638644726556      1.4416402418468841      15.198303003592185
    54   1      35.614815011770702      5.0025675767336981      13.256080376296124
    55   1      42.526948661427895      1.5815468554133509      15.741838707820216
    56   1      42.396780454363508      5.3038781905182129       15.73353796973298
    57   1      48.080667374930229      1.6264150939780939      15.606009367453142
    58   1      48.213524557183341      5.4043142679219125      15.805363669668752
    59   1      54.023337147115903       1.790148065733302      15.569889866185926
    60   1      53.862862126364881      5.6542305580638725      15.657189411331027
    61   1       2.154702181479796      2.0992930711365188      21.095282023132846
    62   1      2.4646378493537777      5.3510724538003913      21.286550686586008
    63   1      9.5042512059696858      3.8143156746009645      21.830353004304808
    64   1      13.201723058430362      1.6319737859149461      21.350906275839382
    65   1      13.331091676411731      5.3519569801905496      21.301075888503778
    66   1      19.062376887720536      1.7600347627591986      21.143561361033097
    67   1      19.175413016390131      5.5574630535473366      21.353261483657082
    68   1      25.176776487325956      1.6517509038064329      21.501641357991478
    69   1      24.903880100731001      5.5035905831674574      21.571753580949608
    70   1      31.028547259244419      1.3986530837163107      21.224060009237824
    71   1      30.846680813103866      5.1836269558478714      21.412994763834121
    72   1       36.65326404811654      1.8032352201537072      21.566387331475383
    73   1      36.718050952961129      5.3969475870036154      21.474423215874875
    74   1      42.108602257182106       1.670337551968339      21.431196921921799
    75   1      42.245641624061136      5.2266262449998759      21.303393773027626
    76   1      47.978891884761453      1.5263837899543644      21.387923230826964
    77   1      48.037678649071538      5.4045989132179297      21.305390551367331
    78   1      53.209483479375116      1.8250062199381407       21.22434416850108
    79   1      53.748192879944575      5.3816500115602768      20.956809564056499
    80   1      114.13215456254653       1.731315360503902      22.313215731737468
    81   1      113.99524302968335      5.6519859019934451      22.185451383834536
    82   1      5.6759610687122448      2.0287654163549531      22.166844183041636
    83   1       5.785225437871369      5.4042777537605557      22.487096586584212
    84   1      11.252214520815462      1.6898892755082635      22.457813722728357
    85   1      11.244390928067352      5.6010198256882058      22.456764023652561
    86   1      16.823070532696555      1.7390191280935143      22.450913406677451
    87   1      17.011592684752134      5.3568288315329777      22.356045981327782
    88   1      22.425781409609073      1.6686043801195596      22.515405601985297
    89   1      22.615030347110636      5.4019107507248272      22.388818881003015
    90   1       28.50254991839186      1.6938224061614819      22.376698756256616
    91   1      28.348615573139892      5.1340736943009961      22.303503329091985
    92   1       34.38128436791196       1.688486201685214      22.741939973358857
    93   1      34.281959844430347      5.4719100184388063       22.38114689989143
    94   1      39.943411583150564      1.4848040144432693      22.631824244423502
    95   1       40.02444746293564      5.1487741838613514      22.706769283636365
    96   1       45.58226557987502      1.9340739500124502      22.409572048616397
    97   1      45.822226945531206      5.4627441658519249      22.579336221381514
    98   1      51.354900826804581      1.7764381025500966      22.587538201551332
    99   1      51.483545787327792      5.4422763905652003      22.459413957128188
   100   1      111.39373491332644      3.8772260027547647      2.8023491496977102
   101   1     0.16645476787961971      4.9594997298281482      5.3258405430216245
   102   1      4.8610035770677387       2.383433660840645      5.2649258971285251
   103   1      4.8442520017625137      5.5499824333247396      5.3420660266377897
   104   1      11.053742260293928      1.9860458728524206       5.406764046001145
   105   1      11.167953404614172      5.5361110628262313      5.3904279197981522
   106   1      16.873836644498855      1.5161610914574428       5.357227280969175
   107   1      16.775303864401003      5.3587592608840051      5.4805176530138811
   108   1      22.510743805028039      1.5715034314833178      5.4774205831620115
   109   1      22.742816438626612      5.0930303667495584      5.4457524812848579
   110   1      28.693723970977906      1.5070887851508554      5.2676068988436366
   111   1      28.600723200382038      5.0144575721570552      5.3612972792294586
   112   1      34.586992845099019      1.7323924719623018      5.5834832872177476
   113   1      35.023245534692599      3.5340183191086103      3.8158083706514963
   114   1       40.11637178485929       1.584209030887084      5.4556656451455519
   115   1      39.938116538605179      4.9977867405785927      5.9156691072979521
   116   1      45.693468776769372      1.4498438387199328      5.5019669327849465
   117   1        45.7620149035019      5.4092116087204873      5.7290357036842012
   118   1        51.7740534035254      1.7168780586084202       5.393294436445081
   119   1      51.619902112428925      5.7090091573330257      5.4106519806767581
   120   1      1.2284763454940424      3.6338789386214545      11.693038037703843
   121   1      1.0856335200422533      6.9527123158738711      12.010766569520884
   122   1      5.1938493140577906      1.8785610122502057      10.803349348425947
   123   1      5.0978639796005538      5.4601600003792727      10.927147828612821
   124   1      10.742784598305644      1.9612130785355035      10.886791840439694
   125   1      17.127410570257641      1.4883902112496168      11.272449169317829
   126   1      16.981772019166709      5.4999147585573027      11.226166381902686
   127   1      22.763365492332955      1.5247542110672256      11.023132689730064
   128   1       22.80606985764539      5.2623876216470684      11.199328590795913
   129   1      28.434869452009718      1.6118807829345416      10.939984565370796
   130   1      28.672445291475469      5.2878633825976502       11.00929636720802
   131   1      34.227446600832529       1.498471202447631      11.221607349126018
   132   1      34.353556772738145      4.9099860502354673      10.981897805754519
   133   1      39.853376489386967      5.0630111250556258      11.462609701547796
   134   1      45.988231793472139      1.8010533220252063      11.241499824772241
   135   1      46.191693454328231      5.3256300287114744      10.975323087051365
   136   1      52.137337113916992      1.7344164917208484      10.965668218001555
   137   1      51.921177337769592      5.3484416640045342      11.029322036840389
   138   1      112.40616724627807      1.9195951720089146      15.932145077234749
   139   1      5.5510134022705993      1.8526625590886123      16.552298779673482
   140   1      5.4745853676067533      5.7674893149696489      16.422583959882523
   141   1      11.017403902082327      1.9303989850394359      16.806098944799267
   142   1      11.313951835335471       5.298087668485409      16.659980774814283
   143   1       16.98032082631234      1.8907155426733901      16.592922692248269
   144   1      16.984978220990591      5.1786114142909492      16.809220243460324
   145   1      22.863802647225494      1.7501888154276934      16.848783591990006
   146   1      23.237715142289275      3.7088001077120127      15.119837445612676
   147   1      29.826138820751837      1.7090053964046368      19.010877081605241
   148   1      28.086360765161054      5.1621241529697892      16.707639299071143
   149   1      34.233687581354786       1.918495723253439      16.635664642053598
   150   1      33.867204641892968      5.1748081729197439       16.98738405924032
   151   1      39.972766791412234      1.6188205800985835      16.534331307996325
   152   1      39.666647806884605      5.0707598654240442      16.461561956218311
   153   1      45.675350251114793      1.5181014874813112       16.73383476736182
   154   1      46.026385056059745      5.4569393980758232       16.56597766718243
   155   1      51.472309464647651      1.7927225413198371      16.730168516371215
   156   1      51.463584934655991      5.1864155597993715      16.498596878113382
   157   1      1.1200938410635219      1.9669447824113151      1.6907471718431424
   158   1      1.3163703518042709      5.7883540856403553      1.5946193996286298
   159   1      6.7385131918254393      2.0895043259598851      1.8512202102644055
   160   1      6.5081602387535549      5.5577712537399986      1.8536161987735231
   161   1      12.155265221738308      1.9248345000249647      1.7295641902153636
   162   1      12.283630695464666      5.4620825827756576      1.8449657845726271
   163   1      17.742876224965485      1.8173757879571291       2.097003272079855
   164   1      18.120130677543123      5.2430018451612108      1.8886867646502041
   165   1      23.719010361306079      1.4526494536848937      2.0093110673664345
   166   1      23.850227541515107      5.1622427421117525      1.9569442718117367
   167   1      29.622849295451353      1.6736295893085507      1.9810987399069075
   168   1      29.869329807250043      5.2312430706960305      1.8412335328491087
   169   1       35.09172107768515      1.7794161574228307      2.0646595209614409
   170   1      35.540860269783764      5.4237194642893289      2.1155607793216666
   171   1      41.007146339299467      1.6811757912060632      2.0872606894509445
   172   1      41.233181759522111      5.2615046099042999      2.1545982613108317
   173   1      47.099108820321447      1.6203678114267197      2.1478939599857645
   174   1      47.164063338606205       5.382009263430021      1.8347281792922288
   175   1      52.765753573158094      1.9712433247423169      2.0009268018389506
   176   1      52.302627232046973      5.3658882951549582      1.9159235895410729
   177   1     0.18181110777412957      1.3835730954402159      7.4378518335368895
   178   1      113.42980363510998      3.8480182824378892      7.0584335905910294
   179   1      6.5302977980481565      1.7633624236828518      7.6503560770486088
   180   1      6.4200800010918346      5.5202069753215968      7.4592843823512958
   181   1      12.323762090102672      1.9463754035523348      7.5835399335857963
   182   1      12.074726905600281      5.4058329267921152      7.6646018352470495
   183   1      18.388603274117052      1.6968858115454506      7.7091158749506548
   184   1      17.957570385280025      5.2244439486970169      7.8346352700365589
   185   1      23.833794739360073      1.7245905163660498      7.5889362161591025
   186   1      23.909106636191247      5.2689588193392147      7.5828246495969527
   187   1      29.734803804743322      1.7572148822798539      7.6286128073665083
   188   1      29.628298199489027      5.1972880370026138      7.6810148521730861
   189   1      35.413597342015166      1.4891027110422705      7.8830289089549295
   190   1      35.506817769373022      5.2544188738864657      7.7149834544877383
   191   1      41.524078901353491      1.1688540387198352       7.989778400441419
   192   1      41.586653861500338       5.524450781003976      7.9598861482957703
   193   1      47.091884802830968      1.7738512074997814      7.7490638447360682
   194   1      47.062413513534878      5.2238462965523746      7.7081305725446478
   195   1      52.675407374984538       2.007491487049387      7.5140659095643763
   196   1      53.218453688763084      5.2508841502222872       7.304590958656946
   197   1       114.1332423475647     0.16728015835292184      15.288232592849885
   198   1       2.180626642442264     0.01288148081993909      13.997508472441902
   199   1      6.4259084569754021      1.8896282644141678       12.80792051384357
   200   1      6.4149610632893914      5.4953741810637764      13.454860989520602
   201   1      12.150944899063363       1.899802899402488      12.999144835321708
   202   1      12.263814932999153      5.3240091494342296       13.45000541025559
   203   1      18.340653275922055      1.5718203640029056       13.36558257085513
   204   1      18.360671634723484      4.8354736955143496      13.227721250464491
   205   1      23.915272154370456      1.7120429071286096      13.350212996020671
   206   1      23.960885230606539       5.199161082489975      13.357168525536208
   207   1      29.906595605237541      1.5743487176763953      13.674469308438542
   208   1       29.59259842868298      5.1289494611792286       13.34703616643959
   209   1      35.403099861064788      1.4352839853291233      13.208396392221326
   210   1      35.016108544977243      3.5637214642936517      15.024881140304464
   211   1      41.301840789801894      1.5965324471277156      13.569498014795764
   212   1      41.267166517922668      5.1516059129527934      13.292998287670047
   213   1       47.22381954154654      1.7011504921513756      13.096856053593303
   214   1      47.145614360225345      5.2243868495541079      13.346305199324688
   215   1      51.236075162045807      7.1493682198383164      12.592021553477029
   216   1      52.857428048824332      5.2792844391987774      13.359688425155625
   217   1      1.3070741474332028      2.0917162045323976      18.871435175660292
   218   1      1.2911240783896498      5.5885922789307738      18.962548008402749
   219   1      6.6405153811742075      1.8959472261224888      18.922088488973369
   220   1      6.6102556907147916      5.4413172428815706      18.606795292754484
   221   1      12.283706537124207      1.8156824893687307      19.097176896639169
   222   1      12.392237955995071      5.1197456020967422      18.874039166777116
   223   1      17.817235946365315       1.928163666864148      18.990937057846022
   224   1      17.809108785153715      5.3327704017616986      19.147629938110658
   225   1      23.903653583254673      1.5963426810727452      19.189242805163346
   226   1      23.783455501847577      5.3944682214149564      19.260947326094783
   227   1      29.738985300507562      5.1206489118726015      19.159420475682612
   228   1      35.591088415582703      1.5933945153755176      18.853423930314307
   229   1      35.494318641675157      5.1818976676112873      19.127665362504885
   230   1      40.908926993707404      1.6910454251608844      19.044625835673624
   231   1      41.002635114049937      5.4115030514901754      18.934054505390851
   232   1      46.992241803687435      1.9285641567986997      19.150407489643303
   233   1      47.048611746120535      5.3579122254141804       18.98630627530034
   234   1      52.408967646634814      1.6460955886393962      19.003378760909779
   235   1      52.506307185880672      5.3765851871681818      18.943952395460663
   236   1      3.0927821370096895      2.1244166282106232     0.62175589867934022
   237   1      3.3873188339235876      5.7192710172670953     0.57158511635119569
   238   1      9.1303819514058535      1.9685326144834867      0.7410468905546741
   239   1      8.7603806589724051      5.4629091296338208     0.78040565594130118
   240   1      14.505781810951285      2.0156628480862331     0.79843529507660349
   241   1      14.525852588640408      5.3614286858078808     0.57106470088348171
   242   1      20.371709783631218      1.7035951431725458     0.69681208985086862
   243   1      20.432749135677682      5.3151583440188199     0.97226623899892406
   244   1      26.160276622351571      1.5906492923147151     0.96315112390867297
   245   1      26.164204587932709      5.0733417389017319      0.9320043169910498
   246   1      32.039223132130751      1.9491115893511493      1.0056695606122308
   247   1       32.09504703432652      5.4500765632482553     0.73933034847674872
   248   1       37.66722370887188       1.541214778808057      1.0077004386390442
   249   1      37.692343175099907      5.3719711082630752     0.88757918292742244
   250   1      43.341543272303859      1.8566800387808793     0.88490121056262561
   251   1      43.557814528319319      5.3689022541038511      0.8719850980588435
   252   1      49.312240597398699      1.9585903882389402      0.8374492336165712
   253   1      49.210702711263409      5.5599154541198477     0.94489932315776437
   254   1      54.730617730411481      2.0746742477744657     0.44051058860429332
   255   1      54.785315714609879      5.4981907924501687     0.21404742824507358
   256   1      2.3730303916819242      2.2407965187616172       6.307577236295022
   257   1      2.7348730128288841      5.4216120237665786      6.9577608779642226
   258   1      8.5860509893991068      1.7399289512648803      6.3684271279911657
   259   1      8.9458837660372854      5.4799305562335157      6.3745680383521854
   260   1      14.522734624168219      1.8919078564154606      6.5018195800844998
   261   1      14.636779697933138      5.4348416508544366      6.6672947844877708
   262   1      20.411092959480129      1.3170437609693919      6.5376279925080549
   263   1      20.369692870212596      5.2031526770273198      6.2659773575593745
   264   1      26.076558326656102      1.6670854161213986      6.5399609318401453
   265   1      26.139715270459028      5.0465239074003874      6.5309349605544256
   266   1      32.145168481938761      1.5865258569949736      6.5552952532462943
   267   1      31.988837794858814      5.2504087431522253      6.6596399251272382
   268   1      37.792754395467625      1.4331656100727781      6.8818964166890781
   269   1      43.467872327712158      1.6816376250503144      6.5156872301262636
   270   1      43.498350968642335      4.8635974819726195      6.5429957833226444
   271   1      49.496333787689686      1.7651012505868982      6.4677687068899825
   272   1      49.338497877275842      5.2044000125261949      6.5914546227171416
   273   1      54.892932439096896      1.0145680345986769      8.2853178339676408
   274   1      2.7899566366373545      1.7580469193531409      12.266294937230445
   275   1      3.0640296922127628      5.3820854112497782       12.10722036620508
   276   1      8.8117444693199953      2.0600563876628644      12.219812062724806
   277   1       8.763374516844971      5.5433639103619967      12.221631284883181
   278   1       14.75505723588345      1.8576340430815164      11.972060587286496
   279   1      14.686374345787893       5.376910782203205       12.17667974278336
   280   1      20.560005889778775       1.597399723488492      12.250097560302009
   281   1      20.580101162492902      5.1833261036586187      12.342336330594824
   282   1      26.013225489122895       1.458132042387237      12.294442648530085
   283   1      26.453129325862477      5.1802689485238052      12.013026399509707
   284   1      31.956696892032102      1.4987544214713759      12.280664417827095
   285   1      31.812977281228921      5.1111226019234852      12.192149226390056
   286   1       37.26629375524746      6.9862002028339605      13.655590634583085
   287   1      38.723922100718013      4.6965708769006023       13.95604900801467
   288   1      43.465811718074065      1.7344164785787159      12.077857075220667
   289   1      43.601643596199651      5.1740987414091384      12.108859067645373
   290   1       49.73561378679242        1.97326433649894      11.929494636169373
   291   1      49.256311226176628      5.3279400405846706      12.205300949592035
   292   1      55.680507183849166      5.6912744536333255      14.214798343290219
   293   1      3.2892504453855804      1.7186806057850121      17.774779504860756
   294   1      3.3136733580109938      5.6774458583317102      17.708807375148368
   295   1      8.9356043309710422      1.8421562018486632      17.864897428079651
   296   1      9.0771564272570355      5.3682673000718468      17.805841484643118
   297   1      14.701160703528815      1.7656814555012255      17.823634985297375
   298   1      14.676895079272235       5.368763433675328      17.665148483073256
   299   1      20.474596849712533      1.7011538116959521      17.838439155300971
   300   1      22.761922418305851       5.362639671166372      17.010181330602901
   301   1      26.089981929071371      1.4659030802594251      17.926574041873806
   302   1      25.833840814114829      4.9642289478212431      18.100035838796483
   303   1      32.003581562558487      1.7113696245732015      17.938199494235807
   304   1      37.664407178012731      1.5147635455365891      17.623534576303992
   305   1       37.71085045646447      5.2485013631217976      17.801377902277657
   306   1      43.363625640937954      5.4532939489772252      17.929116727804725
   307   1      49.166543937453305      1.7296270090250769      18.151839227519879
   308   1      49.342447747143289      5.3925950199908739      17.736283784598193
   309   1      54.627662611356207       1.783788695460127       17.76148728700441
   310   1      54.645635957708528      5.5616819305217948      18.001507729957222
   311   1      4.2487186503622594      2.0097598559543419      3.0233494195433619
   312   1      4.1876278697753371       5.673278231864594      2.8566265606172849
   313   1      10.076930306764966      1.8929017468313334      2.9744591280537636
   314   1      9.9453505011352732      5.4163204867671393      3.2254561896753162
   315   1      15.612272628137179      1.9628654303743054      3.2690230232146056
   316   1      15.608048075943985      5.3529661541513667       3.119996097990934
   317   1      21.526702677683055      1.5948043983154561      3.3143001553151796
   318   1       21.49742754422196      4.8965777206061754      3.0370815599636196
   319   1      27.320672942341545      1.5396144918939891      2.9967693939617495
   320   1      27.263635315325356      5.1557676822929626      3.1035175535333104
   321   1      33.003494073030929      1.9325377820164382      3.3516782090873836
   322   1      33.155537322261907      5.3249988958577088      3.4902220149465601
   323   1      38.693266388719366      1.8271002693099649      3.3200968057704494
   324   1       38.98767758805969      5.1143215252398084      3.1835011509856148
   325   1      44.582351783552767      1.8071333197414985      2.9184725065712791
   326   1      44.752034933798335      5.3963416434275766       3.215880341077705
   327   1      50.433670537683248      2.0612921513675539      3.1398344913146463
   328   1       50.43024134697388       5.331802564171074      3.1423784740100698
   329   1      55.667549400112051       1.702619030192605      2.6188631907899156
   330   1      58.217428238113683      5.5830794634123295      3.9078151783960067
   331   1      3.4683478743718497      1.9134692887467091      8.9370974095526616
   332   1      4.0845203024477241      5.5864803289336811      8.7896550419582358
   333   1      9.8131565528601463      1.7763236360099715       8.762778894177071
   334   1      9.8869680599259979      5.5973349211507157      8.7592645657394339
   335   1      15.724737178518545      1.6560843160087797      8.9006485780642617
   336   1      15.765789657672872      5.1559674634088761      8.8645675388966563
   337   1      21.766515656816637      1.4861841224254804      8.6930540527772884
   338   1      21.581680261784111      5.2057928808041369      8.8613552280067012
   339   1      27.257438155808824      1.5725416532687111      8.7526134614204043
   340   1      27.283137005389271      5.0638646069577229      8.8099455963708841
   341   1      33.292795383264405      1.5218293203780588      8.8863350977292193
   342   1      33.197074285324675      5.1784673938330785      8.9498770752832115
   343   1      39.177355699201236       1.344006114304525      9.0654366843080076
   344   1      39.024830648531086      5.2002895014197268      8.6990336319317159
   345   1      44.555305612815424      1.5711587729983425      8.9289555509801009
   346   1      44.833215640901606      5.4734239231920254      8.6109593920187084
   347   1      50.504316710033891      1.7856677114598973      8.8875477896282238
   348   1      50.556699663114124      5.2757624617081396      8.7949071089242885
   349   1      57.779895461627838      1.9271181837070346      9.4479190018864738
   350   1      57.601149165126898      5.1390797785828637      9.5045917119163335
   351   1      4.0030266508989865      5.4918967710265996       14.35752027562981
   352   1      10.065844712565273       1.861560215583393      14.307991046266533
   353   1       10.05198520534708      5.2947203384899346      14.312618200664476
   354   1      15.769035579234037      1.8937537181047721       14.21234945110772
   355   1      15.904811426887136      5.1028168958019853      14.297457000509663
   356   1      21.672715864288907      1.4475477401460402       14.63311462923256
   357   1      21.518692895905687      5.2630157758981779      14.659355470397378
   358   1      27.333364490204115      1.4607103227331708      14.663509705296446