dump/S5_s00_n130_r1024_720_5/steps_11 (written by ASE) 

1529 	 atoms 
1  atom types
0.0           114.158223526  xlo xhi
0.0      7.2199999999999998  ylo yhi
0.0      22.831644699999995  zlo zhi


Atoms 

     1   1     0.40215565113558682        5.22760576780873      4.7048219539384784
     2   1      2.5854327153621486      6.6605359281093364      5.4220172485269442
     3   1      7.6453705909766372      1.6498079223144417      6.8507575410131523
     4   1      7.4862155960842527      5.2256559113373413      7.0028031973729465
     5   1      13.573689265943194      1.7918220677878922      6.8471546715579414
     6   1      13.546118110825427       5.288931831006253      6.8697739805810771
     7   1      19.250384645535362      1.9183894049323258      7.0872790462535846
     8   1      19.420908104487566      5.2489772998433475      7.2859871611006612
     9   1      25.168155612541081      1.6001805907180591      7.2070421591490428
    10   1      24.946960256106802      5.4635988059706309      7.2558851056955671
    11   1      30.926256605313487        1.67800745379116       6.964222219550197
    12   1      31.244745269270787      5.6035424666217377      7.0266778465698909
    13   1      35.072572766985353      3.5507571704134859      6.5721582697638494
    14   1      32.217332404941047      5.3255340161599296      9.5571720665118782
    15   1      41.974184376528491      3.4635828438895824      8.8788680472776953
    16   1      36.088984158083214      7.0803932520993458      8.7518770992573849
    17   1      45.996546982944025      1.8992771020097128      8.1316940507745166
    18   1      48.980580456556105       7.062561963990917      11.388965809239235
    19   1      53.025562218220195      7.1085063967964714      6.7501561970972821
    20   1      51.765573837216628      5.3851867574572738      8.3789490611778472
    21   1      2.9764334860753134      5.1372808319483694      9.6327632216374113
    22   1      3.4083222100242803      3.4145038491031503      13.265732805861381
    23   1      7.9342910366104125      2.0160351090361797      12.613237398414288
    24   1      7.9114854058238828      5.2273846547610789      12.689007017731479
    25   1      13.509603587468577      1.8709539952153904      12.552832880624763
    26   1       14.18726058323789      3.7053818721214355      11.152665584972732
    27   1      19.157761820462863      1.6648579870760727      12.835925134291452
    28   1      19.232529878966091      5.3312498880959058      13.192463876681122
    29   1      25.276949249961461      1.8642682661244647      12.724190522695157
    30   1       25.32483269409687      5.6036325761978496      12.801287318896717
    31   1      31.112021464994346      2.0485954282057244      12.748582038828671
    32   1      33.274670044839517      5.2861383768034553      11.780574828741283
    33   1      38.479608720343442      3.7642170294654216      13.505213023143181
    34   1       36.95753013849766      5.3130858384538495      7.1473471879849342
    35   1      40.290773523265003      5.5052677846020117      13.642689553056805
    36   1      41.171330846973618    0.033853501742530594      12.357116129591311
    37   1      48.482944664934877      1.5895351929313859       13.20564732660457
    38   1       48.12716482091205      3.4599330355560638      14.657737318538597
    39   1      55.052852120382269      1.5635078100349991       11.54022547979376
    40   1      53.919225021535965      4.9621408831554303      13.800253788352084
    41   1      2.4506345697835399      3.5256233926074496      16.824876968282378
    42   1      2.2948661846311054      7.0946468460722061       16.64671589666003
    43   1      7.8277573228384272      1.6048918299037049      18.365988399558006
    44   1      7.8042985435918713      5.1528183874082192      18.844760886664186
    45   1      13.576738843198683      1.6567728680296354       18.52165519864857
    46   1      13.469972267802261      5.4501917741020955      18.336405837251149
    47   1      19.212492797946691      1.9413773414034778      18.632013625543191
    48   1      21.120994004326182     0.24568821842567939       19.01150348162005
    49   1      27.101689483818415      0.2661472198577704      19.176699699741906
    50   1      25.037665713496647      5.7033809414828918      18.215238116272676
    51   1      31.127822420562591      1.6574941052038064      18.660634626646011
    52   1      31.138583242113175      5.4374902289875253      18.903116592619213
    53   1      36.850175825547403      1.5809017381141517       18.62837533440138
    54   1      33.840793576681392      3.6594687012815581      15.785135663336249
    55   1       42.73102252712831      1.7675023693214138      18.892412008871634
    56   1      42.605137781677158       5.411396515496075      18.518647435670808
    57   1      48.626202922564097      1.6621078625333821      18.738647430517098
    58   1      48.531893514011678      5.3350993706032863      18.649380309762318
    59   1      54.451549403228093      1.7336682594524395      19.859277452834945
    60   1       54.75494381712182      3.6833225013584623      15.586306059669807
    61   1     0.36071676968912453      1.5708772771896371      21.679902578611554
    62   1      1.9211253866514728      5.3150356866058273      1.3156018547252681
    63   1      9.3241843372370798      3.6059038822012068      1.8477779700980568
    64   1      13.511393772152491      1.8664284858108602      1.2222801495214026
    65   1       14.02940463793024      3.6199870541299224      22.430468560320367
    66   1      19.408659501486902       1.753713795717905       1.195567480772987
    67   1      19.191560415544053      5.4177015838509766      1.4478286352471559
    68   1       25.21490550953548      1.7154690295639892      1.1733580863561388
    69   1       25.24484293995522      5.4707875658114808     0.98498194855453625
    70   1      31.156838478322193      1.9046036767281387      1.3574363290624787
    71   1      31.356134194530132      5.5021285596831886      1.3244156788496253
    72   1      36.805878313844651      1.7819711272652192      1.3848246950068905
    73   1      36.976433803145326       5.533463262574247      1.2421021847598825
    74   1      42.577507330905426      1.8684040125508539       1.714503633128605
    75   1      42.846673485978805      5.2446210331327547       1.505545559226362
    76   1      47.853980242723274      6.9042346135338315      3.2408627455506456
    77   1      48.525810732713424      5.1589680045031523       1.374886506773243
    78   1       53.46454658263233      4.7420528590197284      21.815504924082656
    79   1      53.278629913911736      6.9245565631650781     0.52565617711242485
    80   1      111.46157157236608      1.7041946098910026      20.874104274921073
    81   1      113.73433495671003      5.3898139196446158      2.4388011145593733
    82   1      3.6727219851857273      7.0451847351141552      1.7439149915756429
    83   1      6.9435189415735987      3.5307691988274392      2.9164110522080495
    84   1      11.135777909888427       1.744484258125784      2.2748655207080613
    85   1      11.161824519364442      5.5959166634933375      2.6062704614614849
    86   1      17.099504968747972      1.6269520978037471      2.3691924273473894
    87   1      17.168458825044333      5.5740510145155113       2.600128278696193
    88   1      22.945555674170322      1.4984200925933697       2.628865170312114
    89   1       22.73743146041561      5.5179555969490162      2.4038538708616728
    90   1      28.706956556869258      1.8016537512261355      2.2318228048279458
    91   1       28.64130879984419      5.3799325731563519      2.4669180144831873
    92   1      34.359077084948574      1.9286057180527625      2.6332931673269604
    93   1      34.552919339209168      5.4175870969750672      2.5531061582893955
    94   1      40.223891983346469      1.6518964624059902      2.6609235105957501
    95   1      40.376360113519169      5.3818505759779862      2.7242234524335442
    96   1      46.015437262369886      1.6929416713968004      2.4947423300834517
    97   1      45.645630139133019      3.6040476271223638      4.1526795458650785
    98   1      52.027102824542276      5.6318350836251501      2.6052705048376681
    99   1      52.601404783388439      3.4611801075777913      1.6038080412206328
   100   1      111.56553432417815      3.1577516069980973       2.065465334103942
   101   1      1.3429747580289384      3.3112780725817199       8.725500553617648
   102   1       5.552388375849195      1.5161759485934991      8.0681387628810199
   103   1      5.2852383041550794      5.0168549444825512      8.0687295802343506
   104   1      11.254819292602839       1.707542808445627      7.9290178431774789
   105   1       11.21895536869258      5.3058056903466362       7.969692902736548
   106   1      17.022731649212854       1.705546087682152      8.0433804193078551
   107   1      17.172444380218447      5.3649562121078045      8.2242577886553754
   108   1      23.020398131004754      1.8656300615008792      8.2898885159434954
   109   1      22.839467240430501      5.6191002416008757      8.0311203051531166
   110   1      28.879523621488953      1.7661125413044001      8.2440095059232501
   111   1      28.530371063086172      5.5928315423175405      8.1806654221655073
   112   1      32.889593034934578      7.0852056094089058      7.7825631840026146
   113   1      32.718436854931483      3.7767724035961319      7.4488511707730636
   114   1      41.543117012402391      1.5784099475917919      4.8761993472102843
   115   1      41.486251341841346      1.8918147898291595      10.536263750656033
   116   1      44.573307038237786      7.1468728910066925      7.7816624025533239
   117   1      46.329314780996285      5.2866521117427281      8.4119978978715597
   118   1      51.059899364647073      3.4012212015152765      10.424910141148697
   119   1      49.362245285030284      5.3482927633617461      9.6452490302247789
   120   1      1.6930188865314046       1.441267507378784       12.70238254197152
   121   1     0.53862597811056301      1.6641080655540095      16.359935573913017
   122   1       5.549307057414425      1.5232606054108773      13.778452587742738
   123   1      5.5582413291847201      5.1857076185282853      13.843823191171786
   124   1      10.969588232419751      1.5767169154904663      13.725562791437701
   125   1      16.755367122272482      1.9792979439075185      13.580061567561254
   126   1      16.977182968150025      5.5141681239329206       14.13879744736613
   127   1      22.862657608927073      1.7912959248918947      14.054534958203195
   128   1      22.874808539789292      5.4661299146655304      13.852283386455401
   129   1      28.793091651119763      1.6588299668196869      14.002335965999862
   130   1      28.671258185901255      5.4116642658358654       14.34984324030331
   131   1      35.579016197190143      5.4212728913706121      10.414040568225287
   132   1      36.092104233655583      7.1537495191134131      14.685697206357229
   133   1      38.056662028765331       5.388756408630706      15.183348698828455
   134   1       46.07192712604769      1.6954397358858959      13.925074896118058
   135   1      45.978933281275985      5.1819535644300592       14.16938188469015
   136   1      51.616235677690945      1.1846056375398242      14.246666754134681
   137   1      54.479673158536301      6.9825350852215946      15.449308475979805
   138   1      112.89175206027802       3.293340420421885      15.645589336886179
   139   1      5.3361679400559261      1.5979175001756571      19.526250563577936
   140   1      5.5190025183543456      5.1021939068727109      19.718769106551502
   141   1      11.337450314293758      1.6800857329815648      19.659272874314173
   142   1      11.010682833306737      5.4507307999110362      19.358175588386676
   143   1      16.690078224550774      1.8892193572971141      19.608243576022119
   144   1      17.152205632342106      5.3782594736463887      19.869596811444509
   145   1      22.859843272021404      2.1336977981230509      19.632062924648075
   146   1      23.402620704794654      3.6898303253360445      17.688032471173432
   147   1      29.835015430990396      1.8775833965436299      21.939553823523354
   148   1      28.538205340092603      5.4660098652841551      19.930175336038022
   149   1      34.436520265525708      1.4687681301102753      19.686996238505504
   150   1      34.713681991034882      5.1250302891747461      19.578013185182581
   151   1        40.4531075296644      1.5765015897336678      19.755331058999452
   152   1      40.356551913281152      5.2756989679931152      19.751595306014327
   153   1      46.219055570117099       1.660994121692797      19.848104051638391
   154   1      46.079223658629118       5.310723640688126      19.774556045907566
   155   1      52.121124849087728       2.086999287771496      19.798457482749175
   156   1      52.139461023257248       4.878636797397391      19.723599524504369
   157   1      1.8982524854687499      1.6937785724438315      1.3905207544473985
   158   1     0.24367046798071382      3.4609995669723368      0.7470582648105476
   159   1      6.2882585219569158       1.557314119981599      4.3943452954018136
   160   1      6.6250635808621938      5.2785985713363894      4.8098559839556021
   161   1      12.474422667956457      1.8063229400062486      4.6180447200903707
   162   1      12.576936489834296       5.325169683240194      4.5969931757814981
   163   1      18.294020233013605      1.8532625374481575      4.7133321907340537
   164   1      18.517477506781958      5.5244100207214695      4.8473504220725321
   165   1      24.093765887246224      1.5802844425075384      4.7114128670940412
   166   1      24.049236740613914      5.5722882433568754      4.8021500624005062
   167   1      29.813919873254832      1.7944004118260948      4.5919558607322077
   168   1      29.706553213410711      5.4125060674758378      4.6403422763121585
   169   1      35.576022157284143       1.671169533423748      4.8398996225237942
   170   1      35.615467190000018      5.4153904812275657       5.097842831399932
   171   1      43.308850192262078      3.7308831512075762      5.4014010985173204
   172   1      39.610620294268266       3.503964635152244      4.3314283271041782
   173   1      46.813692252118784      7.1533322390030554      6.7331224303135526
   174   1      46.874717158059426      3.4134718798569992      6.8923630591884688
   175   1      53.193351527043824      1.9153583485648171      4.8662797416804535
   176   1      52.946014311145987      5.0099383605057577      4.9221233831716971
   177   1      2.2641192647325039      3.1396557419189079      11.117627795867373
   178   1      113.85166865196442        1.58276350961933      8.1613469939525718
   179   1      6.5885041380173535      1.3408668682348415      10.461560057155719
   180   1      6.4588590766864735      5.0794945092597343      10.269900134844493
   181   1      11.670277725020449      6.9513388495249515      12.230015600802753
   182   1      12.336959507054448      5.3968115564476493      10.301179167126751
   183   1      18.104272871547273      1.8327867340807742      10.704944206939295
   184   1      18.217432339903663      5.3617023798611676      10.644888321284819
   185   1      24.159190926203799      1.8286084048188747      10.469881190006463
   186   1        23.9976549109488      5.2814482700568801      10.538658781141695
   187   1      29.583585579624874      1.9768646563049646      10.570945007506561
   188   1       29.78350008168125      5.2254172993453256       10.52244169434514
   189   1      35.025033791685466      3.3970377288851634       12.12710132337982
   190   1      36.450296349354936      3.8059020137884252      8.8743167931595863
   191   1      38.392098803360966      7.0623846237089554      7.7551336353590292
   192   1      39.710588810845785      3.4665295049353446      9.8776899835548928
   193   1      45.581527287619828      7.1437432925382263      10.375961205619092
   194   1      46.773470721379653    0.043337099518046859      12.425157578690849
   195   1      54.072159235208737      1.5095122519064479      8.0516097741380914
   196   1      51.085984948945487      7.0715507425723789      10.059292276122296
   197   1      114.11310754682862      6.9609840533364586       17.85451327293022
   198   1      112.52546898841531      5.1225359046534518      17.308114950797705
   199   1      6.5951785410633246      1.5949485417927485      16.048407632452424
   200   1       6.462240136028182      5.1227594269147962      16.105754670219802
   201   1      12.399032648103375      1.6719054212405533       16.03353942393176
   202   1      12.505791216908797       5.267174659792099      16.246408257120073
   203   1      18.210605582197775      1.8589965183127342      16.251167854505162
   204   1      18.259942309068212      5.3042042252675987      16.138908997753585
   205   1      24.135672924423069      1.9544910379056613      16.331797340594381
   206   1       23.96141535153361      5.5820808687951189      16.146378368240107
   207   1      29.837819135278345      1.7538960664882686      16.493335450155193
   208   1      29.614258902705348       5.361026711785029       16.69412273753635
   209   1       37.95151052654986      1.6591520634594292      15.166680476391168
   210   1      35.099681237292067       3.405016220307016       17.87855893379939
   211   1      41.543303333174244      1.7276635438447061      16.413417512916695
   212   1      41.523037926247262      5.2980574679051351      16.252214704456215
   213   1      47.267682571294934       1.726833751499526      16.153185495075121
   214   1      47.223894931613614      5.0052885205218223      16.524136959835918
   215   1      51.560181938343696      6.9296939969379965      16.352162958568883
   216   1      50.010953392776457      3.3336764326423629      19.368076214064029
   217   1      1.9384908894480788      1.6589971558639662      18.482321060639528
   218   1     0.83115150147415084      5.3429580988099854      21.929515044290369
   219   1      6.6117172376987989      1.6151402700952686      21.982154997128536
   220   1       6.497553953863358      5.4407884117353271       21.80764106322756
   221   1      12.155383027184765      1.6790204366228652      21.948927630988358
   222   1      12.291162794137975       5.294570417745641      21.632159307087786
   223   1       18.15809520779834      1.8448371843879003      22.019765686458939
   224   1      17.960359213089184      5.5478086326123011      22.114271978836573
   225   1      24.041468829780346      1.9489220263536626      21.754331254658251
   226   1       22.70686318476162      5.3954403411779186      19.447122187382547
   227   1      29.754315605736814      5.5585971264012723      21.921182660518124
   228   1       35.81397411513791      1.7531511250546625      21.884079526101846
   229   1      35.723636227948091      5.2165517432401192       21.77253889311071
   230   1      41.257771691013346      1.5415746768018632      22.134569131802483
   231   1      41.408713164353195      5.4910562166579879      22.005147298067598
   232   1      47.260786380010892      1.7626904731918633      22.036174636716488
   233   1      47.314693120203899      5.2348699957450373      21.917183918558631
   234   1      51.826355494243671       6.645388493513722      21.305837557524629
   235   1      51.389525528958579      3.6104366708015418      21.697432069562137
   236   1      3.0690424794731799      1.6410959843580168      3.6939497774483092
   237   1      3.0849495109841838      5.1777156782814879      3.5644733299274551
   238   1      8.5636964864274798      1.8063626002517912      3.6117557517544632
   239   1      8.5902573049959443      5.3297616631418201      3.5691983318159526
   240   1      14.828221820770739      1.6241450347507791         3.5077410499788
   241   1      14.640217139186349      5.3404521875435487      3.6195987819235422
   242   1      20.535542563726612      1.8572010190973907      3.6235117442946176
   243   1      20.515285406824383      5.3271745184722432      3.5612993794340806
   244   1      26.171405774474266      1.8288074309668352       3.425503285595231
   245   1       26.43312559298101      5.3216759982286037      3.4785742381287861
   246   1       31.95298937316241      2.1352235538039093       3.505848128344053
   247   1      32.062862233039574      5.3712890090686791      3.6939076816618419
   248   1      38.010805940612101      1.7052537580250624      3.7491432407709966
   249   1      37.738661254855025      5.5329315001660895      3.6690507277473796
   250   1      43.838719005867354      1.5011886875746814      3.8770526021577427
   251   1      43.658494168158512      5.2935766724587712       3.724100946477503
   252   1      47.876690902685304      3.6055712621476372      3.2767380953863787
   253   1      50.944937332176437      5.4524396465803777      6.2374420532902546
   254   1      54.384606269343841      1.6429360663548103      2.5805890417139286
   255   1      54.454098863903504       5.238449763691202      2.2785647311601616
   256   1      1.8322076450728726      1.5838560663609511      7.0296598892476938
   257   1      3.6382322187404035      3.1714597552397454      7.6267539488278695
   258   1      8.7726868656994501      1.7696669770731823      9.0154982090549893
   259   1      8.8415186507679664      5.1132116653577171      9.2009408189743986
   260   1      14.556121927898541      2.0842948773122001      9.1456291999654304
   261   1       14.86876859357057      5.3276881267369918      9.4122189719926332
   262   1      20.407964752634278      1.7127646907531662      9.4709964500624828
   263   1      20.724752202052422      5.2033555877281401       9.260394498127491
   264   1      26.541231210736584      1.6893134639700149      9.5079531237497825
   265   1      26.238876148754773      5.4256990407834866       9.494658171949693
   266   1      31.604253247952236      3.6441502212264827      11.110162748523667
   267   1      32.088494688414023      1.6268786242228588      9.4150599087101785
   268   1      34.230087408729759      1.8078513407097403      7.9474359113617083
   269   1      40.841681518871965      3.5140642892430187      12.321243502203085
   270   1      42.043829254056085       3.332887552878562      14.671337981566673
   271   1      49.049638676063665      3.5490020323254106       11.39930445850008
   272   1      47.285486985807864       5.347704444973683      10.757252884508121
   273   1      54.312445797514648      5.2354189268287392      7.8012444734829414
   274   1       2.952635557546694      1.5591379407165633      14.731424032330166
   275   1      3.6403362690037389      6.8931174396641977      13.339249857707012
   276   1      8.9259607952863913      1.4236617036476946      14.814767936693842
   277   1      9.0708050936675413      5.3530617264459819      14.889053638314389
   278   1      12.979350135385301    0.062183541837917779      14.161037831916454
   279   1      14.566910781680503      5.4644170055185057      15.192403702662544
   280   1      20.665528476532913      1.8781352068879054      14.934907068529869
   281   1      20.519564243585922      5.2462443957649594      15.254147509489291
   282   1      26.576730827603512      1.9279438206381223      15.130514009486891
   283   1      26.380796786029787      5.4637963524167512      15.305788342273654
   284   1      32.147938934971776      5.2578434847164059      15.322340835896915
   285   1      30.787775136195659       5.377241125258994      12.926462674764862
   286   1      37.581831968252878      7.1095705047057542      16.871045632938753
   287   1      39.154375096246788      5.0777408565946116      17.321460077575846
   288   1       44.07473258682559      1.7922865303631714       15.22185453002051
   289   1       43.78586583474204      5.1940143247947175      15.252841597463984
   290   1      49.724961667496821       1.544717309185651      15.571582424630078
   291   1        49.6940497246243      5.3366146673226611      15.516827512733387
   292   1      54.996236482031428      5.2683054238197133      11.429585445964081
   293   1      3.0172871213447898      1.8297215973499248      20.602893195048289
   294   1      2.8849402192671079      5.1561726467620623      20.623155068740957
   295   1       9.077548648533087      1.6786456451553364       20.85598618737864
   296   1      8.6842552073825807      5.2995855774427989      20.870883908361392
   297   1      14.614153016731439      1.6391846856155303      20.876207193376043
   298   1      14.681499557293675      5.3320134176719227      20.901879769323983
   299   1      20.407719427583988      1.7563565004866153      20.887902601199123
   300   1      20.403106204922299      5.6330625818158007       20.52207950144696
   301   1      25.175209285207057      2.1600931423185354      18.773411760819627
   302   1       26.25204206888235      5.3864002134143716      20.555762419861079
   303   1      32.222280724323788      1.6280103698219064      20.753996612042155
   304   1      38.097218423732343       1.698484184674949      20.962452213335485
   305   1      38.028885861130803      5.2788469697814202      21.113272391753611
   306   1      43.870479284205629      5.2989879969375977      21.018291855056123
   307   1      51.178714756416412      1.6946309205527947      0.3211683262095002
   308   1      49.050863889640503      7.1292604204263519      22.753056751386637
   309   1      55.998034428174606      3.3870218658636788      18.760833763215327
   310   1      56.885105643584417      5.2590254488440351      20.624003971422592
   311   1      4.2291195370315791      1.5589176506121651      5.9195722222636364
   312   1      4.2299476667444313       5.092205475651526      5.8812386191779424
   313   1      10.059341570727712      1.8158877317108923      5.8241871801360663
   314   1       9.980535061651862      5.4411784083595895       5.641850027138843
   315   1      16.138115463836169      1.8944549594328215      5.8490322042581768
   316   1      15.918686125489222      5.4051269811305795      5.8547708317727389
   317   1      21.906055550867308      1.7635239956659363      5.6968812220382974
   318   1      21.492794924601238      5.7007308650769266      6.0021482676064792
   319   1      27.510163982501396      1.9225494143052972      6.1419224822324887
   320   1      27.483896357241985      5.6220149910823674      5.7350458085467677
   321   1      33.279811917339394      1.8746908960629001      5.8457991085189134
   322   1      31.553706588945307      7.1851552867529671      11.210782924560172
   323   1      40.106435632075566      1.7082100368053164       8.285560167974193
   324   1      37.448181770393219       7.057970071289815      5.3260590333626405
   325   1      42.650202117997623       1.698178293098014      7.2034547663119799
   326   1      45.049837385510571      5.2824780253022832      6.0781584526515484
   327   1       50.84043920502193      1.8162706341174684      6.3421917625163635
   328   1      48.495699563750826      5.4017536782964912      7.3068984325722468
   329   1      55.360570605391793      1.8993501166978055      5.7235226756479314
   330   1      57.752817003182585      5.1484723652907434       1.416448858378097
   331   1      4.0398877547754086      1.5780487874944145      11.564857561836851
   332   1      4.1540297568151168       5.264127747699872      11.762465975990114
   333   1      10.157087765973436      1.5713884478978384      11.532018766548942
   334   1      10.190622904869741       5.321792645097843      11.528105739748469
   335   1      15.251632457611315      3.7338731698081675      13.324588437784264
   336   1      15.796779129836539      5.4447981312827602      11.620261923918806
   337   1        21.5735232576884      1.5682729965262414      11.901154658313517
   338   1      21.781329061866703      5.3770150676602606      11.752319554937246
   339   1      27.428243997364209      1.9048117541543947       11.78942684562411
   340   1      27.777866325036019      5.4878144385630847      11.726514856498353
   341   1      33.782502896299015      7.1702337707466999      15.788394778714476
   342   1      34.100093968257383      5.6590960843337497      13.927618593851825
   343   1      38.274586267565255     0.01038912580068058      13.633631209037206
   344   1      34.386263668244744      5.2462239970863305      8.3287254377524338
   345   1      43.887903648376643      1.4872430576809603      9.5707887157193845
   346   1      42.763946694195418      5.3321235416331803      13.107446540800893
   347   1      50.609659965914041      1.6337953094008795      11.964773516379237
   348   1      50.741223498211966      5.5648007080545909      11.959441611443076
   349   1      58.834184340008072      4.9156299764104432      10.149300494409676
   350   1      58.357714665709914      3.5583990410707194      8.1454342958627421
   351   1      4.2144088649511664      5.1261257472274204      17.433383401188259
   352   1      10.014442582487268      1.6886039318335637       17.00103785089183
   353   1       10.22768481237836      5.2817461332387809      17.122109777160649
   354   1      15.618286820094859      1.7355228623573193      17.410988743659985
   355   1      15.754068647688589      5.4072209989419164      17.278764012046288
   356   1      21.059095120406468      3.7487074767888791      18.960909040391048
   357   1      21.643280295328005      5.4888648124304842      17.284000725534803
   358   1      27.567737136200002       1.929162942880116      17.662586831916418