dump/Fe_750_0/steps_91 (written by ASE) 

2000 	 atoms 
1  atom types
0.0      28.699999999999999  xlo xhi
0.0      28.699999999999999  ylo yhi
0.0      28.699999999999999  zlo zhi


Atoms 

     1   1      28.562786672608585   0.0097690496032214504    0.092532808516239115
     2   1      1.3654146564339846      1.3829886110491301      1.6438944964178859
     3   1      28.686296880217284       2.759170807672104      28.611827618685098
     4   1      1.3784924693162215      4.3385939125000235      1.4955104933417154
     5   1       28.66538333281126      5.8227633016768783   0.0093345893724745225
     6   1      1.3097313222843934      7.1778125620072277      1.5080524769424535
     7   1     0.01368014897274235      8.7711585396962981     0.19286186416559287
     8   1      1.2967666824592698      10.246058347899018      1.7243213335338279
     9   1      28.604992702437332      11.486894867369724      28.663447395757117
    10   1      1.4734883404794126       12.98837433449742      1.4922909844645225
    11   1      28.641247516616321      14.360150946467094    0.074348827342555601
    12   1      1.4558530782193202      15.860219457885069      1.5181319935030384
    13   1      28.562930397086436      17.237213691339061    0.044878546371444443
    14   1      1.4420088425787767      18.743015456349632      1.4667636095201715
    15   1      28.632986727074694      20.139557814457497   0.0042720433667682179
    16   1      1.3386459141201061      21.522787260846677      1.4548902378118327
    17   1   0.0071563137256620947      22.992534204981389      28.636732709238373
    18   1      1.4757392197674568      24.416976477488486      1.4776252317027239
    19   1      28.573251160918733      25.961123105186868       28.60409197796638
    20   1      1.3373421519496471      27.216617825203212       1.484061213054668
    21   1       2.895721773507236     0.03675831903083223     0.18203172265923515
    22   1      4.2502077610292961      1.5790253803131011      1.5901469939466555
    23   1      2.6626234982743759      2.7558239761544425    0.034601581928711905
    24   1      4.1246235400612763      4.1378698236824727      1.4331956043751446
    25   1      2.8619566339612801      5.7543986602450019    0.078615490025231355
    26   1      4.2496296410059333      7.1837040225886506      1.5102876611378189
    27   1      2.7774102659725033      8.6301578008959812     0.25580962954331882
    28   1        4.36696673690889      10.210060954459994      1.4606356996373611
    29   1      2.7112430266362022      11.397352158935298    0.055108675043391148
    30   1      4.1382389389459737       12.89517844961942      1.5626230643423227
    31   1      2.7417315479727473      14.298583732351773      28.693831984488856
    32   1      4.2096691619991891       15.72189880186064      1.4467220495555229
    33   1      2.9578742006375731      17.170428451799975      28.584739572980912
    34   1      4.2444774022820022      18.627862897322522      1.5408561720979832
    35   1      2.8156365064783273      20.084505405508416      28.674276329957696
    36   1      4.1728205153786435      21.450843537244506      1.5786220922400733
    37   1       2.834905310810814      23.008210020584276     0.12603400549892282
    38   1      4.2408762415422361       24.48158664317517      1.5250241580380464
    39   1      2.8026775291202863      26.094549114675054    0.013992618807401413
    40   1      4.2292173881819561      27.283622677071136      1.4994075062306689
    41   1      5.7875494304945896      0.1285169854546325    0.058630624705688181
    42   1      7.0914314740006441      1.4460685411948913      1.7392587780184057
    43   1      5.8170409635093598      2.9473836093221082    0.093326306798564934
    44   1      7.2382381830390612      4.3709387818099383      1.4225090078560807
    45   1       5.635099279247008      5.7502590265366491     0.17155364345544494
    46   1      7.1084688441531307      7.3702779283873028      1.3678087710129707
    47   1      5.6933199492201441      8.7284268725608598      28.663344193609507
    48   1      7.1377211692403471      10.174449345101486       1.417958884291102
    49   1      5.6979169254735673      11.566847782230971      28.543504493434458
    50   1      7.2419761679438945      12.754389962504559      1.3280906933525554
    51   1      5.7609818187011586      14.426680030150864    0.014636647853399147
    52   1      7.1728682597527289      15.801115437258712      1.5045811200683032
    53   1      5.7241150923974837      17.291262636569659    0.077200496135048979
    54   1      7.0292890254963938      18.545281386699436      1.3530836870841085
    55   1      5.5632678731762937      20.121262203859917    0.015803443554500526
    56   1      7.1499253441925275      21.528895033268974      1.5309135130842952
    57   1      5.8052142184027149      23.004093495714276   0.0025249373229826234
    58   1       7.269402034310307      24.400464001315331      1.4784255950333658
    59   1       5.809690677592747      25.792971951116002    0.085627458366389089
    60   1      7.2362213091244652      27.345196154138236      1.3658548050418051
    61   1      8.7182350640297095     0.11118698818835344     0.10806215000741309
    62   1       10.16530565564946      1.4774581320235831      1.4643447963497813
    63   1      8.6373220790092997      2.7197048434906268    0.092554656006837058
    64   1      9.9828038788647149       4.376738663046539      1.4442085127464908
    65   1      8.6154082387949895      5.7751398868050634      28.668465226738423
    66   1      9.9279905410758911      7.2068192919932779       1.430831265626852
    67   1      8.5563430512105043      8.6914163265117477      28.640129341922307
    68   1      9.9937556106321761       10.12200591205649      1.4773321586734369
    69   1        8.58689136649833      11.538913652569731      28.489638866133365
    70   1      9.7922558336809917      12.790504180368204      1.3538993394406575
    71   1      8.6860415481812812       14.42327238683456    0.097863885578078708
    72   1      10.053041494693209      15.720629896525454      1.5155042928447984
    73   1      8.4359661789712899      17.254977697119298    0.031945840834987319
    74   1      9.9820788028546783      18.529482337862621      1.4837882568616347
    75   1      8.5924952542611326      20.057105668943144      28.675775741722749
    76   1       9.957398923666668      21.601657401954114      1.4040393822086785
    77   1      8.5369222941488658      23.008060347301477     0.07465425244256485
    78   1      9.9575048522201683      24.502954293514257      1.4420160191212514
    79   1      8.4500384076664297      25.846056356761117    0.062977437105132525
    80   1       10.08891696697955      27.212546140900802      1.4750263247295374
    81   1       11.45466702317024      28.630278581909494      28.641749972152642
    82   1       12.84958558669739      1.3786310694854598      1.4232817410825083
    83   1       11.55799952226344      3.0337517885732677      28.691755948489405
    84   1        12.9492716156334      4.5182592356155089      1.4326706057411218
    85   1       11.49785788738755      5.8973404856524532      28.612243540706462
    86   1      12.960681500213171      7.1643110192722563      1.2111981240923555
    87   1      11.515399773716865      8.5538026928547382       28.48372081500094
    88   1      12.888681368326649      9.9584527116764967      1.3618548555002696
    89   1      11.366329467085324      11.328679255254396    0.062263002992153767
    90   1      12.863118483322225      12.689362641244704      1.3300479293565675
    91   1      11.609370881813598      14.178703008980339     0.15792157669997084
    92   1      12.893316597591786       15.73539428106691       1.685556663826776
    93   1      11.429715997602601      17.227554770797969     0.15191564998285675
    94   1       12.81916736657252      18.682291362817192      1.6086847127595323
    95   1       11.48108813695837      19.902433933364946      28.613837329552197
    96   1      12.990846267213653      21.428114864239905      1.4905024134738249
    97   1      11.585106660427671       23.12402168287279    0.030678362445053023
    98   1      12.823680546707681      24.418944031424925      1.6488637140613498
    99   1      11.502905767212091      25.893713522257386       28.65224297580875
   100   1      12.885687375367194      27.311932678268537      1.3844660405515024
   101   1      14.420859099589094      28.696901737243682    0.060862922819637885
   102   1        15.8834010939609      1.4850078963944164      1.2123886478450456
   103   1      14.387654968936117      2.9887135156104363      28.634885369532345
   104   1      15.739983251247027      4.5121832909444937      1.3746024805605197
   105   1      14.341717769682228      5.8342416763203699       28.67487338018795
   106   1      15.825412538199409       7.240549881447488         1.3282328093847
   107   1      14.329712396803238       8.705241943599427       28.60507205014833
   108   1      15.821160421264198      10.062728097899168      1.4078478160098487
   109   1      14.346721661547857      11.415240769198496    0.080219314991029397
   110   1      15.776289024200558       12.69739816883444      1.6308597248874555
   111   1      14.359044094718566      14.272026331522721   0.0030042334979498136
   112   1      15.573262174802657      15.680028797677515      1.4566092846752769
   113   1       14.40580049951526      17.260358093421903     0.12028386108429454
   114   1      15.864655909753647      18.767853738419181      1.5856873590074876
   115   1      14.260102977521239      19.995596991650174    0.031310935998715067
   116   1      15.874191511438134      21.579370820434761      1.4057331473933352
   117   1      14.302339058346695      22.915478536954105    0.096408341783626436
   118   1      15.948508068353851      24.466719120228365      1.4820678178769291
   119   1      14.298507483878467      25.894922000322889    0.075463431771163408
   120   1      15.792606478310903      27.234253016836451      1.3278275360861929
   121   1      17.305643452372461     0.10501215703276341    0.055301099525911432
   122   1      18.736633487095627      1.4915674340378227      1.4111951137833769
   123   1      17.202930365059455      3.0626973984444845      28.610436930923843
   124   1       18.69439908757122      4.3835491642690183      1.2531509993603556
   125   1      17.168776170995557      5.8704245841145868      28.597175934885829
   126   1      18.704742309367912      7.1880236557588351      1.3519484813177316
   127   1      17.215767633230122        8.57220030929963      28.574272433630927
   128   1      18.678276703248816      9.8795975944686187      1.5406996299199922
   129   1      17.270205757569137      11.376215699490675      28.551169492573099
   130   1      18.522667092687332      12.886070047478528      1.5151600184280483
   131   1      17.149390146925906      14.378286855407715     0.16054739144620947
   132   1      18.544794220618066      15.651864048861162      1.5649693855999645
   133   1      17.134213744621352       17.15055714683011     0.20329348474380141
   134   1      18.703360576226803      18.577100417060841      1.3832043233124078
   135   1      17.258890733467119      20.011478965437639    0.026601030880283354
   136   1      18.706564793738657      21.604493335593126      1.4775424518101645
   137   1      17.231666680893177      23.056763907082519    0.005157419733711777
   138   1       18.82994703454618      24.348289307940892      1.4566793886727851
   139   1      17.472258802923129      25.895908651882547      28.557946457425317
   140   1       18.75936455088673      27.342534954428157      1.3510425329163356
   141   1       20.17495716847947      0.1581701882155829      28.627205063505528
   142   1      21.427925255662231      1.5081126361492689      1.4007502883821539
   143   1      19.973127518022789      2.9562193329679189      28.601899968349972
   144   1      21.639218500522677      4.3636645828117127       1.374465498410085
   145   1      20.208800430618943      5.7281038660990644    0.074119568868218161
   146   1      21.645564939425196      7.0421070283138665       1.405945338328489
   147   1      20.054441519050435      8.6910067259770205      28.561306341457925
   148   1      21.491118783993226      10.056418407620262      1.4335545048926621
   149   1      20.072876837271199      11.459307792687303      28.699043832917983
   150   1      21.348260666774529      12.845354801881824      1.3667103407590262
   151   1      19.960010150521274      14.350433800336754      28.696869493591478
   152   1      21.590097784209128      15.700098446520636      1.1955416733029542
   153   1      20.035550014905827       17.10188557863269    0.053318992536549197
   154   1      21.364723440032851       18.68927600888739      1.4022998870137813
   155   1      20.153764170368483      19.860813544912762      28.479080449868654
   156   1      21.538918883691409       21.47650263974332      1.3476909782854471
   157   1      20.069393638085259      22.857448838758369      28.653396532127132
   158   1      21.630419116813655      24.322238837192192      1.3156935998106165
   159   1      19.861204685209536       25.78873223287712      28.529347048968166
   160   1      21.397508113674927      27.285669592265744      1.3447830968892056
   161   1      22.834376031729274     0.16199532657459487    0.034610259479018232
   162   1      24.533063765537772      1.5327877808205452       1.407951322290717
   163   1      22.994726734856457      3.0869803625528753    0.024264535115128182
   164   1      24.419268894272076      4.3205270097282762      1.5015057501603222
   165   1      23.093902040392685      5.8049715109523952      28.684087628669278
   166   1      24.542597365584836      7.1688536689155189      1.4551393208103369
   167   1      22.970762553494705       8.557412256269199     0.18413759778467223
   168   1      24.362798631160253      10.041660888084683      1.6210500055042427
   169   1       23.04742243377331      11.380867459030549    0.039953769460805713
   170   1       24.27971925864728      12.881681723633836      1.5674790793839077
   171   1      22.901245873226223      14.173868151298873       28.68911703606274
   172   1      24.469816946418756      15.665876875547045      1.2557952503433052
   173   1       22.90611541029816      17.155457992047261      28.687690417635551
   174   1      24.418864443933128      18.537371560214027      1.3988308269538958
   175   1      22.969021110792436      19.976467134555541      28.628068574270003
   176   1      24.287990401172099      21.614954514457292      1.2430811570543816
   177   1      23.085362621810319      22.985257396571932      28.568171833807966
   178   1      24.251043924591674      24.414922946651664      1.3394925920329552
   179   1      22.923441634200369      25.848199586143572      28.652907847674882
   180   1      24.337470330786115      27.385379360806972      1.2982753987386906
   181   1      25.863772436638893     0.07293975456258299    0.010607988999868218
   182   1      27.218429791370099      1.7076745875175219      1.5151076167955237
   183   1      25.897517410197604      2.9081831571753241      28.653043763176107
   184   1      27.396652867453668      4.2079722073078951       1.386811424148686
   185   1       25.96419591484112       5.761184194986134     0.13364288036956404
   186   1       27.26772115863049      7.1615976699003179      1.4349538238445587
   187   1      25.868491337738529      8.5639647764093816      0.1228285818950554
   188   1      27.263435451438042      10.049887668634415      1.5744181121938359
   189   1        25.8350862552041      11.456762526722597      28.688515888454859
   190   1      27.179079322578463      12.805740532106833      1.4848094071204854
   191   1      25.915276580640196      14.310552461757807      28.681310529368915
   192   1      27.221823837324219      15.793313885213809      1.4653677064847224
   193   1      25.917449418826717       17.12298008209023      28.506467479768929
   194   1      27.220436323497861      18.483715921037071      1.3740592543498913
   195   1      25.887765412158828       20.13304624226512      28.642117107380173
   196   1      27.232825878742794       21.47327312274426      1.2352608070932776
   197   1      25.859711057664697      23.076614390686906      28.663277062138363
   198   1      27.112518680863779      24.415901586431303      1.3312283141094559
   199   1      25.741481461373816      25.912544656048802    0.068689896648504681
   200   1      27.189052770079048      27.316797498426595      1.5650997764520302
   201   1      28.509799676381125    0.054245005565940405      2.8454920191619295
   202   1      1.4758550227425986      1.2841700140992427      4.4306805961958613
   203   1    0.035394872559141276      2.8294393005728455       3.016089936478318
   204   1      1.4450852650112544      4.3585641465831362      4.3872030423608104
   205   1    0.093922635787442171      5.7666651173071166      2.9265374927486101
   206   1      1.4518927768060066       7.236489501145055       4.337319821724174
   207   1       28.62376507262951      8.4239640392358108       3.077460497692456
   208   1      1.4497145477521498      10.032535947733907      4.4809969891138044
   209   1      28.549555829451837       11.46502046902169      2.9931880232211019
   210   1      1.3962550454104528      12.978320256211054      4.3355276195497305
   211   1      28.669910360549991      14.383626018847229      2.9391724417987919
   212   1       1.349287831091329      15.678687644908852      4.5877619687842293
   213   1      28.571950864598794      17.204887692715879       2.816509472745429
   214   1      1.4060130527956627      18.631662102220112      4.2855535309592501
   215   1      28.696760905532742      20.009891026605466      3.0027028490595624
   216   1      1.5353288879003464      21.583167598694047      4.3324794996968752
   217   1   0.0032124920493758714      22.839016032442981      2.8139153830078163
   218   1       1.324542463509353      24.441811997440656      4.2226133373321479
   219   1      28.536734508670794      25.842257176497775      2.9926443651544159
   220   1      1.2496485554161041      27.116637225688635      4.1871069759926263
   221   1      2.7645655608151416      28.638580531511071      2.9575279162762746
   222   1      4.2100778952588298      1.2346106471969738      4.3158264144311858
   223   1       2.863435324954958      3.0015379991887396      2.9901323287659198
   224   1      4.4329654773416509      4.3080472720430878      4.4742103400211253
   225   1      2.8281991036425893      5.7290469668677142      2.9516972723420301
   226   1      4.2459363064663673      7.1791936775534264      4.3550656180821088
   227   1      2.8559087080150101      8.5915294331963672      2.8900899327523124
   228   1      4.1596774627776876      10.172343437912398      4.4278743095586908
   229   1         2.8497985825667      11.538982965015526      2.9932033438734416
   230   1      4.2750324998112452      13.032893279127324      4.3579805657083996
   231   1      2.8050964029006762      14.207725418498709      2.8648711681892678
   232   1      4.3897442581542494      15.623967474048115      4.3625810493120794
   233   1      2.8362334078735234      17.164039851862196      2.8647341167562774
   234   1      4.2336707131522218      18.816016815244677      4.4112003367772292
   235   1      2.7279527718535199      20.083988022464133      2.8239767718142734
   236   1      4.2480902115355406      21.515573219449969      4.2907956857572422
   237   1      2.8020033397994779      23.003548966101516      2.9450295112656697
   238   1      4.2742380913935589      24.515863544057357      4.3393724792464932
   239   1      2.7835775571311752      25.746252181540637      2.9500889416054537
   240   1       4.256544629137724      27.292651052030148      4.4260048304039978
   241   1      5.6932329134197062      28.433095164534311      2.9358496755998233
   242   1      7.0822822728593584      1.5087725729678365      4.3533013785772834
   243   1      5.8525115352539068      2.9457179997208272      2.9117431399749329
   244   1       7.241624099631216      4.3499610005302696      4.2543254508407431
   245   1      5.7671111419983143      5.8376580532649367      2.7543667033435777
   246   1      7.3563303451234132      7.0647885275040263      4.4057660541189669
   247   1      5.7705142630862145      8.6327076221642063      3.0222828816516034
   248   1      7.1263899540002855      10.043104691256145      4.4699565362740108
   249   1      5.7225452328796944      11.589957455139333       2.809868208184231
   250   1      7.3695061667187023      12.819022215625765      4.3181129386639414
   251   1      5.8345031519169916      14.343742355442775      2.9620215278809914
   252   1      7.2198023422201709      15.764578993959805      4.2040779296898885
   253   1      5.6415602116896046      17.167516597133712       2.914835584172851
   254   1       7.080939262888152      18.765763537243384      4.3552776044487223
   255   1      5.6084805584428645      19.947902676328376      2.9093462790770905
   256   1      6.9657404599121708      21.495034732257391      4.2498643948130512
   257   1      5.5894849450725355      22.908206490276534       2.847658110981671
   258   1      7.1356230571707266      24.341757083749041      4.1514876574081585
   259   1      5.7771601218110451      25.802026933698727      2.7144384437528615
   260   1      7.1144297441950783      27.329451796132812      4.4174506950113992
   261   1      8.6030980040491993      28.665686635494328       2.976265242091614
   262   1      10.096842351999138      1.4069781946864961      4.3523013264487256
   263   1      8.8122540350240328      2.8575473849447017      2.8610767191243887
   264   1      10.179420998904133      4.4900822449233582      4.3743970126090508
   265   1       8.581144696528467      5.7111331531875402      2.7840092503242078
   266   1      10.045893805852819      7.0761346827502507      4.2914017068776751
   267   1      8.5396592269939209      8.5748136483276163      3.0383923511203705
   268   1      10.023946624826559      10.159558705818414      4.3617776935290768
   269   1      8.6019122706334468      11.552299582486285      2.9843985729840803
   270   1      10.198019925425285       13.06091606990671      4.5959670475246837
   271   1      8.5527103431874743      14.188165664310832      2.8780845867034355
   272   1      9.9303577010865745      15.882135216502434      4.5205162420016167
   273   1      8.6086440271257079      17.248996031290599      2.9423408915927873
   274   1      9.7801736379660849      18.576994301649329      4.3308271424414793
   275   1      8.4798140864017135      20.091617845303954      2.8040773556678809
   276   1       10.11534994530575      21.540208142521141      4.4761008490089509
   277   1      8.6017456491488264      22.877750682251154      3.0248907474360438
   278   1      9.9769573172879085      24.541989279397921      4.3563354882928698
   279   1      8.5947035756645853      25.934100656910015      3.0805869831693955
   280   1      10.028870081877438       27.32292235087488      4.4858383788050684
   281   1      11.612873227984437    0.037455661006288429      2.9211830263053069
   282   1      12.918128064757695      1.4625777480334596      4.2017491620913239
   283   1      11.377670975183117      2.8508624429268692      2.8924695299996368
   284   1      12.908884139168572      4.1824934179674811      4.1892316877736047
   285   1       11.65101906735422      5.7810414053641077      2.8596898774079604
   286   1       13.08845820553676       7.146517565825186       4.311525104346619
   287   1      11.548172755808674      8.4940661758826668      2.6757394192733508
   288   1      12.821863383275661      10.028041070859524      4.1661665197939204
   289   1      11.379538362767477      11.560985562235491      3.0026221165229434
   290   1      12.737469669269414      13.027672160286757      4.4926107581547994
   291   1      11.278336503208557      14.405071744971549      2.9414989345842413
   292   1      12.962228634514497      15.845136535918032      4.4094289247334011
   293   1      11.248151420960207      17.233045387097228      3.0192546930690654
   294   1      12.987213164171772      18.541592727388032      4.2248092196195417
   295   1      11.306472113095174      20.163569544938696      2.8046607081816548
   296   1      12.846643215029795       21.64759834320013      4.4238114322619211
   297   1      11.382154130081487      23.006493612503938      2.9480202400425033
   298   1      12.932325567915131      24.478327937008828      4.4292098382538043
   299   1      11.423716054866807      25.870522767570801      2.9095197032152922
   300   1      13.025796719125768      27.354183202157536      4.1767538922969729
   301   1      14.485895255307888    0.088672048975558956      2.8090211199498962
   302   1      15.923802679918929      1.4034245448325242      4.3255287517073633
   303   1      14.363727607340309      2.7857739719780636      2.6570267474989708
   304   1      15.689484290414075      4.2306049696105648      4.1332180555059326
   305   1      14.424829054792658      5.8263363179888064      2.8577593015001868
   306   1      15.882786486841416      7.3006728279658857      4.2783812481103682
   307   1      14.277013869912388       8.754828436967987      2.8293676106006171
   308   1      15.758890324856248      10.171611175708478      4.2621436827081096
   309   1      14.288992992331403       11.50027982601884      2.9525515521081958
   310   1       15.82723964270901      12.840032030181293      4.2648662205932961
   311   1      14.330807342040893      14.208203242427519      3.0057357419386861
   312   1      15.689678270455396      15.984602516580313      4.3182385182252885
   313   1      14.462931925528952       17.30189933781152      2.8582217462874948
   314   1      15.760586835090526      18.592433024909262      4.4383612048517902
   315   1      14.384184864371738       20.13526233105086       2.912216390227341
   316   1       15.83523958801309      21.538214497359775      4.3031182782510609
   317   1      14.318622287090163      22.956134030702877      2.9156647292792877
   318   1      15.682793466739982      24.443630727417343      4.2915889260163693
   319   1      14.343657469561521      25.910297372758333      2.9327297934022667
   320   1      15.767208505273285      27.319217145669686      4.3083556313281379
   321   1      17.217772546507053      28.614928617309477      2.7394779232598578
   322   1      18.660547988988743      1.2561567661353481      4.2581211146832301
   323   1      17.343300350694314      2.8251419703165759      2.7665601996105003
   324   1      18.790799026569207      4.3256210706631792      4.3112805358664952
   325   1      17.261311396524789      5.8438954776689487      2.6239418270617763
   326   1      18.588871046844488      7.1744007896868993      4.2826116607010558
   327   1       17.18426655220501       8.694307648483294      2.9179091815907117
   328   1      18.580488149669034      10.141962848075188      4.3325343974786499
   329   1      17.360675347740397      11.437888682072909      2.8414029704729602
   330   1      18.709313972260652      12.875159349265255      4.2621674580835487
   331   1      17.149787668454668      14.293664620091031      3.0010072202087681
   332   1      18.861484490668161      15.802500862428486      4.2982898315519122
   333   1      17.197835294659392      17.395339035159747      3.0068314929996194
   334   1      18.771547955931236      18.575113016572985      4.3448977403080224
   335   1      17.449256934907201      20.205718679064585      2.9078888395104063
   336   1      18.930777942419919      21.586184478734783       4.168844593493148
   337   1      17.269207848605767      22.923963328701902      2.9156384005705807
   338   1      18.891244148541798      24.381741450962519      4.1156619433707053
   339   1      17.458622781759928      25.868963784490813      2.7741558041800078
   340   1      18.634676688118812      27.260945785216563      4.2535617857558599
   341   1        20.1967681774235    0.016549116758528881      2.8001932563404792
   342   1      21.390153864482265      1.4346094678705541      4.2172904224822423
   343   1      20.050812812540357      3.0204906312723803       2.852433339973266
   344   1      21.528828757878209      4.3913583692563725      4.2624559102202326
   345   1      20.040697343143023      5.6602314027936007      2.7265588558446203
   346   1      21.411050029260949       7.232699889933448      4.2485466760611041
   347   1      20.019799908392976      8.5914635860399109      2.7838588457603359
   348   1      21.331035319770237      10.098956182112058      4.4292475568299032
   349   1      20.034398923720406      11.277134692827131      2.8045295937291921
   350   1      21.315763652099076      12.938352953146675      4.2932371868697388
   351   1      19.974404134955989       14.25569292362437      2.7648855005876145
   352   1      21.445672019362416      15.660694687378172      4.3222247053128795
   353   1      20.066741642341089      17.082590520296836      2.8320618594696851
   354   1       21.58512428901556      18.476121138366707      4.1109481543963566
   355   1      20.147473685922499      19.938013285507754       2.759478332111188
   356   1       21.58004420993262      21.502074870198992      4.2673142430853312
   357   1      20.240669633642288        22.9662793005586      2.8069159325796011
   358   1      21.658132524900804      24.565211053180416      4.2501230165354897
   359   1      20.218066471294957      25.836552788179546      2.8342676290896631