dump/Fe_750_0/steps_51 (written by ASE) 

2000 	 atoms 
1  atom types
0.0      28.699999999999999  xlo xhi
0.0      28.699999999999999  ylo yhi
0.0      28.699999999999999  zlo zhi


Atoms 

     1   1      28.542118618092857    0.051583195866578439     0.10669814317382144
     2   1      1.5453486664929657      1.3254233596304967      1.4489670586201773
     3   1     0.14571389224083772      2.9243509709605333     0.17839464302576297
     4   1      1.5499418885154919      4.1592357640305959      1.6269040365000802
     5   1    0.040341209487044075       5.777245146061631      28.653318525608157
     6   1      1.5731654000881354      7.1848215338110109       1.427506968258627
     7   1      0.1114280429035624      8.4708251900971909      28.683553043599236
     8   1      1.3728047611532939      10.048640285095903      1.4727256745883774
     9   1     0.14431213988357511      11.502625590056661      28.601625779644298
    10   1      1.3901371875245558      12.948081905055078      1.6082897273103174
    11   1      28.609792581530044      14.418678471030489      28.659508683153749
    12   1      1.2218016452842675      15.830279839034439      1.3548287579291793
    13   1      28.578855797018949      17.298458796897158      28.652577074028017
    14   1      1.3110251098453223       18.59499706598309      1.4800482909044606
    15   1     0.16742458902751051      20.079293097102695      28.673839354258579
    16   1      1.3460130536365922       21.54384994124154      1.6019240855668153
    17   1      28.692113524071861      23.033962263866258    0.041188982435573958
    18   1      1.4880237934640281      24.365318577874859      1.4482631562419221
    19   1      28.596853973052347      25.886332044394074    0.063465735043007412
    20   1      1.4433433595802183      27.282123104072554      1.4918385986271796
    21   1      2.7596790052767148      28.649027085804722       28.65329351530562
    22   1      4.4807414308066367      1.2667295656072954      1.3976019565663695
    23   1      2.9179974960905204      2.8989742914304046      28.623289699482161
    24   1      4.3362029269057762      4.3215700416426293      1.4809909015530243
    25   1      2.8912721219415207      5.5847666426043086    0.026195497333344527
    26   1      4.3128908410449442      7.1654397811345207      1.5255572025810797
    27   1      3.0236040793771131       8.524959754591336     0.12280629228034728
    28   1      4.3421327167540689      10.010415023029175      1.5722989240113756
    29   1      2.7710371588330198      11.574309914473483      28.694037191168849
    30   1       4.355784873812615      12.901342472083003      1.4141281203641483
    31   1      2.7090281697186929      14.296020451392478    0.035694350384449076
    32   1      4.3485105344906492      15.710359887647952      1.4828705272054652
    33   1      2.8813696190889577      17.261734503793821    0.082239047514144611
    34   1      4.2343391162768418      18.583495510631259      1.3610123968408621
    35   1      2.8244084782673782       19.99713530716712    0.077677429896914285
    36   1      4.0419935114560177      21.449341155356151      1.4274397934312342
    37   1      2.8514011262163437      22.924175445522309    0.079260294406776718
    38   1      4.2169360388584574      24.349925263127222      1.3841377630049347
    39   1      2.7892244469386958      25.705657884272814      28.684165212265789
    40   1      4.1858784139114809      27.227731818692103      1.3410879896930958
    41   1      5.6711739167347277      28.637786782923726    0.063105262394879028
    42   1      7.3624614693624189       1.566465645333416      1.3938485898673547
    43   1      5.6331500713142297      2.7910960027624467   0.0092272177423524185
    44   1       7.195678768587805      4.3902950377360748      1.4541687236573115
    45   1      5.5966027693402722      5.6773196163410553    0.066358309024133158
    46   1      7.1294891570550325      7.1821387652707847      1.5001822722282767
    47   1      5.6486081412823079      8.4114628402791194    0.040576390027592744
    48   1       7.096787543966073      10.038547386708014      1.5051234701061713
    49   1      5.6051193225031604      11.339814246349629      28.690512483103873
    50   1      7.1638047547860007      13.015426652306422      1.4087691037529775
    51   1      5.7081835669461167      14.235272765257559      28.587143752032176
    52   1      7.2036249916524078      15.760882530376737      1.2702553339541047
    53   1      5.7091294338584513      17.238031388457653      28.685545911687601
    54   1      7.2193865423421757      18.589050710197526      1.5361445595172767
    55   1      5.7307282281858258      19.927766913378573    0.056705324298729917
    56   1      7.1876623456055562      21.523747226517546      1.5305426160936459
    57   1      5.7909280396859266      22.734351887045573     0.14486253875066943
    58   1      6.9725796961510893      24.346083950260731      1.5092155418396245
    59   1      5.7101891942633767      25.731499385141127     0.10480197090975027
    60   1      7.2829721374813667      27.213511015616255      1.3989972449108321
    61   1      8.5228164406106757      28.571634249346491       28.52628502389048
    62   1      10.020374412641219      1.3195838623619476      1.3371559644926032
    63   1      8.6415704148802011      2.8857112185291922      28.488769692170937
    64   1       9.964571387960536      4.3190038140539029       1.386043848253802
    65   1      8.5660953211654984      5.9120525536261876      28.518068556222321
    66   1      10.005326086308274      7.1611467579731363      1.3705519670740969
    67   1      8.6406062074979371      8.7203870411847326        28.6517188852219
    68   1      9.9762195320205649      9.9709332750652511      1.3669974899895465
    69   1      8.5119251334471819      11.632702983575596    0.078897309086516862
    70   1      10.107152376325738      12.873638638519337      1.4103256688737587
    71   1      8.7148489727563749       14.46144275170356   0.0076949976415903653
    72   1      10.149353367661096      15.989896630208078      1.3328107929483839
    73   1      8.5300662164608241      17.287259670793134    0.084816155351609246
    74   1      10.065970010361102      18.657434065952334      1.5220104901478619
    75   1      8.5653843518295787      20.095702444365333     0.03606933104564395
    76   1      9.9831581655046868      21.481788725420571      1.4591899723202464
    77   1      8.5184899289363081      22.970965380964635    0.061955552902770668
    78   1      9.9230135504576751      24.393370872549113      1.3949077469880873
    79   1      8.7302250071772676      25.752196106984595    0.023203207349820336
    80   1       10.16968192621872      27.178101699771698      1.3374453955153953
    81   1      11.519500561074382       28.64526863767043      28.680313315581941
    82   1      13.084625824628581      1.4294565835143775      1.4147919157616353
    83   1      11.511696443000561      2.9122921267425812      28.658198132813357
    84   1      12.942493280032982      4.3531949484805743      1.3963419069179834
    85   1      11.496509652045363      5.7177700338570254    0.030278400368627032
    86   1      12.849308576300283      7.1791242300957361      1.3555770351608205
    87   1      11.491583301216103      8.5333826339906516    0.051756621218544359
    88   1      12.685010767303341      10.177346348190369      1.4630628809129465
    89   1      11.354723722839676      11.509688946783578      28.574780905195926
    90   1      12.876917897436901       12.71793934274409      1.4201869579441562
    91   1      11.477381400570859      14.405651964066424      28.675976918593069
    92   1      12.851519164836157      15.919188076906375      1.6053596497919906
    93   1      11.525927256524678      17.343048817212871    0.071171614065542524
    94   1      12.937700015889133      18.747845645090337      1.4893747385750207
    95   1      11.486053994828589      20.080994838933385    0.040468872970666245
    96   1      12.926407051119032      21.538259629942591      1.3267725800058874
    97   1      11.475096149138297       23.08447662812258     0.11975389718743382
    98   1      12.887591110918144      24.584371290809301       1.453501791072382
    99   1      11.595959931233454      25.901466192252297      28.561712395382628
   100   1      13.115320993754242      27.313527108498317      1.3779940327146158
   101   1      14.521396181523317    0.062554852199299973      28.638059009754244
   102   1      15.838689581343484      1.3962986911492865       1.535525933487532
   103   1        14.4933160146768      2.8978147437012467      28.592850532391441
   104   1      15.849401432848261      4.4422749839918527      1.4447215659149246
   105   1      14.333348567603215      5.7156999287562495      28.541946025813534
   106   1      15.776872705217519      7.2913599515647922      1.4669808960577269
   107   1      14.203050368502558      8.6614546352355397   0.0094115965899391231
   108   1      15.682944261112036      10.068827311632189      1.3034580965392599
   109   1      14.241048450744545      11.439106410951787      28.616295495567933
   110   1      15.699020537636184      12.807648626833688      1.3655252158447178
   111   1      14.104414557521419      14.175420256595805      28.691999891033266
   112   1      15.693879320626751      15.959286673564618      1.2732594844983178
   113   1      14.194179408468344      17.354220522208845    0.010651578373619942
   114   1      15.881612374202296      18.624783860307247      1.4244995788251114
   115   1      14.439221254318985      20.088749198229756      28.589056412208251
   116   1      15.680953229355593      21.433774297074244      1.4172726935213755
   117   1      14.216620938728898      23.053464363339565    0.060574050344621218
   118   1      15.768087753524137      24.352508911271837      1.5016610733353459
   119   1      14.337131486042983      25.678962031843415      28.607099130372891
   120   1      15.872300326842636      27.295352033709008      1.4598198542593637
   121   1      17.343006112005767    0.026729190317894346    0.032184250590603224
   122   1      18.782190715438876      1.4007672212585482      1.4536587977541102
   123   1      17.202229884092205       2.804985135704396    0.028759657202897446
   124   1      18.580992154390245      4.3306149141829993      1.3195526443943424
   125   1      17.209298505334065      5.8200758340964747      28.474965279520887
   126   1      18.593287984156078      7.1734579884476615      1.2156975334697344
   127   1      17.136606877687679      8.6793448117073257      28.628002473557135
   128   1      18.480662793694055      10.038908137752315      1.5931845232558766
   129   1      17.221427602509966      11.554513688173895    0.020278389070449508
   130   1      18.756941012700885      12.824692308880138      1.4971430785128501
   131   1      17.303835536337658      14.201987469536549      28.610472371693206
   132   1      18.622072290714545      15.798918754867751      1.3455007273574655
   133   1      17.234980553096626      17.136814350952001     0.06467331845518616
   134   1      18.664768048235697      18.715320337555191      1.4794947827241229
   135   1      17.135548733644043       20.01720801514794      28.654955868197732
   136   1      18.674873326885017      21.573491852453422      1.4420881093100315
   137   1      17.143148237858227      22.975064513551015      28.698992169007305
   138   1      18.599340551394025      24.307826784732406      1.3017095436601134
   139   1        17.2426069032275      25.902824913848853      28.625855488697368
   140   1      18.656380880143438      27.153086041697989      1.4577589496952554
   141   1      20.068768394073889    0.012991286025046005      28.545428177387127
   142   1      21.434649147246727      1.5162235687916921      1.2756122704506876
   143   1      20.134424473247098      2.9253231502577339      28.629979167829749
   144   1      21.603347356474242      4.2988039185032552      1.5604272240146755
   145   1       20.05239785346345       5.805746900825806    0.065769872693237946
   146   1      21.393176447615367      7.3619583858701629      1.3966670069030656
   147   1      19.805933048166889      8.8223822603401345     0.24007180832446703
   148   1      21.477154799335679      10.163047383523848      1.5815330631083953
   149   1      20.013351237403025      11.511396854220058      28.549881021580369
   150   1      21.392384703225119       12.98777149555535      1.5572845372360362
   151   1      20.167636112306425       14.25981008111126      28.666893969201851
   152   1      21.611182705785517      15.801083788028889      1.5809968221578741
   153   1      20.255936491213653      17.207641772637675    0.034853691117052617
   154   1      21.501938034157284      18.798632076612581       1.435706810129965
   155   1      20.188708152238096       20.09294453544527     0.14083632766867141
   156   1         21.587898471166      21.523397857960141      1.2867267573746957
   157   1        20.1054243724994      22.966390271840638    0.047753864004232614
   158   1      21.533680485271269      24.509618455871856      1.5444660068642182
   159   1      20.252404265373141      25.861831375455608      28.621580865203086
   160   1      21.476759910429823       27.37670200865767      1.3906057256757218
   161   1      22.939909905104848     0.10454673884792264      28.605390143402367
   162   1      24.408146892980561      1.3733183312980124      1.4418353501107626
   163   1      23.046485961929793      2.9113406420962913     0.12099399973105857
   164   1      24.282809582320709      4.3833500802725087      1.5571005274516656
   165   1      22.873355855031129      5.8189677285046377      28.597189140903033
   166   1      24.419949942869291      7.2596128754144438      1.3727802210301534
   167   1      22.918274389623502      8.5799163221210399      28.697895065280676
   168   1      24.269278585699958      10.044592475319281      1.2547692063848774
   169   1      22.842894331958448      11.624449456151838      28.657084712844323
   170   1      24.391828407929193      12.882428809948813       1.387731938203989
   171   1      22.963522049829315       14.30870863426197    0.063830434918895673
   172   1      24.321619876228237      15.556970614686731      1.4147817852027278
   173   1      23.005060241616651       17.19741912942148    0.090111269318424614
   174   1      24.384336764698471      18.741591313351208      1.4762215886534364
   175   1      22.960138515651316      20.068968939758069     0.17635533930974812
   176   1      24.466807025016848      21.490944331994136      1.3000558673574121
   177   1      23.106134181166386      22.999873232120645    0.068949774941916092
   178   1      24.370026137083482      24.494396389586573      1.4279805718540175
   179   1      22.975978011108037      25.731570743040642      28.544116308335489
   180   1      24.295494320061771      27.270016512215911      1.4199393859670528
   181   1      25.925035372043297    0.066871779901056819      28.629448650235279
   182   1      27.175481701294995      1.5431380358602618      1.7218261955631522
   183   1      25.784815366441297      2.7752596785112251     0.17215174884981935
   184   1      27.054285912983215      4.3887170243591527      1.3747774729628977
   185   1      25.734813925992697      5.7542446529621634    0.062165588427421981
   186   1      27.350685132460097      7.1109678913350498       1.459505039888553
   187   1      25.961648145402144      8.6538459573473929      28.517379600098494
   188   1      27.398647987226692      9.8571583231508519      1.3889711515105536
   189   1      25.982442481142094      11.326961137936795     0.06278578668892576
   190   1      27.236018380190846      12.985447269008313      1.3765714661830764
   191   1      25.768240925362285      14.319149236491088      28.643514917854024
   192   1       27.10949073128549      15.825196012885719      1.3605397300902271
   193   1      25.660018821107283      17.148327542288385      28.479422330081093
   194   1      27.149402157929977      18.478828864973472       1.464023689890267
   195   1      25.860080306863363       20.09784558182459       28.69735627021052
   196   1      27.267796392457271      21.431611625791085      1.4888167778142694
   197   1      25.787240734236033      22.952796816839811    0.030178829779981819
   198   1      27.076250601728152      24.343962535375326      1.5010834536968793
   199   1      25.771284020174335      25.755611307479779    0.032056986132602182
   200   1      27.072076532586518      27.325501054433087       1.405536846050357
   201   1      28.622473289636005      28.651722025451921      3.0187246958588982
   202   1      1.4206706915633505      1.4056240372259132      4.1734146723590744
   203   1      28.636200154595176      2.8824453341008676      2.8533849158347153
   204   1      1.3765722057679912      4.2180344129691738      4.3464993099788467
   205   1    0.077873517607259135       5.759351085234691      2.8957386198669011
   206   1      1.5742159898730974      7.1421680577881235      4.2226998171950418
   207   1    0.087820890767967022      8.5171362407562281      2.9240598678117089
   208   1      1.5578002741491108      10.061593738675963        4.30821266384556
   209   1      28.565237528089568      11.473463605871443       2.867705775240597
   210   1      1.5662012509815799      12.909943009347828      4.3666219295672342
   211   1      28.582450904320254      14.351913650069267      2.8383299469250458
   212   1      1.4575940768495808      15.688312162641529      4.3188560185652261
   213   1      28.447944587576703      17.036348894637545       2.828579230499348
   214   1      1.3953782978996068      18.381178299642059      4.1922416657265948
   215   1      28.613251721720601      19.988999171296946      3.0883915137214237
   216   1      1.3010835405130365      21.586739310468406      4.3203541101687017
   217   1      28.697214560928703      23.061851653157564      2.8810180898092055
   218   1      1.3638446217260265      24.343024637588222      4.3006299687232099
   219   1     0.13548446994490349      25.879301839901625      2.9291379861304887
   220   1      1.4000056032686083      27.148585101135051      4.3006774507429242
   221   1      3.0133054666351984      28.608539617585819      2.9860280559222647
   222   1      4.3361575537362622      1.4135621602906105      4.2377392968367591
   223   1      2.8925124947895653      2.6150528678053777      2.9535745577195578
   224   1      4.3822704813166062      4.2595501946918111      4.3167439975054878
   225   1      2.9852730213314191      5.5706623640288342       2.951302949325266
   226   1      4.2043997628201053      7.1913585923747032      4.2911367477722031
   227   1      2.8825020628064615      8.6362979375510047      2.8802838381870908
   228   1      4.3748685378223868      9.9887530518928713      4.2561065786715195
   229   1      2.9512621016567624      11.430442948574621      2.9053365028031886
   230   1      4.3149707503353305      12.913937652346153      4.3676322180285334
   231   1      2.8985488964829975      14.289380352921233      2.9277071362779163
   232   1      4.3292788077221607      15.650867696980296      4.3817941372721618
   233   1      2.7910631142349756      17.044863447840093       2.803219190805919
   234   1      4.2766561706791686      18.554918465012854      4.1142640801061923
   235   1      2.7646775428511665      19.996666358896764      2.8521985681325748
   236   1      4.0952172281849437      21.560536546799977        4.40333512056689
   237   1      2.8421510747788159       22.96337240711253       2.908980314675464
   238   1      4.2017252245737158      24.381365739822915      4.3431294012688531
   239   1      2.9610199656185334      25.850943911118158      2.8355482673639014
   240   1      4.3832924797500041      27.416191598542838      4.4390444552795332
   241   1      5.8433502193919198    0.034968303880282443      2.6790085255329799
   242   1       7.096370312183371      1.4009518302779618      4.2840896923880454
   243   1      5.8304380114194725      2.7833520544375903      2.7680557352932849
   244   1      7.1370364307352805      4.2752866603068105      4.3205241749252101
   245   1      5.6767153517555888      5.6614500355203941      3.0654809593594918
   246   1      7.2419597019432915       7.079372600792591      4.3745909830511645
   247   1      5.7485547603464351      8.6132079919969922      2.7973754222681699
   248   1      7.2283294653709742      9.9450171319408618      4.3392292138626214
   249   1      5.7776328259698104      11.461446861106449      2.9527942417892534
   250   1      7.2272762456549495      12.906097444570387      4.3384108577962799
   251   1      5.7724097937998282      14.153859408415892      2.9782178902781502
   252   1       7.168173815675666      15.595899419096733      4.2781303788722562
   253   1      5.6739489004439339      16.986435004991659      2.9141418976956124
   254   1      7.1624765871192926      18.506277168593577      4.2561861356331798
   255   1      5.6406833409455981        20.1480630709063      3.0648311666111376
   256   1       7.373456724056461      21.432066443611212      4.3379972516799032
   257   1      5.5594989562110442      22.767670041586154      2.9490398611680795
   258   1      6.9799387589021515      24.404423228245427      4.3306021935417531
   259   1      5.5311927229190045      26.106011515075956      2.8576417966487035
   260   1      7.2723266092980747       27.21321860009909      4.2290314307988695
   261   1      8.6828250352966112      28.574313082062336      2.8896911010184425
   262   1      9.9860551775793613       1.558645204346373      4.3312908437214652
   263   1      8.6239716697145248      2.8611929787823098      2.8666973037023906
   264   1        9.91935441623313      4.4191821192878269      4.3193833166335542
   265   1      8.5407817889745896      5.7133982954024933       2.927335556432884
   266   1      10.017223848986822      7.1059951067004237      4.4500838870352881
   267   1      8.6849846209610568      8.6527633246155968      2.8761948208700807
   268   1      10.162027361447588       9.933513275268826      4.4715255419627828
   269   1      8.6918882707419769      11.455310954468883      2.8578533330506719
   270   1      9.7840541863194588      12.948043163013102      4.4063688544097692
   271   1      8.6322863613728504      14.361291450554404      2.7987773662634479
   272   1      10.051826402032862      15.681129583815681      4.2581046538900971
   273   1      8.4770153079000785      17.065396123402849      2.7727684854632666
   274   1       10.00921000121499      18.693612195547228      4.0916394675025938
   275   1      8.7716750782138142      19.992547507687295      2.7717567001183281
   276   1      10.101326405825132      21.562509914069413      4.1537428912878314
   277   1      8.5132932845776352      23.127485096792721      2.9418851806854818
   278   1      10.128405562362817      24.410178521377777        4.23341462511116
   279   1      8.5807637494463904       25.71178187297965      2.8864364966802114
   280   1      10.270593653928884      27.286276088536486       4.329438568618758
   281   1      11.498001773658462     0.11674978207083789      2.8558321928948889
   282   1      13.044941381596379      1.3291416511696881      4.1995681436560188
   283   1      11.490631121512527      2.7533503802425106      2.8279862406757821
   284   1      12.662619899110245      4.3201465343313847      4.1277044150937474
   285   1      11.378596744937214      5.6774470214458308      2.7106186157414971
   286   1      12.867661936273118      7.1837294944437025      4.1477257219736243
   287   1      11.477540615576121      8.5384333505922729      2.7671138479286235
   288   1        12.7240514089849      10.193702882148205      4.2093860659253837
   289   1      11.330102633514914      11.557217262170136      3.0848884106792944
   290   1      12.925638677737357      13.067428627869734      4.3174699980562279
   291   1      11.464302340335076      14.326705392616503      2.9412620170562249
   292   1      12.832758060496786      15.755184240688575      4.4015465789447648
   293   1      11.463017084829126      17.268557282150017      3.0418117077694551
   294   1       12.96312023772041      18.773144150249383      4.2491338357938711
   295   1      11.547340548654093      20.222832691436821      2.8798231516183579
   296   1      12.982262814869033      21.525368160802838      4.2166839353213073
   297   1      11.486644520641603      23.025036857753971       2.865324568177174
   298   1      12.812296643464583        24.4350996517121      4.2726381373303113
   299   1      11.627543591794911        25.8587975382762      2.7966000582982242
   300   1      13.053850555583194      27.347804364436492      4.3405566033746901
   301   1      14.444774649647954      28.640501369335457      2.8199951352273489
   302   1      15.643415821795918      1.4216444675470949      4.3049107072855763
   303   1      14.456435587749487      2.8633999221663671      2.9055525507511257
   304   1      15.782227983624715      4.3359581989589842      4.2921647729656938
   305   1      14.365308785873506       5.725075986204657      2.7614183843383335
   306   1      15.526547937981265      7.2707614096700208      4.4311988353465939
   307   1      14.152068562618604       8.693308036194896       2.725143616183106
   308   1       15.57432498992744      10.079889568191945      4.3480371002188924
   309   1      14.263208455423991      11.567921742965767      2.8778830782971569
   310   1      15.672534038868962      13.038970833301201       4.130850031698321
   311   1       14.25577187964454        14.3011116847221      2.5455551959958362
   312   1      15.666158626285048      15.775424334082784      4.3166293554030721
   313   1      14.463880578152057      17.334451929269772      2.8852838412112525
   314   1      15.918080380523413      18.696300660765125      4.3706686111939259
   315   1      14.350711205286199       20.03106773834347      2.7635317596282789
   316   1      15.794069097086281       21.50345898147992      4.3353237998031302
   317   1      14.192108128053636      22.882924822974246      2.7958408799195222
   318   1      15.673420021423999       24.42327095097691       4.373813500915694
   319   1      14.360494269154165      25.971447353338828      2.7724057950392402
   320   1      15.859425644666288      27.392683736361423      4.2954577320142304
   321   1      17.316428120550771      28.676915265514427      2.9013415526078412
   322   1      18.799403555209416      1.5005827362655286      4.4163228266245609
   323   1      17.198371703667569      2.7371568147116823      2.9134951112828773
   324   1      18.605404837651864      4.4418048461752049      4.2078687602894727
   325   1      17.265558936957966      5.8991883940030352      2.9888442243289308
   326   1      18.645686317588996       7.292008324911512      4.1788221401887453
   327   1      16.921799541932103      8.6749635736663002      3.0272731098482373
   328   1      18.611407558522174      10.166876195799663      4.2109534779163553
   329   1      17.123667662883214      11.686424501186325      2.8600675578081001
   330   1       18.50122821950303      13.068325663328503      4.3621690844718142
   331   1      17.098827373469589      14.481171816628336      2.7134138293629904
   332   1       18.51125387105656      15.694455754725665      4.2979747098535546
   333   1      17.082432819301722      17.139343179504856      2.8919078894620882
   334   1      18.653432969460496       18.56517725932078      4.2666070700706085
   335   1      17.290225564420041      20.224513729780863      2.8303610719887393
   336   1        18.6814377864448      21.459141539360424      4.3269202691153028
   337   1      17.215727759954838      23.079184693694508      2.9693638309392152
   338   1       18.61005888604149      24.673365226503513      4.3296552001173927
   339   1      17.228187746437751      25.815351067944977      2.9063740164178373
   340   1      18.774086171898354      27.354190624272313      4.1267772733172938
   341   1      20.144952970968959       28.69222226063096      2.7803438498067514
   342   1      21.511087121462324      1.5153215414129126      4.3231975156281681
   343   1      19.982322584783351      2.9586504522066401      2.9169434639505636
   344   1      21.613924503666361      4.3923373008750097      4.1087620476086144
   345   1      20.073333196916934      5.6959308636131754      2.8433752186695749
   346   1      21.337292854266284      7.2319853779828334      4.1946250023394791
   347   1      19.838119410916136      8.6804965051002227      2.8646198262675386
   348   1      21.436538832181927      10.046218971515053      4.3853095188836111
   349   1      20.064391008555987      11.420893095092669      2.9379004503848352
   350   1      21.481321361030236       12.93825386330078      4.3588851800078574
   351   1      20.037765275537627      14.317618713721579      2.9774774014413379
   352   1       21.45363047790768      15.590242710681249      4.2111328309954965
   353   1      20.083882836578884      17.028135113431947      2.8174817273842319
   354   1      21.696726682979858      18.519917670345173      4.2401841849082311
   355   1      20.210681329508834      20.101744165030031      2.9844594400808351
   356   1      21.625710890066284      21.417607064258853      4.3127114256330188
   357   1      20.196281496254755      23.049159981385806       2.869717518810353
   358   1      21.690281218322873      24.346105739686347       4.392066912293318
   359   1      20.087354076947808      25.736663222173952      2.8033000429865869