dump/Fe_750_0/steps_21 (written by ASE) 

2000 	 atoms 
1  atom types
0.0      28.699999999999999  xlo xhi
0.0      28.699999999999999  ylo yhi
0.0      28.699999999999999  zlo zhi


Atoms 

     1   1      28.676864135169808      28.583181131144364    0.048964241861745091
     2   1      1.3790537379160248      1.5184841693221061      1.3729913400042384
     3   1   0.0047648727504926037      2.9824017872647715      28.622452782910003
     4   1      1.5062749077272091      4.3211088271476124      1.2960450611539949
     5   1      0.0915761307877936       5.753567777080888      28.603980269538368
     6   1      1.3750022238458084       7.315236300768265      1.3608781316276564
     7   1      28.634807159707535      8.9819305098812645      28.606101488066102
     8   1      1.5265910165320631      10.147174045545542      1.4205778876166055
     9   1    0.004814288263778701      11.589072555107078      28.605253520554445
    10   1       1.417048527549764      12.979727890289858      1.3575433155270173
    11   1     0.14416474620694791      14.524494180776539      28.413864617109315
    12   1      1.4448891665988879      15.732245460700481      1.4478021714619436
    13   1    0.047232125366647802         17.182160413614      28.671919366522392
    14   1      1.5246382605552427      18.563553524615937      1.4356830826656841
    15   1      28.555459343342935      20.007660005650838      28.646386579923334
    16   1      1.4149783493652335      21.395246750478492      1.3054896609494666
    17   1      28.657104773462326      23.069285535909689    0.020347519438257668
    18   1      1.4977452321436335      24.225463564571758      1.3453571477811017
    19   1      28.677937601462933      25.943630301505259    0.042597245274612214
    20   1      1.3610711809126221      27.329144048129091      1.6562384204211742
    21   1      2.8087496237870395      28.657870749163152     0.15990577105062578
    22   1      4.2032122639423397      1.4130864981021423      1.4132253255751939
    23   1      2.8145548282626702      2.7202383365365694       28.54296297784613
    24   1      4.2834260694987192      4.2696635985201796      1.4496533487327501
    25   1      2.9338717253027493      5.7967098913301109      28.509192141467526
    26   1      4.1743166360347033      7.2533693470750595      1.2423769836963063
    27   1      2.6873540306745807      8.7088792048247026      28.549365701775429
    28   1       4.362594574925013      10.132167575566458      1.2855604061338803
    29   1      2.8559018307539894      11.514204503874211    0.037670314963361443
    30   1      4.3328128900930603      12.906967391825866      1.3400093112580733
    31   1      2.9719232824401791      14.364272522108468      28.629810700409081
    32   1      4.3907742441217232      15.723841303477649      1.5262814548060635
    33   1      3.0684304307597081      17.280560581756529    0.054717344730227102
    34   1      4.2310546410980905      18.728933840331571      1.4451938942988825
    35   1      2.9293540901563628      20.107832770107507   0.0036772943751429881
    36   1      4.2096696785480434      21.509976646412976      1.4867528135479799
    37   1      2.9686691356200132      22.977222191458957      28.497434217988332
    38   1       4.283746630618305       24.45625234060995       1.387357585275242
    39   1      2.8143226827672265      25.903196901584565     0.14370945893339226
    40   1      4.4402052386878799      27.335970522886136      1.5052565185905891
    41   1       5.766471496145785      28.655041077842938      28.619581926827099
    42   1      7.2043870057118751      1.3215256874120205      1.3612061726431772
    43   1      5.7266132758966704      2.9168838393392025      28.507299143259047
    44   1      7.2177273368876511      4.4058556483002862      1.3476172558454786
    45   1      5.5797445131843642      5.8444254936859714      28.474118634720686
    46   1      7.2505515952060478      7.1381628723008719      1.2497261087108764
    47   1      5.7869686408578431      8.8507983988360124      28.588697428815298
    48   1       7.302151334489956      9.9310539757504817      1.3593059640454395
    49   1      5.9439206799116917      11.539411860082776      28.693045467300028
    50   1      7.3226253830658026      12.947085710849635      1.4229141330457551
    51   1      5.7454129079993983      14.393048070254363      28.681606424774845
    52   1      7.0458942328099132      15.797559240251221      1.5675081605586125
    53   1      5.8729797311602994      17.309886741488526     0.10156403376689707
    54   1      7.0395004395680436      18.754408821503514      1.4458627946695615
    55   1      5.6111949460187924      20.106091590061602   0.0047264141979326381
    56   1      7.0769269720562278      21.577496189022202      1.5579278315326073
    57   1      5.6081824946812047      22.869725446726264    0.052976579423671025
    58   1      7.0875662858024917      24.260703539821399      1.4458598024097107
    59   1      5.6399643600320015      25.912392678205812      28.651729895043449
    60   1      7.1815593500643233      27.225496531140639      1.4006589752926286
    61   1      8.4908441258555101      28.609787560725994      28.651027118141279
    62   1      10.033617664036351       1.293101362565902      1.2473281164916226
    63   1      8.5029779602628235      2.8233110811731441      28.613757751126119
    64   1      10.045993722870548      4.3313389128352684      1.3999822529984729
    65   1      8.7126569542683932      5.8271268571255623      28.594542164158582
    66   1      10.176545233926724      7.1778993909453819      1.3659958585456695
    67   1      8.6942010536667844      8.7082916670723005      28.486171538962854
    68   1      10.205628028582099      10.019278546872869      1.2709090981583686
    69   1       8.747436370238125      11.571079820110002   0.0083885608171499499
    70   1      9.9350748691565673      12.914482436468038      1.4766878336153237
    71   1      8.5934982202539629      14.552917224198815     0.10951607427564335
    72   1       9.900402107657321      15.901289585875373      1.6323676979732906
    73   1      8.7806227116798166      17.168138357907058    0.027597458967386496
    74   1      9.8966579730333581      18.718803932993335      1.4314038196024845
    75   1      8.3442849887713813      20.141587824388932     0.13823649897386742
    76   1      9.9372418617865517      21.410155372930696      1.5404200046561984
    77   1      8.5906466857066288      22.941421751119439      28.627870916841889
    78   1      10.077989872077607      24.291323291250993      1.3531097703314559
    79   1      8.5574095683220541      25.767618839273496      28.664222584531988
    80   1      9.9775142111580024      27.308835123557159      1.2710240762195315
    81   1      11.512007358336833      28.680232179924889      28.597831006131887
    82   1      12.893714170359742      1.4345007146450028      1.2673854670449356
    83   1      11.515356276605647      2.9588585721733724      28.560324398689392
    84   1      12.903931112604413      4.0328618776482426       1.323176054097438
    85   1      11.541319476879401      5.7697314108120956      28.564226941625833
    86   1      12.844112406250062      7.1231063849207974      1.4095627365936829
    87   1      11.469951154262109      8.6176017603529225      28.443118406360671
    88   1      13.027491451577605      10.082924932393572      1.3166749061496703
    89   1      11.502382896890937      11.604772552103221      28.615736080049718
    90   1      12.805106113530755      12.969671747530786      1.4450931273903396
    91   1      11.328389772502977      14.337034398030264     0.15239356679742272
    92   1       12.77868667885105      15.703928861528977      1.5574938104339722
    93   1      11.458250120495268      17.439727102801385       28.66229282172845
    94   1       12.90525510733328      18.636213539288896      1.5260979738844054
    95   1       11.42020332577161      20.020440401930671      28.655660064250299
    96   1      12.945467499707442      21.495016883767367      1.5309663726459919
    97   1      11.380833036292882      22.844132057703249      28.692264864421702
    98   1       12.71059255781193      24.416084616223483      1.2870490027318733
    99   1      11.283668345758766      25.911759076422545      28.624966593811578
   100   1      12.873300007769341      27.141809264392002      1.3199299796672561
   101   1      14.384135311516903      28.488872075424467   0.0062599803001034951
   102   1      15.741589984719541      1.2851406476293605      1.4727999953922228
   103   1      14.508349561403458      2.7349219435864156    0.064583374082769818
   104   1      15.720659044979341      4.3639747054053633      1.2703303622955204
   105   1      14.129626357066856      5.7446424667452103      28.616239501905415
   106   1      15.587840632993647      7.1311024915132011      1.3247700342777431
   107   1      14.184833514006113        8.63362258707315      28.528977630949953
   108   1      15.673562202187055      10.070440291360681      1.4340587484288898
   109   1      14.276444993814627      11.525036495783381      28.592737099257196
   110   1      15.637597883177518      12.927198978500815      1.3276512306531243
   111   1      14.228014950079496      14.430917262749988    0.028777810697351899
   112   1      15.667445381666633      15.906457542554522      1.5394213401070715
   113   1      14.243439016258241      17.128760862716291      28.687234647066091
   114   1      15.791936061342675      18.628816152811183      1.4772917114074509
   115   1      14.277014445224493      20.079163752608405      28.643680479154714
   116   1      15.726627848218152      21.500120062777921      1.3764168427475059
   117   1       14.44979536212643      22.942423364327482      28.671534602393734
   118   1      15.970319185704801       24.33910445686276      1.5446029656724927
   119   1      14.414490726950046      25.708064974380683    0.035185166248982096
   120   1      15.785699476479813      27.152786453087167      1.5508823944315517
   121   1      17.185236951011674      28.582404525002222    0.065847155311632821
   122   1      18.650118331413005      1.2601981274334302      1.3239406847691715
   123   1      17.209447450673689      2.7688013425493545      28.695013681151654
   124   1      18.430151968819001      4.1745219335416044       1.496145449462869
   125   1      17.004721576186558      5.8909090986142187      28.559633223443758
   126   1       18.62884608918856      7.2594922826603137       1.331480038860207
   127   1      17.094633657705359      8.5431865394339823     0.18600645287432374
   128   1      18.535808673453246      10.016331342640978      1.3499617034788676
   129   1      17.209589978841425      11.615947805994821    0.090598665499828715
   130   1      18.683064474216597      12.973614329119831      1.3119661676334433
   131   1      17.140766468772121      14.392643322209906      28.697937086654537
   132   1      18.622031811414267      15.882105740941817      1.3652132485581878
   133   1      17.130783907907414      17.122930414981504    0.050239353408414858
   134   1      18.801444623884969      18.693788735742903       1.421779840028262
   135   1       17.19348560704368      19.964838627662463      28.597208515139531
   136   1      18.622349934338668      21.548946890682117      1.3842170022437339
   137   1      17.230796623002263      23.016195331258611    0.063496167041557874
   138   1      18.764872544134409      24.440619447090036      1.4616943396839235
   139   1      17.137121706073962       25.83192102251034    0.059058757619152399
   140   1      18.660873187236682        27.2423717003024      1.5755973517420443
   141   1      19.947338664793289      28.561040504318246      28.664390632430045
   142   1       21.44674780107276      1.5152263413090623      1.4331830450766911
   143   1      19.984590714350912      2.8356958476048733      28.652787306091426
   144   1      21.394791063748599      4.2149317803529103      1.3223589038033647
   145   1      20.019173225527052      5.8574699473735592      28.638759598227882
   146   1      21.459799198308641      7.1213764042234322        1.45764816257938
   147   1      20.127605633950353      8.8118422580401887      28.621284009559677
   148   1      21.550163657873181      10.056367262307489      1.4032054589388516
   149   1      20.209187218418815      11.535047940233431      28.689684520897387
   150   1      21.675814815290774      12.978052713444418      1.3883879489621564
   151   1      20.157933852176161      14.452609911036232    0.068232791541527199
   152   1      21.629227187695939        15.8594187981997      1.5347225481042976
   153   1      20.031071427314874      17.303697378113075      28.655082702902575
   154   1       21.48108549362528      18.801214043302807      1.4250409908011983
   155   1      20.175501107676574      20.107172935525902      28.628012128580728
   156   1      21.508691740318337      21.647935702885736      1.3834403472703447
   157   1      20.129659368363818      23.065720642169818      28.629882114828661
   158   1      21.539240642331603      24.377379446155544      1.3777924259638878
   159   1      20.045614696881753      25.816329879945638    0.080464977981523703
   160   1      21.575779641068355      27.412552949630463      1.3850253579047496
   161   1      23.129340145325013     0.26796770873053383      28.690146496846314
   162   1      24.437757024231502      1.5562848793335096      1.5059189899551824
   163   1      22.901149111207619      2.9140652851152842   0.0006681936553377465
   164   1      24.388357595859841       4.392550933170523      1.3741571106439332
   165   1      22.897346748400473      5.7307831579105271    0.058171397609191898
   166   1      24.318583851744332      7.3380445193375472      1.5640652582621781
   167   1      22.870357061757051       8.588875406283055    0.063908479632345833
   168   1      24.392997296244719       9.958957550532384      1.3569719103125288
   169   1      22.971720767733636      11.389303495436385    0.092348179384850779
   170   1      24.416705148045551      12.983770898162858      1.3111835884893264
   171   1      22.955234174738678      14.549003698184487    0.051077985464462516
   172   1      24.453056251171265       15.83776805820802      1.6073312249454819
   173   1      23.051905045279693      17.300029316658044      28.693836865305215
   174   1      24.462739263773052      18.765547979859296      1.5584055212130248
   175   1      23.074844197858098      20.057225343156905      28.621378519301402
   176   1      24.418652528297748      21.585900399990059      1.5093289678005801
   177   1      22.897149785528843      22.881828118757792      28.577331048286741
   178   1      24.492303156380508      24.315571187991161      1.5604123314922385
   179   1      22.987949950954917      25.665291076809961    0.037818425757177601
   180   1      24.480094387538781      27.314017381175017      1.4906808230292525
   181   1      25.768243679596704      28.684024855148838      28.522986481326768
   182   1      27.274275648840369      1.3781936833441464      1.4555444530803128
   183   1      25.780545890343294      2.8562368346434583     0.18684974214784242
   184   1      27.261003105815895      4.2678934016683323       1.389669037667624
   185   1      25.850207443850767      5.7534871642568772      28.654810839174125
   186   1      27.150322812873508      7.2217024970010684      1.3185117250889209
   187   1      25.884599554169949      8.4337851289095624      28.698187690441671
   188   1      27.205717324452799      10.015330286434171      1.4929358374815473
   189   1      25.747804674032221      11.607547113131426      28.598201959269009
   190   1      27.220508392181426      12.895459757479598      1.2187434091570826
   191   1       25.81731904265693      14.405772932843361      28.589553007332459
   192   1      27.405603464936625      15.800110576345279      1.3656951966196975
   193   1      25.776693672270795      17.330565822660297     0.01927787949562115
   194   1      27.219259410752425      18.594535879075142      1.4129745964422327
   195   1      25.980355442130588      20.156931596216968      28.649586345073377
   196   1      27.366824026938705      21.621104488543413      1.4685639205302197
   197   1      25.845152078247438      22.919896144258082     0.01443535971955044
   198   1      27.329608454835622      24.497840633052203      1.3859239371663874
   199   1      25.846091756857891      25.670573351904235    0.034509242511808293
   200   1      27.192746405622835      27.186498940060975       1.454939898727752
   201   1    0.059895977079795271      28.690801437390636      2.9715312776678373
   202   1      1.5443670462876875      1.4680492383309904      4.4003952318896058
   203   1    0.084867782881929477      2.8898274895099894      2.8288208695483386
   204   1      1.5187348503416391      4.3934738859985236      4.3907615318202078
   205   1   0.0083591446756150576      5.8838470252688131      2.9939542535713652
   206   1      1.6029489024957582      7.2339096605457236      4.3999883044138155
   207   1    0.055226327504500135      8.6966303443602548      2.8637223105358651
   208   1       1.485363628434119      10.103766654833427      4.3482260090930147
   209   1      28.690729783602993      11.472336884748136      2.8294714886919889
   210   1      1.2865508418803198      12.851026967113325      4.3497270627688174
   211   1    0.061006699815721856      14.305171141492055      3.1074362333361081
   212   1      1.2982995448739885      15.775193210291331      4.1603822289267463
   213   1      28.652295841675841      17.220120811908103      2.7635396880858378
   214   1      1.4100174782826127      18.571827225400909      4.2293192928298584
   215   1    0.015467118186917586      19.962387439306116      2.7851657681471682
   216   1      1.6232118359215304      21.358456760418996      4.2736137357284525
   217   1      0.1959167705798352      22.758819809741297        2.90251761632712
   218   1      1.6643720811904841      24.170546362108254      4.2521321338937801
   219   1     0.19758477099698174      25.617697223826234      2.8596153235838506
   220   1      1.5708672926957119      27.281579598849067      4.3279058701603388
   221   1      3.0195097212181814    0.019751015937868214      2.8644879978823941
   222   1      4.4940791261130242      1.5384540288865773      4.3525709811325575
   223   1      2.8451577778406207      2.8906364558813644       2.945925492800201
   224   1       4.426743226597015      4.2185344277963281      4.3726269105647546
   225   1      2.8928699903662349      5.7201444667871453      2.7426923451419492
   226   1      4.3746231103058051      7.2038264287042857      4.3240680119953518
   227   1      2.8066293382979781      8.6983677814645688      2.8646742280268094
   228   1      4.2343536182993935      10.036825019123922      4.2307871579724043
   229   1      2.8873079512864108      11.662109527946864      2.9081716314901183
   230   1      4.3961807628612801      12.742148977362795      4.4379567556907134
   231   1      2.8812857050265528      14.402334410875643      2.9621889193240807
   232   1      4.4492223573492646      15.777078758734337       4.364592782718189
   233   1      2.8954656450334149      17.135851176403147      2.9023448523667525
   234   1       4.403074291346444      18.394433741089735      4.4983605648683422
   235   1      2.8813294646342835      19.937962518266822      2.8520666706508573
   236   1      4.3785145083125245      21.344310419214676      4.3136570401276773
   237   1       2.934424896414991      22.761899365037991      2.9974847264562019
   238   1      4.3408116456159069      24.473726121929772      4.2286937249419347
   239   1      2.8650347442661102      25.772246273572545      2.9335939671440951
   240   1      4.2944102848786505       27.30236067474846      4.3132580108501317
   241   1      5.8544978209171266      0.1068781965177438      3.0812791559725605
   242   1      7.3712386689793572      1.3804883784614281      4.2501793685885687
   243   1      5.8181486979921697       2.902795491669651      2.7599832481097577
   244   1      7.2570045039300064      4.0819059070382773      4.1852852777246961
   245   1      5.9188571911704928      5.6995274323688685      2.8074344454998599
   246   1       7.205138931302697      7.1916156809473586      4.2991850562020923
   247   1      5.7865339738267743      8.6715864128862776      2.7701836103805344
   248   1      7.1251611138394404      10.067974628395941      4.3649718472261192
   249   1       5.878793702476357      11.551185946594128      2.9734763854691919
   250   1       7.173006346172607      12.820641011888091      4.4774851704802714
   251   1      5.6641151072489233      14.301662355019291      3.0200374004939143
   252   1      7.2134506203906694      15.775224880455337      4.3304376355770238
   253   1      5.6928289593414352      17.270616093851732      2.9109127446502052
   254   1      6.9683074976310655      18.491212733299804      4.4746874129386924
   255   1      5.5997426957569134      20.005404339347375      2.8799616600242683
   256   1      6.9979780774905223      21.628311260717464      4.3613445364883834
   257   1      5.7063978588937037      22.937676677441782      2.8952166222501234
   258   1      7.1202565226593446       24.52737511612203      4.3583922358155647
   259   1      5.6459600693798073      25.901412133691931      2.8272688442294669
   260   1      7.3060738143201824      27.255097068297768      4.4182794862136294
   261   1      8.4896290177979576      28.538753772706276      2.9091031141870016
   262   1      10.050119231763546      1.4121685783708466      4.3562687032051421
   263   1       8.581624161381038      2.7416734629617729      2.6709728529862669
   264   1      10.093192761588499      4.1770631644973379      4.1181821973052122
   265   1      8.7687455918975044      5.7894225019794616      2.8610309520616513
   266   1      10.178698414025146       7.147001929793583      4.2655638537323233
   267   1      8.7364077281097554      8.6734015380786165      2.6537032993526726
   268   1       10.14819699429259      9.9815877698089892      4.2137593298425449
   269   1      8.4900588933957337      11.266367714455257      2.9205123321970743
   270   1      9.9638398411412457      12.855884514097461      4.2808666569622558
   271   1      8.6729379220657261       14.33827895769616      3.0964863135942595
   272   1      10.050801974393325      15.757639504401844      4.4032127189096473
   273   1      8.3991197557778285      17.216900315351563      3.0680615141133791
   274   1      10.005862585673519      18.439712596997737      4.2839578471994297
   275   1      8.4462436141856276      19.943864769255434      3.1030322792438798
   276   1      10.017476502020715      21.547229264355767      4.3094181918491685
   277   1      8.5493697551654648      22.865303789195561      2.9387350357575692
   278   1      9.9445102593512491      24.333000514831927      4.2469809486731744
   279   1      8.6830973564745939       25.71453058083771       2.788968089581862
   280   1      9.9010389814017739      27.320912641662037      4.3744278269373895
   281   1      11.426089520392685       28.68880535278771      2.9084528955307043
   282   1      12.837138088709883      1.0899823069195245      4.2773405159206996
   283   1      11.474943421814267       2.606833673365871      2.6736471022323487
   284   1      12.823953067710072      4.2125392438820102      4.2377496334781517
   285   1       11.44589151037502      5.7429280839413472      2.7532435522164849
   286   1      12.919539492452834      7.0655295165136494      4.3603655771554486
   287   1      11.614192072077044      8.5293883310458867      2.6220288180535465
   288   1      12.955000801934782      10.162621095309806      4.3579903748542108
   289   1      11.492350381104798      11.388220681886068       2.893310123547467
   290   1      13.177253028002916      12.813775048055151      4.2951188678263303
   291   1      11.532439617632441      14.345626371466844      2.9261050944814184
   292   1       13.09367119270531      15.776131598984838      4.2781336115687365
   293   1      11.462598258774344      17.079494853216978      2.9668809289516522
   294   1      12.946135897210247       18.68582342759548       4.468827837958254
   295   1      11.427501014616546      19.968256184586753      2.9561392995736591
   296   1       12.85358816781773      21.633579330127585      4.1074449232301369
   297   1      11.407453761276205      22.842580468410301       2.921025800985805
   298   1      12.927009357462481      24.384569034826807      4.0454517106874253
   299   1      11.233661163974419      25.867783601565694      2.8294700861721487
   300   1       12.81457095339562      27.173583390355383      4.2158600593434121
   301   1      14.279975773227633      28.645092017579913      2.7520534630997515
   302   1      15.781539202038493      1.3269619857182069      4.2678107727395771
   303   1      14.333460128850659       2.798959877571928      2.8894901352112945
   304   1      15.824961342286844      4.3696017078077816       4.181008578050764
   305   1      14.025982151862177       5.578197242507267      2.8092641913016774
   306   1      15.823423069108168      7.1155536083314788      4.2916667691630668
   307   1      14.346885275620158      8.7345161560161575       2.964897529862542
   308   1      15.926788937269308      10.002364289690279      4.2912675240080791
   309   1      14.409495856114184      11.603354665201405      2.8363374143630828
   310   1      15.920913574450758      12.997145197504578      4.5019555687499384
   311   1      14.327304021509509      14.260755188626877      2.8957156937819502
   312   1      15.823712218364268      15.745187363732686      4.4163498470331461
   313   1      14.420591008046802      17.345942960404411      2.9716231968280051
   314   1      15.955154178677374      18.495839710354868      4.2968621880812767
   315   1      14.416325003829009      20.013277583423356      2.8943488275665086
   316   1      15.908158806977042      21.500172250852835      4.1658280247116402
   317   1      14.321797607688099      23.007666363170177      2.6736278060945198
   318   1      15.765030430638534       24.30412445134359      4.2116992874537154
   319   1      14.178134880666907      25.732131712430753      2.7489504517199181
   320   1      15.764364123733731      27.215684148718584      4.3076201899215532
   321   1      17.343778880359618    0.076564952087756211      2.9455961843550487
   322   1      18.716674086142987      1.5539852160984322       4.314699699820423
   323   1      17.231659575646404      2.6399366223807541      2.8171567662709656
   324   1      18.737058261217953      4.1907623151978335       4.355538021080064
   325   1      17.257850495143234       5.738239566335305      2.8577938740694644
   326   1      18.675758259476861      7.2721056684271357      4.1763172026029558
   327   1      17.095186935087415      8.6877618732970916      2.7360458764376396
   328   1      18.595393814065442      9.9707671691180071      4.2669057218366913
   329   1      17.127251314697098      11.484486555586621      2.7235828129661388
   330   1      18.487447987435417      13.049381578305503      4.2700178992098357
   331   1       17.07347605862094      14.514025887112082      2.7638360546695804
   332   1      18.642109643592764      15.651265149184093       4.376362691661793
   333   1      17.222284067991644      17.218023084964532       2.820454754481251
   334   1      18.670704236905802      18.658946622003807      4.3613485494929485
   335   1      17.331551449563111       20.19590574461062      2.9890558722407783
   336   1      18.797552742828668      21.638805562812969      4.3306476529245757
   337   1      17.326697782747914      22.981096718729557      2.8866137092403394
   338   1      18.823204621072911        24.4659360121628      4.3830267492667634
   339   1      17.412765134276558      25.744122572546011      2.9584218196277909
   340   1      18.630549299571889      27.198042934553879      4.4101238098405977
   341   1       20.18133749204279    0.050101910219348407      2.8566052265153856
   342   1      21.643308351520869      1.5437845283229765      4.1739262182387638
   343   1      19.977642902093027      2.9056902522505093       2.718602901798147
   344   1      21.580451293556816      4.3723209924472881      4.3751847639533414
   345   1      20.019922318543323      5.6525204223282319      2.7529141984345644
   346   1      21.482701471179983      7.1900703760461155      4.2757794508043174
   347   1      20.115544412095016      8.7075824304462976      2.8745377090870994
   348   1      21.520518022268803      10.048453121053063        4.28742596111229
   349   1      20.125147162543549      11.535605328951419      2.8251020439259373
   350   1      21.639566498222564      13.009893544546875      4.2362847310311222
   351   1      20.140336081902916      14.405808906780724      2.7521102698518232
   352   1      21.540316369849879       15.59211246235582      4.4060302806741598
   353   1      20.069842506473979      17.152068975682329      2.9091470190257711
   354   1      21.528650675713354      18.735317427770823       4.386059326139284
   355   1      20.037810170336435      20.131974250330806      2.8301143511194691
   356   1      21.678500107358481      21.609209363740909       4.349469053583908
   357   1      20.158238137030967      23.027101381354367      2.8287929822464224
   358   1      21.749168042517468      24.404024044558522      4.1965659363514103
   359   1      20.158599951722724      25.797379567763922      2.8300709881914137