dump/S5_s00_n130_r1024_400_20/steps_1 (written by ASE) 

1559 	 atoms 
1  atom types
0.0           114.158223526  xlo xhi
0.0      7.2199999999999998  ylo yhi
0.0      22.831644699999995  zlo zhi


Atoms 

     1   1        2.34312119282695      1.4789689230838814      4.5346346328487099
     2   1      2.0627818793211756      5.3211230635281517      4.5058783263559112
     3   1       7.808061182429241        1.73699717513333      4.4159744543197101
     4   1      8.0399437506436655      5.2667685229324892      4.5828261005842066
     5   1      13.721626694778729      1.7474086424213626      4.4765937087635432
     6   1       13.45977804068286      5.2707015248706242      4.5066632776956368
     7   1      19.381097423344507      1.7171317392443077       4.810537349000767
     8   1       19.32582407724577       5.356236343842574      4.6589967729798305
     9   1      25.088470514819683      1.6549673675398195      4.6099248825541901
    10   1      24.943349908621311       5.264070330263066      4.5590259592811675
    11   1      30.973014638603978      1.8175031459245572      4.5960659130737405
    12   1      31.035339378199659      5.4180397480335172      4.7000396808091187
    13   1      36.488979451513295      2.0140287998980884      4.5546789720875509
    14   1      36.602991163409328      5.3813019717698394      4.5826562562803632
    15   1      42.522400072752987      1.8267194822408803      4.6647525939634757
    16   1      42.365904446357213      5.5654774774506182      4.7734917468810139
    17   1        48.1021761473989      1.8976173199575486      4.5700830203915661
    18   1      48.117649470747054      5.4797610789585436      4.5748683958118335
    19   1      53.831243911306849      2.0573263120182834       4.634138141050693
    20   1      53.834977250427357      5.4570348151511059      4.5710985914266145
    21   1      2.3239674359186693       1.622102750786848       10.16910154284886
    22   1      2.2519648729373354       5.225919966225371      10.176777834054882
    23   1      7.8583933361328588      1.6110635442184746      10.381734479435087
    24   1      7.8055149094159111        5.28005335086179      10.353172358795144
    25   1      13.500301345390598      1.6499662327470872      10.369344996657409
    26   1      13.519372509944164      5.1732269596469154      10.462329483457925
    27   1      19.391651189115663      1.6979443338140796      10.424501344388183
    28   1      19.411869014396416      5.2985142552140161      10.290899837347904
    29   1      25.132475034740242      1.9013526950856412      10.442327609185918
    30   1      25.255361007363547      5.6352875479618012      10.333943267379038
    31   1      30.905137564158494      1.8812671610177547      10.451699124179193
    32   1      31.100284195590941      5.5732952227063315      10.430291007224485
    33   1       36.70162945877496      1.8000320040461122      10.337543469853303
    34   1      36.674875214341348      5.4005902675586182      10.422095425397094
    35   1      42.408912227352687      1.7823142598181834      10.164044130926687
    36   1      42.520403387981155      5.4685916744079899       10.28195653331454
    37   1      48.100821391785878      1.9588605891945035      10.211906519088084
    38   1      48.073956400004668      5.5256970966180496      10.292177598730591
    39   1      53.884119420037514      1.9000516242954197      10.161489698617771
    40   1      53.843940051795947      5.5149194312978098      10.284745724730557
    41   1      3.7404785467452784      3.4292741568904574      16.337709737594594
    42   1      2.0502174227919174       5.397619127392927      15.838904575905891
    43   1      7.6763620964745503      1.6633188958490392      16.046418088368455
    44   1      7.9349558109943708      5.3405384882799716      16.133779275221279
    45   1      13.710960034570963      1.6195232712334331      15.989705455524932
    46   1      13.718849684621672       5.067493550407141      16.015049259455644
    47   1      19.568687198995111      1.6511019967532248      16.022051047945666
    48   1      19.438362032665239      5.3671131182809964      16.088883703937938
    49   1      25.265264317656499      1.8439405039917396      16.102288387817541
    50   1      25.227955159638874      5.4810512584028297      15.988781478543185
    51   1       31.04197422085582      1.8680115627851703      16.020259454391269
    52   1      30.748629927097362       5.334689054292733      16.092448383507918
    53   1      36.596797636904952      1.9242709309696129      16.034604711341494
    54   1      36.723306801300446      5.4199603645528747      16.055123828985309
    55   1      42.511319811331603      1.9256068797720693      16.028770058700772
    56   1      42.298815595934478      5.5097218074371312      16.068459555548337
    57   1      48.118562488453023      1.6489459432049089        16.0423049271119
    58   1      48.029534524459578       5.426727009994945      15.902953801710053
    59   1      53.891765132845308      1.7032350629052144      16.072215139115272
    60   1      54.098835154288999      5.5527521194543565       16.09706033248202
    61   1      2.0557528650249015      1.5889791135330995      21.623101511862867
    62   1      1.9660365602189656      5.5800021604600456      21.694872851608388
    63   1      7.8965731155031138      1.7189192013967702       21.62812648835046
    64   1       7.869268260943703      5.1631885913157518      21.598001097405749
    65   1       13.87520382982645      1.7048073176785605       21.57821790010512
    66   1      13.549239901906729      5.3422433234059197      21.559773584541556
    67   1      19.580548148713362      1.7282312880884962      21.879310450138743
    68   1      19.400453883127565      5.3076944204581755       21.85390906249415
    69   1      25.219532349859954      1.7073321884636738      21.745348977071718
    70   1      25.229762282817831      5.2874226166596836       21.76612155588003
    71   1      30.873542901304813      1.5855194317935388      21.825206070543949
    72   1      30.845800366720422      5.3899977348063874      21.767381140369118
    73   1      36.538839224041752      1.7256808319690098      21.788782573625216
    74   1      36.618955192301186      5.4706951491553868      21.819635685220739
    75   1      42.525392688369884      1.9383103424683148      21.764896702510651
    76   1      42.399021152768611      5.5460794143447885      21.742279161073157
    77   1      48.107378453099578      1.7374522578917817      21.704849425715029
    78   1      48.050662243780145      5.3458202511001112      21.661945463415684
    79   1      53.825339190165366      2.0418492179391805      21.731141868008166
    80   1      53.792232148464073      5.5877942433064831      21.868344553007145
    81   1    0.069741451521079828       1.962509985914392    0.032496477237645781
    82   1      114.04141368295224      5.1859461080524731    0.025631906906136381
    83   1       5.585915718986743      1.7689119952498007      22.711198349689624
    84   1      5.6093026866824358      5.2565763506322618    0.068104750849613732
    85   1      11.601298652742303      1.6149360159255683      22.652747808050336
    86   1      11.509874617686847      5.3281458455588417      22.759070606039824
    87   1      17.101049046647425      1.6647322732238097     0.19753960743676363
    88   1      17.125022242016055      5.2503639877287478     0.25625809278418371
    89   1      22.856365937212697      1.7084525416544145    0.030097798856463027
    90   1      22.874858286408649      5.3536502836792392     0.13528343031519605
    91   1      28.514249116015172      1.6704437562128509     0.23252430998649729
    92   1      28.662939711508017      5.4776405202974709     0.17608881187701142
    93   1      34.335183563740635      1.9244891864689926     0.04379147407009322
    94   1      34.404160848233879      5.4276796124771449     0.17764594118322036
    95   1      40.173101384825216      1.6072812340921221      22.740164270540276
    96   1      40.030597950376141      5.4201261923091213       22.77737089737397
    97   1      45.821751968594626      1.9184997721145547      22.749401259863511
    98   1      45.774444661176219      5.6090042020274744      0.1254780086277251
    99   1       51.58392733075182      1.9069216220908252    0.021359473580687762
   100   1      51.505436444022401      5.3307785123288216    0.062097625978353506
   101   1     0.21521999372157277      1.8117160895191258      5.4634103197526791
   102   1      114.05214016246182      5.2177009858685697      5.6697588426709835
   103   1      5.6267797206632979      1.6542502575443863      5.5263039925020054
   104   1      5.6718945100631846      5.2285907440082999      5.6354918171687212
   105   1      11.267669548697796      1.5612522981018231      5.6387214003059354
   106   1      11.303588017131514      5.3442000139364083      5.9517398863143027
   107   1      16.976563848798602      1.6264468161072019      5.8918674333577945
   108   1       17.04981622557084      5.3679835811348822      5.9586840986385967
   109   1      22.829366045088662      1.7246813104083276      5.7253639504577798
   110   1      22.696916156393815      5.4042644512236127      5.7878019739282829
   111   1      28.775966786757987      1.6962685449121064      5.8731822491193668
   112   1      28.650865871361599      5.5266160065426737       5.740698734018177
   113   1      34.410596127761529      1.9311072058001968        5.77984735021949
   114   1      34.387749982706964      5.3015879931352838       5.761605624575421
   115   1      40.312928278712533      1.5154060629483428      5.7096013279393301
   116   1      40.218650957522343      5.5064475440336977      5.7584194560003858
   117   1      45.867412733755629       1.956948637309943      5.6643168191489037
   118   1      45.803876447083148      5.4541349051843362      5.8044373963578977
   119   1      51.534374565024557      1.9126977420594504      5.7200976984364278
   120   1      51.547143526139394      5.5660955779441013      5.6895464790728072
   121   1      0.1418766381032234       1.465739784194533      11.087951286964206
   122   1    0.033584598371014039      5.1958560890837839      10.875831969383915
   123   1      5.2761029569223483      1.7442748951492806      11.378945252321282
   124   1      5.6031993313593516      5.2482937285470719      11.434912732021191
   125   1      11.342881096541024      1.6738094114372128      11.533472025351656
   126   1      11.228340544025958      5.2128454586118034      11.508509068969675
   127   1      17.083188662698788      1.6295656735721729      11.412098936723837
   128   1      17.125932220726217      5.2158999766465186      11.489035836925282
   129   1      23.031300709496204      1.7973353593665657      11.650087821242334
   130   1      22.730075716136859         5.3130477393949      11.656560795911039
   131   1      28.590177322658061      1.9530868820913603      11.545218473342564
   132   1      28.608227969935655      5.5240230261867742      11.490272170511361
   133   1      34.335468328054368      1.8188614804959042      11.441129080147041
   134   1      34.399712426565465      5.3233201182291134      11.399324020820661
   135   1      39.984894257673538      1.7705105199197115      11.401537135977827
   136   1      40.122612420314795      5.3188197243369508      11.455526237478944
   137   1      45.887113201839611      1.8729999396165888      11.343313939134323
   138   1      45.776122000494411      5.5149290217088769      11.514581548875507
   139   1      51.499830459735762      1.9786367353307242      11.367640315296502
   140   1      51.434430008831505      5.3350361695471662       11.47899696929721
   141   1    0.037740815675877615       1.478069297198559      17.178698673228595
   142   1      114.11953810501099      5.5007172743174113      17.198709900555208
   143   1      5.4908615739403288      1.7459291163129984      17.138027559520534
   144   1       5.520503056292787      5.3614517068964114      17.043560743607312
   145   1      11.211152059294584      1.7461530846803883      17.148374661703503
   146   1      11.476031030789557      5.1433218265848399       17.11624196270359
   147   1      17.117580256991367      1.5898513599609427      17.205865412387542
   148   1      17.299814257122044      5.2077692637740549      17.082350845717421
   149   1      22.981650143522018      1.7576869494047012      17.174249998007017
   150   1      22.641740316882423      5.5240804855608614      17.005466711941349
   151   1      28.551583050855314       1.752580970966823      17.155766791206371
   152   1      28.627533775813291      5.4632860982070968      17.092225529721592
   153   1      34.485628541624358      1.6713488360987674      17.125514299700875
   154   1      34.421722013119378      5.5057099318929366      17.211354774968331
   155   1      40.080573130430729      1.7284564019727755      17.059313032740629
   156   1      39.927780103250988       5.479338188761897      17.084748397378206
   157   1      45.841097489680102      1.6805904646153129      17.029934565878737
   158   1      45.710505372787303       5.485834860431388      17.043908961405336
   159   1      51.737879549818025      1.8436285147279874      17.056886974281902
   160   1      51.621899609200447      5.3741965070964071      17.075153367263717
   161   1     0.96537482863121515      1.6758296535488237      2.4974251374443237
   162   1      1.2155145488704675      5.1580127542452825      2.2057012862531877
   163   1      6.9893217891838031      1.6693940500743016      2.2494235297644489
   164   1      6.9662407641086377      5.2439627894098884      2.1682915911644454
   165   1      12.501693073546678      1.7258883426501366      2.1018824099552766
   166   1      12.459910255063072      5.3698577784766846        2.26348560776119
   167   1      18.300623678960275      1.8688812085162356      2.4693513395707094
   168   1       18.17429803497263      5.2284284847674511      2.5725410024362358
   169   1       23.78671060929781      1.6918247669032223      2.3737527291799361
   170   1      23.934162064551085      5.4855938492446237      2.2601464905178505
   171   1      29.830724859468969      1.7851884197639318      2.4020863451571572
   172   1      29.778041695122702      5.3318157940121891      2.4896339388382613
   173   1      35.572229278037653      1.8759139581924338      2.1152217009997689
   174   1      35.579441826667548      5.4344033362151576      2.3150750212845765
   175   1       41.31626864964592      1.8996545318003493      2.1550795400052496
   176   1      41.340488580934341      5.4439194741734145      2.3179697750743937
   177   1      46.938363708495615      1.8790199522586104      2.3656886249082478
   178   1      46.932787685896265      5.3997575662884785      2.3400948932685939
   179   1      52.688132440766864      1.9698483910868598      2.1979119561129923
   180   1      52.621264521924324      5.6396263705464174       2.273864697975633
   181   1      1.2981446467149635       1.816157106068921      7.9398110276116309
   182   1      1.1493269499733736      5.0454927490240609      7.9794124614786339
   183   1      6.6550264290632484      1.6316943235941206      7.8854810270776357
   184   1      6.8328746264386622      5.2761405312409764      8.0084181825266754
   185   1      12.500665402236271      1.6137725435745616      8.1166497299277758
   186   1      12.503336462054296      5.4137661439360496      8.1464624985117702
   187   1      18.230749524385292      1.7686155447548024      8.1329304348357425
   188   1      18.105725664338951      5.3266069402046217      8.0960649829351325
   189   1      23.965098386318989      1.8387436485284272      8.1474377051391329
   190   1      24.020944024771243      5.4147295674971545      8.2478368906947281
   191   1      29.888623538881774      1.7244405585634242      8.1619127606907593
   192   1      29.807857735129694      5.5608115878645306      8.0251954664475615
   193   1      35.503922624757045      1.8298623455292509      8.1051085262328115
   194   1       35.46976489882767      5.2580236864968271      8.1662044816280002
   195   1      41.123672875715883      1.7090697807345065      7.9355486076033781
   196   1      41.189664379542499      5.4161243624481576      8.0516880608783978
   197   1      47.012247070563639      1.9012342245109695      7.9778249813986202
   198   1      46.862040918359504      5.4228083999001484      8.0047782375720757
   199   1      52.714100168380604      1.8921924472657314       7.893115399765005
   200   1      52.767332232625876      5.5380707926794548      8.0602960059697839
   201   1      2.0303490505022443      1.6990955828991954      15.635175724190969
   202   1      2.2687763590672398        3.66305959806613      14.224791626062009
   203   1       6.743283731447149      1.5321138266762711      13.650364358817374
   204   1      6.5197310174945278      5.3085840168936107      13.823339878362191
   205   1      12.469017101431533      1.5597604455547285      13.856529052940344
   206   1      12.595859947992423      5.1717432414223596      13.889692485313832
   207   1      18.211637557121264      1.5328620067241681      13.733826474686955
   208   1      18.201937130451732      5.3896737363619307       13.77663196117015
   209   1      24.001889750809752       1.957335991617803       13.87944887558981
   210   1      23.906363319096045      5.4614688430897873      13.961989570385235
   211   1      29.789444405002492       1.810254336677749      13.746509216991402
   212   1      29.852275238549289      5.3535753834780468       13.77930094936219
   213   1       35.41608015856162      1.9601053190618409      13.859498377213152
   214   1      35.558188742450483      5.4164357874752094      13.822163432120483
   215   1      41.360450771511779      1.8523648106153416       13.63875206132537
   216   1      41.148634711181863      5.5063395158530968      13.697592882273504
   217   1       46.99453081654493      1.9060954332541877        13.7909835382816
   218   1      46.931656074778296      5.4238857783520755       13.68845546300218
   219   1      52.836059361407436      1.9211364354602958       13.80852996760782
   220   1      52.558340082505474       5.480469218719251      13.806201980751295
   221   1      1.1004230013065581      1.5866342314618593      19.314068589024444
   222   1      1.1932284041350791      5.3607164513605596      19.343980430763263
   223   1      6.5657120004188316      1.7754221637079706      19.454800008144645
   224   1      6.6570513552505055      5.2023607552895328      19.342842575145156
   225   1      12.492610113612486      1.5423275740093665      19.409068490087321
   226   1      12.625210869421929      5.1441015402402508      19.339243381937813
   227   1      18.433282027620429      1.7212605740811353       19.32563678294737
   228   1      18.318628371614512      5.3370903360033202      19.553892058232535
   229   1      23.911396150776302       1.777825905335024       19.60446037859716
   230   1      24.039297454962433      5.3045408501248232      19.474807562353742
   231   1      29.758784203450872      1.7947483982944918      19.563476679420468
   232   1      29.629420780223722      5.3552674529220514      19.419941623959499
   233   1       35.53874941292775      1.8872659654697823      19.384071540956718
   234   1      35.632391208173715       5.498859559332411       19.44789139276573
   235   1      41.310495871290222      1.8334349227770292      19.593238512228815
   236   1      41.291886824124028      5.4623263270581148      19.286841522572793
   237   1      46.949810563747548      1.8250785401247296      19.132985698894146
   238   1      47.071099008212215      5.4948868643840969      19.310968398379831
   239   1      52.621579291389637      1.8408518034419337       19.40106854290233
   240   1      52.581842906425692      5.3363489210140269      19.351165567950606
   241   1      3.2744840222941387       1.572480244607062      1.0043206189088389
   242   1      3.2739467572870571      5.4361171024605275       1.044240977193071
   243   1      9.1342949245212317      1.8516936204867172     0.81683356330000967
   244   1      9.1577201145582663      5.1640418330634548     0.95186094440367519
   245   1      14.764194035970528      1.6581829110415811      1.2717159136530209
   246   1       14.79392693468021      5.2765696846803403      1.0906154710716229
   247   1      20.613837827483728      1.7757397346178634      1.3002377942276806
   248   1      20.547491348897957      5.1981225547196885      1.2607236932268828
   249   1      26.379721952064099      1.8623405835858375      1.4228871494250162
   250   1      26.372448534033243      5.1310556821365392      1.1670800321294728
   251   1      31.967829684187933      1.9559256254297246      1.3360404153630061
   252   1      32.023753371205586      5.4057291976738426      1.2065213724772565
   253   1      37.877062512251342       1.806701391599125      1.2111153065916722
   254   1      37.961605240651735       5.388002932928873      1.2636877006587155
   255   1      43.572684390282397       1.820924740350677      1.2670376188325854
   256   1      43.535491539393917      5.4763031679963614      1.1396571248830845
   257   1      49.206740301787633      1.9764144587047772      1.2507130986785573
   258   1      49.146075305586933      5.5235944718065335      1.1263980879081803
   259   1      54.901932170169275      2.0820816141133007      1.2451468058350637
   260   1      54.899748746452133      5.7344883395284816      1.2481149902378583
   261   1      3.5227212268653592      1.5762090609803632      6.6343964245164999
   262   1      3.2969137418650272      5.4248763588113569      6.6937390738002849
   263   1      9.0027266183809882       1.654770373396522      6.8248705884441501
   264   1      8.9466083799302485       5.460791523452829      6.8840693884873705
   265   1      14.691459984834896      1.7877634449339059      6.9716846391566696
   266   1       14.60925271623357      5.4376179168519414       6.938044281694232
   267   1      20.671761237646173      1.6389588955348358      6.9817602926658733
   268   1      20.468596658419962      5.3823879663215468      6.9040315331378981
   269   1      26.243873671096264      1.8157115411324147      7.0175458670257278
   270   1      26.416743766398216      5.2469422860856127      6.7693875438645952
   271   1      32.184405258747049      1.8542918131858905      6.8699118346705017
   272   1      32.167041067756799      5.3645995809390188      6.8069437362732934
   273   1      37.867372118901166      1.8133463300495547      6.8149622163125558
   274   1      43.573045433844463      1.8439510293254642      7.0451452194237882
   275   1      43.609674429758599      5.4576117365933765      6.9522591747010845
   276   1      49.274248033354738      1.8119338079566547       6.953399951344946
   277   1      49.152334181013259       5.567476617572261      6.7891302401298903
   278   1      54.897671715672452      5.6033382190235166      6.8878560553875321
   279   1      3.0606784065549233      1.6161636220916711      12.591474066018142
   280   1      3.0601481866294615      5.2785550439418136      12.606485292042482
   281   1      9.0336266181921587      1.6597481375426628       12.66413263369407
   282   1      8.8340163045850186      5.2881334046261674      12.771648539575265
   283   1      14.757754400371585      1.5865712896138031      12.709368276478328
   284   1      14.818595546052705       5.126746995257947      12.618026030764332
   285   1      20.636933254382704      1.7328499247312754      12.692009273863544
   286   1      20.395660287281846      5.2927720854990694       12.71087519424664
   287   1      26.293911280139596      1.9073671130124414      12.705149141415518
   288   1      26.174853511260167      5.4020175734999389      12.836102100256635
   289   1      32.089816761610564      1.7540937343737286      12.744402427297313
   290   1       32.29977934091589      5.3785333260758712      12.592068138237707
   291   1      37.785114173604534      1.7377674102282128      12.416049383722086
   292   1      37.777275023147375      5.2507338993922126       12.81154621130433
   293   1      43.505982909670195      1.9288444192636998      12.477047687977842
   294   1      43.485092695553398      5.3914794889326325      12.637282326051762
   295   1      49.429476441933531      2.0145926718783245       12.65128962350969
   296   1      49.366211851321715      5.3690482783064102      12.700832712814409
   297   1      54.976886676813322      1.8354071262418215      12.695597561706673
   298   1      3.2000416351085113      1.7502270558074577      18.185418849185027
   299   1      3.2040640100605198      5.2589245628284402      18.111339121221999
   300   1      9.0569544924746523      1.5261224566369096      18.331989170385054
   301   1      9.0894761142846452      5.2423808871637814      18.323330271296491
   302   1      14.978467317769407      1.5949791500278385      18.303349374801265
   303   1       14.91832225207428      5.2292203004578903      18.351138837568445
   304   1      20.702570926473847      1.6775943393112123      18.254444823602615
   305   1      20.547710004463102      5.3949515518537998      18.417903865262314
   306   1      26.197896641994284      1.6940907737399029      18.255017562904975
   307   1      26.254689471060523      5.3901669861402688      18.194455403122035
   308   1      32.250581528092319       1.985737946206708      18.290279687782384
   309   1      32.085400164584811      5.5541368940189493      18.261736779617724
   310   1      37.841618533912659      1.7487959096104244      18.295042793985065
   311   1      37.695383310158064      5.5720161874169287      18.327569464935866
   312   1      43.475230992469001      1.7663697700238563      18.281357113258913
   313   1      43.467958458545084      5.4959030697051015      18.088544449898375
   314   1      49.132271422750648       1.950314070061488      18.422970858965837
   315   1        49.3352655676022      5.4509451388177155      18.288748268759484
   316   1      54.964444728568736      1.7741065490480781       18.44498942707887
   317   1      54.769353666023008      5.5331302350924103      18.392063578801878
   318   1      4.5037002367365622      1.6608244294174286      3.2359980760205529
   319   1       4.436028013474731      5.2831853988506428      3.2290102372064204
   320   1      10.106730581773625      1.6833206084584527      3.4968704452945034
   321   1      10.254875424031209      5.3707766819332576      3.3647655909265435
   322   1      15.916052524279275      1.7605867728768516      3.5575067191581873
   323   1       15.87546507304905       5.301810270745289      3.5847227826463257
   324   1      21.684439995200918      1.6050330197074425      3.6296057641939878
   325   1      21.583940467723288      5.3636963048536721      3.5662299583013417
   326   1      27.525303669185938      1.7810639472901717      3.7588974448774799
   327   1      27.317037048096594      5.2934609013557621      3.6084507735587872
   328   1      33.294524150954445      1.6329052540521349      3.4452691543487584
   329   1      33.182969847985554      5.4533054528207341      3.5199006623184665
   330   1      39.040668682858829      1.8465338212355482      3.4362357265878649
   331   1       39.10010939204151      5.5683635676545062      3.4612759257393173
   332   1      44.722616402305007      1.8651432986942447      3.4595838320035184
   333   1      44.582284609247807       5.414807429065438      3.4899451763406995
   334   1      50.429158909912154      1.9810651753324067      3.4866793162737104
   335   1      50.444112888776402      5.5802618203558136      3.5153675974752532
   336   1      55.957493175196127      1.9570538679761555      3.2792640092662051
   337   1      56.043185134933104      5.5919740269742277      3.4773211365408452
   338   1      4.4120079700574868       1.558970784344986      8.9531739716916565
   339   1       4.555844069491128      5.1958347435026475      9.2087730496431579
   340   1      10.032283399045896      1.7409909604947811       9.182168301947625
   341   1      10.056688485669053      5.1885136549517838      9.2186494652493565
   342   1      15.865481886017404      1.6288038499641302      9.2683140162280786
   343   1      15.957886548699804      5.3087312359639833      9.3257416358031566
   344   1      21.787742328830113      1.7348984382679387      9.4443217977132896
   345   1      21.707292744412698      5.4333736702633715      9.1681514315750974
   346   1      27.410487428463053      2.0972723986120574      9.2445552608459227
   347   1      27.706406149890284      5.5688011824405423      9.2167462192130554
   348   1      33.148484773230095      1.7471800526141805      9.2527785971640881
   349   1      33.396609180091936      5.4073580133930541       9.163903960199697
   350   1      39.035740402042826        1.72366357145521      9.1775501757629439
   351   1      38.905957502876475      5.4729109448459239      9.0870930197571766
   352   1      44.695901417593184      1.7203415899946908      9.2529086457298906
   353   1      44.686190592797651      5.4759664159852557      9.1732694798263896
   354   1      50.438181172874962      1.9475080766718937      9.0288402188975514
   355   1       50.30816678704285      5.4391444153353845      9.2396047818358582
   356   1      55.010155813716771      1.9768713351037066      7.0234339265755059
   357   1      56.250211439171288      5.5323205481037414      9.1522223905716178
   358   1      4.2920565560708619      5.2962494749386106      14.920712198380725