dump/Fe_1050_0/steps_1 (written by ASE) 

2000 	 atoms 
1  atom types
0.0      28.699999999999999  xlo xhi
0.0      28.699999999999999  ylo yhi
0.0      28.699999999999999  zlo zhi


Atoms 

     1   1      28.652592085104729     0.20597414550077403      28.560713540048713
     2   1      1.3757908037649582      1.6954344037713664      1.3127035796481088
     3   1      28.577435453907967      2.9695754033234829    0.083115666287471884
     4   1      1.4179163623757405      4.4908499181381423      1.4320553564414467
     5   1      0.2089420238409182      5.6324367085619587       28.60922614259313
     6   1       1.397706948164205      7.1652777577452023      1.4626737404525332
     7   1      28.611787474309242        8.33809197988516      28.644250731209784
     8   1      1.4178510435273097      9.9434835079857606      1.3364246516920164
     9   1      28.631124645566945      11.573718598544389   0.0095279776342636052
    10   1      1.3770085788126274       12.96390768431151      1.6521187152391246
    11   1      28.441589651399145      14.289371419582761    0.082186447538526969
    12   1      1.3375995602256709      15.726795059808472      1.4047593117066515
    13   1       28.65272909252565      17.179193143413141      28.622204125739501
    14   1      1.2711675068583086      18.698513002403498      1.5423656968011283
    15   1      28.578511322647277      20.062786089738914      28.510453027175657
    16   1      1.4957205989744133      21.618615567443808      1.2585410691671075
    17   1     0.08545796243878527      23.123827864321129    0.029408485375859147
    18   1      1.4423828217817465      24.414855690172413      1.3706309510630947
    19   1      28.685388567702862      25.822980791171112      28.579404364725661
    20   1      1.3707548356815686      27.160908023228362      1.3961873319971685
    21   1      2.7188290828108173      28.642883110914411    0.046267938093103547
    22   1      4.2118860814316701      1.3666375913679765      1.3384388660263407
    23   1      2.8807360722286219      2.9048331369210438     0.10688493617292359
    24   1      4.2997849849930025      4.2982089167578961      1.4149220082360447
    25   1      2.8475105885251093      5.6457449878018231      28.668982759446266
    26   1      4.3193755690630438      7.1223791495620272      1.3604892224908443
    27   1      3.0384396409963119       8.578822610040417    0.065684706255819889
    28   1      4.3495428519462767      10.206174280186442      1.3367661906746549
    29   1      2.7069722727360941      11.450384764822559  0.00039478771300309625
    30   1      4.3314635077744938      12.905338582498494      1.3283063874126027
    31   1      2.6875984638491444      14.260498078095532     0.10619449482348954
    32   1      4.3508066886494561      15.640407635635871      1.3920957537608032
    33   1      2.7210488802264234      17.116631182798848      28.656150529003842
    34   1      4.4093335584838789      18.577565727109565      1.2890465565204297
    35   1      2.7750167762807925      19.961431350988374      28.670717297478252
    36   1      4.2056327189435514      21.570529877062668      1.2809609234924781
    37   1      2.9732522501027701      23.070105888441912      28.593050188774942
    38   1      4.3834038261739039      24.487088226504198      1.4485546410125147
    39   1      2.7490680665934333      25.663797526055735      28.617760344225871
    40   1      4.0550588945995756      27.246423876746338      1.3290131761920287
    41   1      5.7767230215312431     0.03001363027133434       28.67619055982216
    42   1      7.2294538257941765      1.4675296249816256      1.5488963795687019
    43   1      5.7743545287563842      2.7902954042417707     0.12228751874622493
    44   1      7.3080665493363863      4.3630840730133373      1.3761294942113624
    45   1      5.7838223126698018      5.7969690163348009      28.588241077548464
    46   1      7.1506654186848273      7.1944675772231008      1.3130787955091261
    47   1      5.8746779260041073      8.5896775988865457     0.07319373901636933
    48   1      7.2429373628597018      10.066996045079264      1.5227100052117417
    49   1      5.8622633473809111      11.528024849118697   0.0013960103134536435
    50   1      7.0349075519120001      12.942235764260342      1.6457974872645642
    51   1      5.9064401222123646      14.478034425198178      28.670590302169632
    52   1        7.15250126029109      15.743810513611972       1.451159032296709
    53   1      5.7745898995678191      17.061084260071848      28.633733844027461
    54   1      7.1843471648936212      18.583201859082529      1.3180718100886677
    55   1      5.6879626159786412      20.138023975114375      28.684294393562357
    56   1      7.0230698403400487      21.536364347362579      1.2235653527614549
    57   1      5.6861355725749521      23.029947832202051      28.577283325115861
    58   1      7.1516955886292024      24.193944771898948      1.2698824445238976
    59   1      5.8605506688287097      25.858029939411125    0.026806358698706845
    60   1      7.1454311429486914      27.458129244040883      1.4088404504708347
    61   1      8.5810014835029591      28.652738115710552      28.699265231285782
    62   1      10.041913373338229      1.4352331543524208      1.4313843761943643
    63   1       8.735182346973648      2.8890437593207472     0.18932041088650067
    64   1       10.06577469433849       4.642460388061477      1.5070117812962838
    65   1      8.7310582474360743      6.0380817033589738    0.032276793730977811
    66   1      10.124517797455088      7.1523260973871805       1.563431216129777
    67   1      8.7341488540018428      8.6641305316242736    0.028954893319246271
    68   1      9.9184211236151167      10.102331670253824      1.4254148304569521
    69   1      8.4196145830187525      11.626971865398978      28.683932715011455
    70   1      10.124021295394456      12.986346595793297      1.3603852303348152
    71   1       8.618833874651207      14.390663887143987      28.623423381500306
    72   1      9.9440063054124508      15.759840634788976      1.4427537255525169
    73   1      8.6869078431360656      17.173189563636861      28.681357515592868
    74   1      10.212447474376923      18.396215883377781      1.5341737887024687
    75   1      8.5883990347918271      20.035637072648683     0.12436529578554895
    76   1      9.9325045015419793      21.508743195079511      1.6834379039210494
    77   1      8.5930629968481771      22.693584362635089    0.023100834605816096
    78   1      10.076612046059561      24.316425656037914      1.2449131068043024
    79   1      8.5204807279139434      26.004911721922127      28.544931107561254
    80   1      10.186063830088326      27.061421121136107      1.2529496860506482
    81   1      11.542028983525965      28.686453030701191      28.653261728179572
    82   1      13.066657553241699      1.4716643198591892      1.5199207107460315
    83   1      11.628781096148094       2.929773918775445     0.14528222220724257
    84   1      12.907051970483952      4.2962661991492217      1.5035619601510233
    85   1      11.481908822933672      5.6852783330563375      28.558964940160596
    86   1      12.762958044899021      7.1149988487093081      1.2657919113662965
    87   1      11.554430104918254      8.6572664650318192      28.566410319777521
    88   1      12.975797425062723      9.9941542856498966      1.5228392840386631
    89   1      11.463401094390017      11.241328912918231    0.027314098220790579
    90   1      13.028080070280154      12.936350830833673      1.4994796436323443
    91   1      11.628640561261706       14.46869873247965      28.602146279219145
    92   1      12.957371884968214      15.644379077735609       1.489043661470292
    93   1      11.541208048490395      17.252107016409319    0.036545098988381278
    94   1      12.818590902452483      18.647990162750961      1.5558468292001175
    95   1      11.621811250249653      19.969540736490064      28.647224939885312
    96   1      13.024761288014085      21.560907046699853      1.5871168641702864
    97   1      11.333766936242872      22.730410425155807     0.21021179773346152
    98   1      12.686348627356109       24.42216853140317      1.2635960569530884
    99   1      11.635919147492723      25.770943788633197      28.517787737082472
   100   1      12.877806501469085      27.258580571000266      1.3721861057876019
   101   1      14.506039154608629   0.0020663172759686254      28.697245275005532
   102   1      15.868027510730982      1.5374268216376989       1.408573076682001
   103   1      14.512710027066822      2.9370076331386685    0.016255284469571044
   104   1      16.047429180600009        4.31716642499042      1.4764979049949252
   105   1      14.332701128735696      5.7464993535263336       28.61486160845482
   106   1      15.789192063265991      7.1006834072520757       1.368462142945635
   107   1      14.271324206558171      8.5789718937989345      28.686449748039639
   108   1      15.891438429112766      9.7089461382240696       1.601966849279405
   109   1      14.445926258896181      11.436287003274067     0.15752347029253985
   110   1      15.759089136571061      12.943536901273223       1.484098191259521
   111   1      14.476992240251166      14.246860278575673      28.690843652895303
   112   1      15.739431504593766      15.855074265344456      1.5740644953341638
   113   1      14.114691491035964      17.168121134405457     0.14015968065085638
   114   1      15.822570084277137      18.688192655664658       1.661076055532396
   115   1      14.342890931051695      20.030981138519994     0.18825283107698842
   116   1       15.84077381962549      21.474543331602312      1.4806367883184635
   117   1      14.520839653734241      23.158680234602848      28.659991253371558
   118   1      16.091130727503725      24.450787544487255      1.4346032481477664
   119   1       14.64758399803388      25.576197148609594    0.048717293538572862
   120   1      15.810436811791341      27.253308510994565      1.6151722308148906
   121   1      17.252138601423717      28.684519141348861      28.621493328045446
   122   1      18.748463282422723      1.3389694753205161      1.4702319320931325
   123   1      17.544812545279139      2.8976815753672356      28.527199187343445
   124   1      18.713769392099913      4.2004046801480577      1.5621615989566304
   125   1      17.308706304954828      5.7862408731060047     0.14415449279337059
   126   1      18.537918446037292      7.2494915047448103      1.3370871269165157
   127   1      17.253810870581383      8.5007504328632795      28.681176417191399
   128   1      18.781505685195977      10.068063898332003      1.4608575572443563
   129   1      17.041447573773223      11.437177385349656      0.1896577240378633
   130   1      18.463380422419046      12.935773058427095      1.5605178074773891
   131   1      17.190850939932197      14.419485152770935     0.05134193817834775
   132   1      18.518864399155017      15.740276003760485      1.7987636928446356
   133   1      17.266929813988586      17.218802839704164     0.12761297691257606
   134   1      18.851919899758272      18.596600334512132      1.4302959913431896
   135   1      17.285484539303205      20.079806405984243    0.027827250976781653
   136   1      18.579448264994841      21.619540383337629      1.2951076253778528
   137   1      17.109390964949334       22.92307980647044      28.606173292957848
   138   1      18.747982772964487      24.529657308038381      1.5244102431992117
   139   1      17.263006030870407      26.027688349016643      28.637505176025176
   140   1      18.683387825601876      27.283109093173657      1.2231933576582941
   141   1      20.266717678800031      28.684143550372113     0.04405235940237158
   142   1      21.535479788160412      1.5646026704448328      1.5755594196442428
   143   1      19.991127232436284      3.0521918492165843     0.17745479400516601
   144   1        21.4555635329883      4.3593444526042777      1.6161087444680891
   145   1      20.036987244851662      5.8436122057720006     0.14935614687724411
   146   1      21.562692453483745      7.0993779896807707      1.6469021890417024
   147   1      19.968884095689383      8.5862737858736136     0.16462543108691538
   148   1      21.334083888967822        10.0451730576402       1.459973592431981
   149   1      20.028978186346574      11.555327740515837    0.032754688143074868
   150   1      21.431629286382265      12.933841502556488      1.4580386881329561
   151   1      19.937138140168219      14.564183547588168     0.16697413921243653
   152   1      21.570075087420189      15.736873859463968      1.5642925210145664
   153   1      20.111701999624902      17.247759544360591      28.666940874437913
   154   1      21.570498305399703      18.716259390064575      1.5234123477014581
   155   1      20.041445699067165      20.227996925292864      28.616226027613251
   156   1      21.416879885832909      21.466210623611651      1.4477269527289063
   157   1      20.166028088378614      22.889301591338203      28.545143865760792
   158   1      21.522963665961917      24.501548915869151      1.4854483041869915
   159   1      20.279668351932241       25.72617188534177      28.672522951092109
   160   1      21.556199690151001      27.230204822354661      1.2871349934568102
   161   1      22.927717110146773     0.39303002044197349    0.043448173297326823
   162   1      24.307576471950583      1.3609390575561975      1.6581914144103616
   163   1      22.897276482903557      2.8716793400770255    0.076980822834025228
   164   1       24.25197438531378      4.6558644510146383      1.2740878620607992
   165   1      22.770745500366584       5.858911716054366     0.07363465539327757
   166   1      24.126684618702924      7.2834652642182292      1.6584345469268225
   167   1      22.787630730090157      8.5650312671150104     0.22380311576520159
   168   1      24.534062664650484      9.9001836318964855      1.5535704324461548
   169   1      22.917229923491082      11.456902780667791     0.26093475278357792
   170   1      24.498789949549927      12.810233942843064      1.3038122857320906
   171   1      23.165075233620232      14.317465309673995     0.15138994937435649
   172   1      24.453582131126755      15.760255200152567      1.3740776637173426
   173   1      23.234084842218593      17.206220915522827     0.12152602479861803
   174   1      24.488596723202871      18.760872548707948      1.6812741020538733
   175   1      23.288083437658976      19.934940594130435      28.509101484805242
   176   1      24.432718381532847      21.503970743648182      1.4274407945892802
   177   1       22.87209430811081      23.037951482586049     0.21344178029994509
   178   1      24.590349134514501      24.325833685923804      1.4028456957044111
   179   1       23.01286180747632      25.872084979474327    0.007172509483825691
   180   1      24.402227320286205      27.357659590333832      1.4204336800402422
   181   1      25.853206341433662     0.20476972754178166     0.10740882750309304
   182   1       27.04415982311572      1.5455748604067934      1.4584241619787459
   183   1      25.573097460384446       2.862138003562813      0.1048879711359972
   184   1      27.209268378129469      4.5136149491555244      1.4288268910696045
   185   1      25.747171499380443      5.9378328214374472    0.037790537218654614
   186   1      27.401644282047975      7.0142369411933485      1.4494943200797468
   187   1      25.824271918309979      8.6409728621050608      28.644814787200719
   188   1      27.258239969384434      10.086893252337667      1.4683108460715069
   189   1      25.617050960536922      11.424010824711814      28.665117999498737
   190   1      27.228955901467135      12.619212788931435      1.5005056011034084
   191   1      25.686245633927154      14.345211577207172      28.504678558856298
   192   1      27.186994402204625      15.757915126704003      1.4399489263988023
   193   1      26.000978117533577       17.11300643016795     0.11695078023203688
   194   1      27.398230395702633      18.615313681848534      1.4984573650179751
   195   1      25.820325506459977      19.996207278646402      28.667147700136756
   196   1      27.181041228025716      21.414784812221296      1.3890153999430142
   197   1      25.905800201082865      22.966246816711195      28.527632343524388
   198   1      27.290437250263714      24.431462117373108      1.3794707937581157
   199   1      25.687089907003845      25.876824162632488      28.334702471478337
   200   1      27.148883821172209      27.175943823752359      1.2508771534403762
   201   1    0.049716065571260709    0.078328050649134021      2.7569424099728503
   202   1      1.4077548964486146      1.3320579178661445      4.2440740427272727
   203   1      28.622591218413262      2.8700908375222305      2.7195444126930037
   204   1      1.4709846690996868      4.5116436863347333      4.0677204689937394
   205   1      28.696052436741088      5.8075661116496704      2.8872195952803494
   206   1      1.4283401257823143      7.2051494813026435      4.1930860466685749
   207   1    0.003954750139610763      8.8792294668807124      2.9645761606487673
   208   1      1.4902123902506099      9.8970755670045456      4.3737453532938888
   209   1    0.092686900025319888       11.45966348381458       2.988293156520065
   210   1      1.5522997293993079      13.004351585874021      4.3714043369154245
   211   1      28.591527654082714      14.358540200133573      3.0157935916803682
   212   1       1.388440898306659      15.698376842437881      4.1970214624008104
   213   1    0.012284915228179994      17.416551102887844      2.9461224336967922
   214   1      1.4643117830491088      18.622323389161959      4.4095584234771179
   215   1      28.674866263630651      20.125824406414534      3.0231490106793464
   216   1      1.3862873611684912      21.505518267712009       4.394999278106714
   217   1      28.633124445911026      22.880079890596978      2.9612254979304367
   218   1      1.4286790626624029      24.395486586443415      4.1412745088157017
   219   1      28.590949929407802      25.886310060961659      2.8478180889825242
   220   1      1.4035485112790669      27.433048080335769      4.2874932397427798
   221   1      2.7765998910581415      28.626918281545304      2.6297349981716587
   222   1      4.1502288310794588      1.4145556718281573      4.1610671650505413
   223   1      2.8667704564129277      2.8874466611089789      2.6982950312157183
   224   1      4.0910048069987415      4.3812322734179316      4.1791537680398685
   225   1      2.8082031279285742      5.8992638618452622      2.7795648787130407
   226   1      4.5292500662134758      7.0684288278627374      4.3804191700845108
   227   1      2.9741810634766512      8.5051913355079396      2.7672203744512198
   228   1      4.3008274098187265      10.134695057181512      4.0221208927050158
   229   1      2.7655244782651613      11.454203267290332      2.7470153247600582
   230   1      4.2583863355054117      12.958462354880384      4.2811269350578378
   231   1       2.985048963502464       14.31339933641217      2.8470084161503091
   232   1      4.2138038024399833      15.944715172958594      4.1395678683651251
   233   1      2.7535915099991368      17.330969845632822      2.5767538237327701
   234   1      4.1685716094422265      18.779561029793328      3.9978732954420835
   235   1       2.645059061507677      20.152018444438813      2.8004678429934193
   236   1      4.1517882435716364      21.388793961744412      4.1620681645692565
   237   1      2.9056020834744092      22.862775246311717      2.7897424375675421
   238   1      4.2133691156199831      24.517711648303923      4.1096694269685301
   239   1      2.7320161019731382      25.868893628963711      2.8606234978798613
   240   1      4.2458430040304327      27.242732425280135      4.1480177231625825
   241   1      5.6924736475813162    0.050215729476428918      2.7586159292607135
   242   1      7.1816921612183089      1.4274952944286825      4.1616101082252808
   243   1      5.6717861508108687      2.8782043045573227      2.7390925845499621
   244   1      7.1754053373279234      4.1358887283117385      4.2448398699016288
   245   1      5.9536647768026301      5.7965494718152923      2.9660520159551744
   246   1      7.2651228174648459      7.2472153017562082      4.1558184792770758
   247   1      5.7253558999924108      8.6590262659439112      2.8759135815028558
   248   1      7.3251079380793476       10.08345558059353      4.0432728736117776
   249   1      5.6171177929811131      11.565082666028074      2.8715210668564359
   250   1      7.0964142139256969      12.893001666833207       4.222691202819326
   251   1       5.582306436001339      14.394334407150907      2.8177201568831265
   252   1       7.074970806019711      15.847897272498853      4.3916271121310135
   253   1      5.7079964032947954      17.153104517005247      2.7918233506196994
   254   1      7.1968250887456087      18.594887178920498      4.3945446922007489
   255   1      5.8474928036450731       20.07839457303804      2.7512564066880474
   256   1      7.1661137379473514      21.554430914325692      4.3087156193703429
   257   1      5.8160245531868142      22.873477508166623      2.9579731566461538
   258   1      7.2041576660783324      24.580380148903139      4.2870396870030651
   259   1      5.7795058094957863      26.015519004506839       2.745474883116366
   260   1      7.3015598618251438      27.037619412071152      4.4155978632370321
   261   1      8.6925851028899839      28.619788057024895      2.8345874213601854
   262   1      10.166533579367908      1.4433707466081849      4.0878989543391642
   263   1      8.7640042530938764      2.9964719992417912      2.9069976604407239
   264   1      9.8006410846720655       4.403174923810794      4.4630713218259821
   265   1      8.6132171391181807      5.8088323317392971       2.876888458085348
   266   1       9.989517641877331      7.2021926917571575      4.2749376633445522
   267   1      8.5263594347658902      8.5662163370542057      2.6734374645456565
   268   1      10.014716352217498       9.888805753511253      4.0612048375562164
   269   1      8.6267727925304545      11.598234397371641      2.7280352335533617
   270   1      10.290387618075069      12.954635730261465      4.3696125116838829
   271   1      8.6337098324244543      14.350846586596532      2.9579466488938748
   272   1       9.958690770803786      15.845542203119535      4.2032969457640421
   273   1      8.4157180075260918       17.19231199003881      2.8572416334851578
   274   1      9.9522663107909768       18.42364081077536      4.2389563589305963
   275   1      8.4100113583563587      19.951324637497795       2.648186227953123
   276   1       9.920687517480749      21.625320580974172      4.2415241127258279
   277   1      8.4605688507226553      22.906275048630462      2.8196094280904842
   278   1      10.075551250419782      24.585485509351631      4.2156598801415592
   279   1      8.6743276398630442      25.989251387958753       2.851080283809698
   280   1      10.107309388665181       27.20301815963175      4.4706670310273653
   281   1      11.458302241388886      28.588268055811316      2.7591787536313852
   282   1      12.943123464036711      1.5809073053411105      4.1286529357035091
   283   1      11.293524341823385      3.0405482395617627      2.7459119005631587
   284   1      12.830468220783461      4.2634246125244282      4.3614142770281816
   285   1      11.559609774623498      5.7140284561489194      2.8433413919530723
   286   1       12.67673641420391      7.0875941275392362      4.4969684032703334
   287   1      11.605830350076674      8.3710364113730993      2.8746469926925595
   288   1      12.893643751402978      10.005730941826513      4.1772764139997145
   289   1      11.479504262431913       11.45196927805428      2.6766374752680013
   290   1      12.885232902941866      12.810874403511191      4.4155825004617597
   291   1       11.47861723935952       14.32875759113289      2.9373155085878415
   292   1      12.963341543638069      15.766399121281518      4.3056367031084815
   293   1      11.616654635598547      17.149762022251213      2.8816811670812807
   294   1       13.02924793704504      18.653777895261832      4.1864325401435076
   295   1      11.400444971168644      20.034019420546961      3.0761363415718375
   296   1      13.034949997992754       21.70200047071318      4.1274447128584137
   297   1      11.556871370230539      23.020888485050019       2.893685233526968
   298   1      12.896045771508479      24.513471861767854      4.3441839771075479
   299   1      11.556822404414371      26.011891201802289      2.9738174396925601
   300   1      13.145334877467775      27.346909552450505      4.1828195916233311
   301   1      14.488482739961762    0.055733399292057832      2.7704877218919126
   302   1      15.732978965272356      1.4983107828582223      4.4057906171242047
   303   1       14.29060875189764       2.958967599967838      2.9136829937121469
   304   1      15.716545040370759      4.3763659563501331      4.3314082235419953
   305   1      14.352765256042382      5.8621121606459026      2.8526360850832924
   306   1      15.557817784608849      7.0135999609833499      4.5862298485255097
   307   1       14.42744378375909      8.4246847182768114      2.9483176638198225
   308   1      15.781747907454887      9.9679411690913042      4.4390738219894592
   309   1      14.438989122625228      11.404650012128094      2.8602622446495851
   310   1      15.703638552770528      12.783993304799267      4.3231915987987728
   311   1      14.376616828402428      14.415368593892602      3.0344569936358186
   312   1      15.743868203995589       15.86256072177394      4.5686151496664911
   313   1      14.517869889736593      17.260851427308193      3.0109904358709478
   314   1      15.810774361245352       18.58535760096817      4.5056043532818491
   315   1      14.505544643561675      20.144506466552986      3.1107700124171473
   316   1      15.851915718352009      21.579661644133491      4.4137955996785578
   317   1      14.570396269462591      23.002059462134994      2.7616753792976163
   318   1      15.991717511092578      24.538443999991827      4.3236535811607677
   319   1      14.326155565818286      25.719654295887359      2.6713445365430615
   320   1      15.866644859056057      27.267811228513505      4.3250576052347247
   321   1      17.132652809348592   0.0029419092814352643      2.8963456916455166
   322   1      18.743906955015046      1.3787043028102963      4.4214661226098784
   323   1      17.223838487444652      2.9328887975809175      3.1606653498431259
   324   1       18.46764270491985       4.267326877187009      4.5236509901231452
   325   1      17.087153436669968      5.7411761494738149      2.9094617202585678
   326   1      18.624437347036807      6.9516517898441537      4.6009929462954346
   327   1      17.287992948103593      8.4050496967465396      3.3241418398334761
   328   1      18.555804391963044      10.054408934217376      4.5927913341526718
   329   1      17.122976008942238      11.349148560441904      2.8711126566902303
   330   1       18.69792252743817      12.782611610909807      4.4103152261565448
   331   1      17.207835944104918      14.334332132069356      3.1515812981548135
   332   1      18.710168610929635      15.811492614561635      4.2611390627435748
   333   1      17.234930030165323      17.154409698061833      3.3156541398236667
   334   1      18.684063005835487      18.606902733737854      4.3726364028882214
   335   1      17.353310312114598      20.187064453442314      2.9919619524308816
   336   1      18.802087692642896      21.473176438592684      4.4539656789247051
   337   1      17.199002166191512      22.933623407867646      2.7800485794691876
   338   1      18.884394859137899      24.513124538882792      4.3223438675653032
   339   1        17.4147244969718      26.011045550794321      2.7961676388684378
   340   1      18.664869230125017       27.54806351538781       4.174100199932842
   341   1       20.20524541486694      28.623426709162572       2.837600991538932
   342   1      21.444092600610695      1.5400939025505418      4.3532210493503705
   343   1      20.056103606292517       2.951983891231774      3.0711164232161638
   344   1      21.464563866617819      4.2715765831225774      4.5015118664208069
   345   1      19.793916566596621      5.7142201877895893      2.9333265671450923
   346   1      21.462755642080854       6.988056895615399      4.4108602216401618
   347   1      19.976192212713876      8.7030377065876223      2.9985669325459345
   348   1      21.248533771079263      10.174254610394559       4.416540836785356
   349   1      19.893485684291111      11.467165339389895      3.0788417629593243
   350   1      21.729917566174638      12.803428819289833      4.2808295452104907
   351   1      19.985923194016486      14.242902456132915      2.9779672226655163
   352   1      21.498494437253814      15.543326631586275       4.502080534161907
   353   1      20.052870742020051      17.222120385768992      2.9431383635040684
   354   1      21.633824371770981      18.710178933570287      4.2393211517640124
   355   1      20.040092374915787      20.084471473442225      2.8677320980827745
   356   1      21.442554182465276      21.535717726234115      4.2040861351961061
   357   1      20.028329192850201      22.796752120791588      2.9655764096293047
   358   1      21.538225488211328      24.384524132321204      4.5283002980837956
   359   1      20.182973615619606      25.816917413032215      3.0337990339052854