dump/Fe_1050_0/steps_91 (written by ASE) 

2000 	 atoms 
1  atom types
0.0      28.699999999999999  xlo xhi
0.0      28.699999999999999  ylo yhi
0.0      28.699999999999999  zlo zhi


Atoms 

     1   1    0.079565016977632727     0.23646157059765929      28.603865168040116
     2   1      1.5601844051099418      1.3777615963427241      1.5628323316410941
     3   1    0.012090283283510124      2.8168086403849646     0.10304190243074342
     4   1      1.4718950124602312      4.1434222604591948      1.5175370911429229
     5   1      0.0262079663530475      5.6445862129056597    0.027054400132499275
     6   1      1.3527935546610923      7.1837946103452266      1.2129613858596033
     7   1      28.640703213196389      8.6328493274539664      28.633746759310142
     8   1      1.5275357016864424      10.032465248194859       1.552710313818749
     9   1     0.19175060112753756      11.489253922838634      28.696647667214496
    10   1      1.3958551916202395      12.905507488101806      1.6060128522509225
    11   1     0.10495286065707013      14.485369986842572      28.549764469024694
    12   1      1.5702998888864834      15.780737183483197      1.5042993445916646
    13   1     0.35955038717005627      17.238837711624797      28.669925818219244
    14   1      1.5889350671310249      18.639444033124995      1.3650922166686641
    15   1     0.10070321739688401      20.124922774756183      28.649234957252833
    16   1      1.4032580996930988      21.643807683937361      1.3307297309586363
    17   1      28.584438769450518      22.979829387877455      28.561079722499173
    18   1       1.193520252724773      24.520810328222179      1.5106278565792084
    19   1      28.624880604582646      25.751491080247742   0.0069677409734140378
    20   1      1.3535461776878275       27.18111013281899      1.4172597927369903
    21   1      2.7289854892157228    0.097853905845933467      28.571015964143587
    22   1      4.3839720821122183      1.5257947206818927      1.4061072453072012
    23   1      2.6688689198801523      2.8549104689137614      28.685199439445412
    24   1       4.272931566482491      4.4788514763598686      1.3193728022848865
    25   1       2.704707801799068      5.7001755701829833      28.677098515548071
    26   1      4.1262017108069253      7.2065305871876477      1.4298857926468822
    27   1       2.734028180757698      8.5542135263964223      28.611296958747193
    28   1      4.3289567706531278      9.9726134696591178      1.5816316897197786
    29   1       2.820645109946009      11.532930171485219      28.613740608824489
    30   1      4.2954995576454564      12.988185712897605      1.4648255686960507
    31   1       2.695132157894105      14.185765851468464       28.62734809158016
    32   1      4.2266061897676366      15.831352946328503      1.4565521744686161
    33   1        2.78006652371297      17.335902609402094       28.58143633463165
    34   1       4.159238573119441      18.801329016815604      1.3990697066393056
    35   1      2.9299267016586303      20.133399383821125      28.589204993701888
    36   1      4.5373119631502865      21.579951137015954      1.2588151006492823
    37   1      3.0279500792873537      23.071359619197572    0.079865846204302232
    38   1      4.3516531892578358      24.621166065277208      1.3830829964124527
    39   1      2.7476282195687451      26.055127397842771      28.425601707031507
    40   1      4.1536771942729578      27.206809757439217      1.2588404741272929
    41   1      5.6768985725886854      28.608625357761028      28.677435784635151
    42   1      7.1548630743405202      1.4456862256567313      1.4067503892827524
    43   1      5.7721268987577004       2.958712184813288      28.546098200489869
    44   1      7.2097930112175979      4.4291050311875573      1.4122655121471446
    45   1      5.7600478531215842      5.7186985876187455     0.13663416931902916
    46   1      7.3491659945658769      6.9473641870687466      1.5540516856656941
    47   1       5.678961070168663       8.446693214837504     0.11098938516927311
    48   1      7.2298774949292461      9.9980124356129316      1.3595153032272267
    49   1      5.7251818851644716      11.625200900409368    0.028171335021488619
    50   1      7.0958650860871355       12.82077076752932       1.541664986614808
    51   1      5.4804043328610845      14.277439480476238      28.606816680104263
    52   1      7.1639187255811514      15.816669726740885      1.1389890914056984
    53   1      5.6131960509151577       17.23975588913132      28.697559034359056
    54   1      7.1599941459844194      18.735347200795484      1.3196070117831469
    55   1      5.7891362146566907      20.104790278158728      28.508364820106728
    56   1      7.3032307981566396      21.528071614247946      1.3116794398440665
    57   1      5.8551743346294867      22.894180382026271   0.0040235145406086392
    58   1      7.2264787676422202      24.674695423946115      1.3115867327375905
    59   1      5.6552901751947298      25.959736931593209      28.562647185208917
    60   1      7.3662121652929944      27.503887623218851      1.1413733626283036
    61   1      8.7960250701272997     0.10196190804481552      28.674985659766353
    62   1      10.014505823864633       1.461660986734284       1.488554906086142
    63   1      8.5659751285659134      2.7729370514730722      28.681118637584547
    64   1      10.029559257245911      4.2677535747469681        1.34075234136884
    65   1      8.5643181253073362       5.682815977760967      28.620372118880571
    66   1      10.090712727900032      7.4508009386984195       1.313478873363181
    67   1      8.4842540463057272      8.6576826326646366    0.033318817560336708
    68   1       10.09157142692027      10.108008090130511      1.3509035163045835
    69   1      8.6049128657074654      11.568428864109894      28.515426618049563
    70   1      9.9518816765320484      12.821152359294166      1.3591527286428235
    71   1      8.7019680762768061       14.42791528759121      28.576232390707776
    72   1        9.95487136998916      15.835833804340846      1.3346925056097358
    73   1      8.4564217679910936      17.383723175080259      28.650269938585836
    74   1      10.149917154603765       18.75838295449347      1.3545795688338094
    75   1      8.6178283411318617      20.040476979192739      28.499901167491362
    76   1      10.232420732264741      21.466993914867803      1.2203718964677033
    77   1      8.6150255438178753      22.942948289525386      28.597384635605408
    78   1        10.0754731659522      24.321717163745589       1.373142984648849
    79   1      8.6912205409965377      25.901241284010482      28.651244552717518
    80   1      10.130353146168828      27.334386829595861      1.4173583930044287
    81   1      11.523925218679334    0.078299464981411673      28.592715206168794
    82   1      12.517338256427379      1.4813471802083993       1.428771953448891
    83   1      11.459468200155815      2.9919559914393048      28.507982008554222
    84   1      12.742499220859617       4.304330801629491      1.3589497878097394
    85   1      11.492740296509215      5.7805986169519228     0.13994221265199938
    86   1      13.025341180139295      7.3203575109373853      1.5682241144699554
    87   1       11.60192696904612      8.6523428429152709    0.032915031520167386
    88   1      12.882331374906656      9.9030216576507009      1.4486554749620619
    89   1      11.569171839098701      11.572078659865616      28.681698832704274
    90   1      13.109230094750085      12.920810800170567      1.3596337532207938
    91   1      11.469676068963381      14.271343424101387     0.22760861499630219
    92   1      12.983858660598107      15.692117464691103       1.439031893963193
    93   1      11.485726506954366      17.184357262248533      28.634444344958951
    94   1      12.710843303797322      18.611193603567166        1.38469143041051
    95   1      11.704867129757501      20.098565738303357      28.514128914306397
    96   1      13.079205584667227      21.621858147242222      1.3518089216467721
    97   1      11.644404929807481      22.949433894218693      28.642069570289099
    98   1      12.939670407248666      24.369004126143707      1.4595223902646111
    99   1      11.524013536791095      25.754241032561975    0.036789432467719631
   100   1      12.718860600028874      27.278207295512253      1.4735278679651518
   101   1       14.30847754219808      28.580804360895446     0.07515066932750189
   102   1      15.634518411036838      1.3106005115494104      1.6337363732451644
   103   1      14.134732920073732       2.833223890929808     0.15265338397183531
   104   1      15.696514696607053      4.0768356283209188      1.3538693446817898
   105   1      14.255720980592518      5.7593207959189217    0.098977550727875035
   106   1      15.761671969345429      7.1636183509490419      1.6370672024111175
   107   1      14.509081773138172      8.6293193103415717      28.673192216268042
   108   1      15.753350086328224       9.998988778565268      1.4001309022052504
   109   1      14.454069228713523      11.508334301251971     0.20403327150499989
   110   1      15.884363642457647      12.935254363102572      1.1958925724880023
   111   1      14.305711912312482      14.439955248482352      28.612865190632295
   112   1      15.759037683121575      15.825389746718486      1.4649962809152273
   113   1      14.553572593954675      17.204881668086404    0.096890374368285681
   114   1      15.739680889872261      18.505224525876535      1.4610825336561093
   115   1       14.29284063040741      20.239737528009282     0.12414973427725054
   116   1      15.867295850134198      21.564007355789233      1.4004361796042755
   117   1      14.469716312497562      22.921882974879452      28.506495565430246
   118   1      15.745888447435958       24.31744962179701      1.3581777510534261
   119   1      14.429237439868762       25.88462293066328    0.024034317341363458
   120   1      15.841760398992134      27.333576234431863      1.4802961785097073
   121   1      17.344965541379832      28.627014479271953      28.682254541369232
   122   1      18.763972441557122      1.4193445522760841      1.2443254345326746
   123   1      17.226360653419739      2.7414157788900213      28.577625102035825
   124   1      18.579400578504504      4.3684354734245918      1.3523920021203126
   125   1       17.20157626971956      5.7381190709108516    0.055368789052147434
   126   1      18.619176221752493      7.2473658689712934      1.5131242322259268
   127   1      17.045664838078888      8.4339580713294211      28.679955616955574
   128   1      18.721128390759564      9.9731725611376572      1.4007518730191233
   129   1      17.267776698209065      11.380292341231673     0.03689272238498232
   130   1       18.69865021045802      12.735699096636239      1.6818528519305012
   131   1      17.504088410920509      14.313067912610812     0.42078138290540879
   132   1      18.901422171547676      15.902089848434077       1.532627419178231
   133   1      17.417008686783152      17.208858739248562     0.12848770827627046
   134   1      18.639471908605749      18.715629995857181      1.6169790996174913
   135   1       17.09550555759407      20.054324637330843      28.672456037839481
   136   1      18.847432334010868      21.479603085133423      1.3875287529503793
   137   1      17.221860462285616      22.894303583183447    0.044286722637821123
   138   1      18.788031397600943      24.392057450539141      1.4231442102282021
   139   1      17.336886557415095      25.869936890061247    0.028818858833051277
   140   1      18.811121553299628      27.314367836878603      1.4098945640375513
   141   1      20.105643428368662      28.665030108179142     0.02427121021230505
   142   1      21.511913408658465      1.4147059926128005      1.3951054749402496
   143   1      20.100546158888616      3.0102867903380122      28.642703200127659
   144   1      21.533210755266985      4.3001466811826656      1.4734819476383338
   145   1      20.026404395151246      5.7002214593532141      28.581831654791564
   146   1      21.502502897488704      7.1217866793608984       1.301569738005742
   147   1      19.929776106567889      8.5935529767624885      28.549871331174842
   148   1      21.356408797502706      10.065263885501976      1.3985020191970756
   149   1      19.877698977159096      11.530907645753384      28.605711353715563
   150   1       21.44415563535026      12.878649568512461      1.6192534161198293
   151   1      20.231350007373404      14.238136566376911      28.687407592583995
   152   1      21.531194824931621      15.909007743346553      1.4276534006096211
   153   1      20.152011932893348      17.451246229219365      28.625808208467923
   154   1      21.421790326954785      18.660827189316905      1.4660613514100413
   155   1      19.972908563111464      20.188416696813245     0.06340362888676046
   156   1      21.485953328093277      21.526201601496194      1.3544952310201892
   157   1      20.109433668807085      22.979672405144768      28.559720044317856
   158   1      21.445921446473424       24.34137984466707      1.4130631911295255
   159   1      20.129133778955214      25.733013604952777      28.624363378120734
   160   1      21.507057239820949      27.149767419166167      1.4370022039342074
   161   1      22.864688650051704      28.698453252123318      28.691652360734484
   162   1      24.406688191403777      1.5031929721698238      1.5295539934821805
   163   1      22.913293674527925      2.8681905892095552      28.619250175726513
   164   1      24.441110402379636      4.3549757449336326      1.5073403487893982
   165   1      23.027943752694394      5.7300690961333594     0.15118657998067417
   166   1      24.386408518172004      7.2485430888028271      1.4626986943263642
   167   1       23.00213082667106      8.7626898432120583     0.16254099341772427
   168   1      24.466970011023889      10.256698206492509      1.4817856171775483
   169   1      22.848071443406823      11.445013860650903     0.12555593497653481
   170   1      24.258136414163172      12.906234498639728      1.5307902563222566
   171   1       22.90903678671194      14.395061951263038     0.25901831067693581
   172   1      24.615895640863812      16.034324585742443      1.6453659076924385
   173   1      22.888975862263344       17.27975710287738      28.646717884897974
   174   1      24.345363098000306      18.621083630391485      1.4036215053810348
   175   1      23.009899396385933      20.107860942161565    0.024761340418285718
   176   1      24.313599140571686      21.528072259237426      1.3008955793325285
   177   1      22.978943633295103      22.913466378573254      28.605497834866398
   178   1       24.16302305930785      24.392926515680259      1.3826338200273189
   179   1      22.973487389929932      25.928056057045154      28.428340911405655
   180   1      24.377835029917602      27.228129166254234      1.1551678870142594
   181   1      25.955673776510444    0.099869290776145536       28.67467738211522
   182   1      27.149007827943855      1.5551882564980923      1.3965420257480212
   183   1      25.760693335003261      2.8841718212301211      28.616073473507047
   184   1       27.28775937137393      4.4478156847788082      1.4398271643408407
   185   1      25.741779094130976      5.7675129656820729     0.11356504818453467
   186   1      27.348418266057664      7.0808397865295376      1.4491968912254836
   187   1      25.856693052253902      8.6290146138144941     0.12252021014604689
   188   1      27.294423483073096      9.9876613960756959      1.4407514046778143
   189   1      25.647113736225947      11.451591791801249    0.006352933925097658
   190   1      27.302800441633334      13.032121999418477      1.4268124216877709
   191   1      25.782937975707554      14.359176059162969     0.17869100214419392
   192   1      27.386174316871397      15.768639253668686      1.3526926941098392
   193   1      25.654263273524524      17.190114870636535      28.554492990387558
   194   1      27.232625879896158      18.669413542047135      1.3378182971224177
   195   1      26.104338794025345      20.125862914956642      28.594348458779169
   196   1      27.124471665905368        21.7062103210448      1.4205201755450723
   197   1      25.736565493279674      23.173883718673167      28.662766883613557
   198   1      27.200798158792864      24.460581146556859        1.47839246755384
   199   1      25.744232652329885      25.662928554443127   0.0057437600503362791
   200   1      27.080240800234574      27.419788792929754      1.3599832790816424
   201   1      28.588271379465212     0.21096726571386196      2.6573575765451332
   202   1      1.5156125786235537      1.4120538171431349      4.2937494891867463
   203   1      28.646812463788482      2.7524624050488797      2.8496900175923638
   204   1      1.5862572903444287      4.3216857537876079      4.1295505935306496
   205   1     0.12399206805391752      5.7025337686155382      2.8256008145514215
   206   1         1.4780711459347      7.0653283121590453      4.2429861672891906
   207   1    0.031324028111146963      8.3970857325841042      2.8570514614785449
   208   1      1.4464996325002175      9.9673439132777624       4.323715794392708
   209   1      28.649144975320556      11.281513099376836      2.8421114712401843
   210   1      1.4942126378696228      12.977077052504672      4.3627397597136541
   211   1      28.568634499699755      14.366170746772813      2.9838364486824038
   212   1      1.2268062828297739       15.85693332710968      4.5181921371379312
   213   1    0.030761159193299397      17.213272674808742      2.7278425879467929
   214   1      1.3902550210228024      18.785997760877557      4.2859777915247497
   215   1      28.699358359162897      20.199023856256158      2.7300335632354056
   216   1      1.5386703487148592      21.595183521892729      4.1770123065600231
   217   1    0.074169602044914157      22.999962943792536      2.6746059778302747
   218   1      1.5416314150078068        24.3982261859327      4.2726854343942238
   219   1      28.546203261442049      26.131761985378411      2.8017623750139018
   220   1      1.3213019651600368      27.135917964637873      4.3347758965501706
   221   1      3.0542866353254885    0.016711403319766473      2.8630533174360604
   222   1      4.1771053717568822      1.4128741507640827      4.3915159235358772
   223   1      2.9221434300478681       2.999408605895391      2.8330680279290275
   224   1      4.3004206642838598      4.2712205737144515      4.3053436102967675
   225   1      2.8517519932561637      5.6760898428495254       2.789699663900115
   226   1      4.3252189240850232       7.167781635409713      4.3167485788560676
   227   1      2.8527739322705101      8.6966184648132678      2.9403381148771102
   228   1      4.1890462163831446      10.053183049038756      4.2895181015079045
   229   1      2.8243633602073599      11.610010947244234      2.7523529341351485
   230   1      4.2340086759914826      12.952092998607865      4.3834775459350901
   231   1      2.8206175807736265      14.557597063830402      2.9112182589881184
   232   1      4.2440516530845267      15.916877435479456      4.3066969248000122
   233   1      2.7778355961661432      17.213881810042018      3.0457441859265928
   234   1      4.2636831605170826      18.627931940162128      4.3331687820399232
   235   1      2.8997421472125726      20.065683248757562      2.8420375653779617
   236   1      4.5646895512370396      21.514357161153793      4.3835350272214093
   237   1      3.1386276608066765      23.122013555207058      2.8458532794822995
   238   1      4.4569603954877879      24.317804617178538      4.3390219022119343
   239   1      2.8096990848828356       25.91048530269741      2.8699002710416259
   240   1      4.3374184468020438      27.171827345896187      4.3752012204297923
   241   1      5.5576953585212765    0.092120505074376746       2.875039924821396
   242   1      7.2704558672621005      1.2487862450010982      4.3940807122015704
   243   1      5.7394449986471399      2.8811651846187512      2.7229961845758215
   244   1      6.9705870896537974      4.1208282244587355      4.2358308155417168
   245   1      5.5934098184006773      5.7090895938083426      2.9836839280183796
   246   1      7.3301305748209282      7.0067376429972246      4.2149443770399149
   247   1      5.7893318503272448      8.4958843469069958      2.7450680745733402
   248   1      7.3089825117522835       10.09520606484776      4.3331901781269853
   249   1      5.4328871709120055      11.550308242909624      2.8527172902447759
   250   1       7.136757568284378      13.014953387560602      3.9841905674152946
   251   1      5.7078162276541402      14.410569133988076      2.7178208696840778
   252   1      7.1861051740878477      15.897927470310858      4.1571697883123386
   253   1      5.7733667820403429      17.209854594643591      2.8561297188798105
   254   1      7.2286365973590163      18.665282607776017      4.3238036067359324
   255   1       5.800801690716634      20.167919356763139      2.7214125187388492
   256   1      7.0786526910216025      21.502518463951517      4.3654521994004627
   257   1      5.7684112277330977      23.166592100828797      2.5625284508371364
   258   1      7.2684627994227577      24.455758137242945      4.2478047552379934
   259   1      5.8565341056149718      25.915454802675292      2.8423204395087405
   260   1      7.1406987228106669      27.418820941834554      4.3498607540011305
   261   1      8.6103633374253352       28.52104903297877      2.8630418901866284
   262   1      10.013096411073516      1.4619967127852542      4.3499451424340103
   263   1      8.4499909582487689      2.8930116961682559      2.8173883583836639
   264   1      10.181153918563297       4.388163309694999      4.3233995469392914
   265   1      8.7741484660105442      5.5985568977309761       2.725025224926684
   266   1      10.046524365771678      7.2328252595067104      4.4604300180663117
   267   1      8.5628879207346245      8.7830913673644684      2.9125728795885819
   268   1      10.166092134640554      10.244901883857006      4.3200880664946482
   269   1      8.6309313149525231      11.567914828531521      2.9798459399118742
   270   1      10.060779257339481      13.089995175828832      4.3811730774161282
   271   1       8.491108080461844      14.555739633980298      2.7041156101833619
   272   1      10.055096233635242      15.690868946604255       4.432815806753915
   273   1      8.5220146914853832      17.311754611841881      2.8449620640387701
   274   1      10.212073447706556      18.583938273795773      4.1808141027341508
   275   1      8.5445203610420464      20.157400865952638       2.800649452620473
   276   1      9.9985668297479258      21.451218007265812      4.2516983056991124
   277   1      8.6223026553491309      22.827824496759366      2.8217860170232485
   278   1      10.032427190867063      24.238459857806355        4.31530801638801
   279   1      8.7560108717980327      25.918977234600803      2.8973332697687764
   280   1      10.162077204953759      27.155705153378218      4.5183369132038464
   281   1      11.497369894036467    0.069580938830176978      2.9191107760131296
   282   1      12.888237111854529      1.4588714643448266      4.3688734443532189
   283   1      11.551061638146136       3.010966566644012      2.9752920933769786
   284   1      12.945123108335176      4.2297577350684517       4.238642290941141
   285   1      11.303558303896716      5.9154027230595077      2.7369659923123879
   286   1      12.993800099656093      7.1754896075132431      4.4698579679527768
   287   1       11.39082892483853      8.6415259185947253      3.0370429757874975
   288   1      12.860181646796979      10.348413542374924      4.2304043056233187
   289   1      11.630983263205717      11.769784940793274      2.8495864855189663
   290   1      13.072468267200945      13.155574878450315      4.2007929407291602
   291   1      11.435049625991105      14.217494741721348      2.8884052327629033
   292   1      12.864016890989303      15.804539534101853      4.2669424612102063
   293   1      11.346143261619442      17.168450278838801      2.6872790548905425
   294   1      12.881393803488878      18.684740809650766         4.2889609087022
   295   1      11.537288890349865      20.055643838590449      2.7495747376195485
   296   1      13.033698747362635      21.408840829283331      4.1950080346620187
   297   1      11.484052315262879      22.939133447058484      2.8405239414308654
   298   1      12.911501862065419      24.334371832812042      4.5417508523396117
   299   1      11.478350701522753      25.801632514177776      2.8240824684993053
   300   1      12.694899406515638      27.334422731921016      4.2824719829228295
   301   1      14.224293556287783      28.658683195858874      2.9121219961490481
   302   1      15.666509294792535      1.5030179870435165       4.315085354892604
   303   1      14.154734931752211      2.7504798066963065      2.6471238045354637
   304   1       15.64413861055173      4.2365147079702075      4.1975741621704863
   305   1      14.150153402751503      5.5817597083526724      2.7432107319218839
   306   1      15.786672992433736      7.1182209294003504      4.3420366852334658
   307   1      14.480978579500007      8.7684154737691866      3.0576398233724023
   308   1       16.01062899647096      10.161665032030916      4.2637811936424974
   309   1       14.45484679057906      11.423918543337068      2.7896436899417139
   310   1      15.966981174133084      12.999585582236065      4.3745591932822352
   311   1        14.6095480101979      14.345722176489565      2.9015131162807117
   312   1      15.653688208950292       15.75017302008005      4.4633174408238627
   313   1      14.098095027873278      17.243215990376708      2.8473679983215092
   314   1      15.781027684010175      18.649778478178625      4.3001031406597416
   315   1      14.417332524831705      20.023888419148612      2.7992435978836947
   316   1      15.787491256266893       21.60207358674279      4.3059323599979384
   317   1      14.467788374759468      22.953895694418797      2.9176725954893752
   318   1      15.780751294075955       24.43265844103232      4.1977545379292103
   319   1      14.197359220245756      25.902443924715648      2.9139563194154188
   320   1      15.680335536030105      27.308189576318096       4.267184964261677
   321   1      17.289863018832246      28.688864912369571      2.8198383271366882
   322   1      18.668303776098274      1.4206482016152344      4.2375525785332142
   323   1      17.378651050988093      2.7130917603445024      2.7050982413546976
   324   1      18.796643452524481      4.3158147760451548      4.2393121095911752
   325   1      16.939066482620824      5.5585701851688833      2.8787567992266094
   326   1      18.564535560004284      7.0375500230439112      4.0755087205434597
   327   1      17.141451080272223      8.6714455075434387      2.8772135307182793
   328   1      18.736630055729741      10.080637383517029      4.2023747351442697
   329   1      17.250427429644741      11.434217395119132      2.7841946492215248
   330   1      18.634124182776898      12.983976454877372      4.0949786557194123
   331   1      17.213877886285193      14.444943058462014      2.8754801920128865
   332   1      18.557455535889492      15.939204325154785      4.3451825350475524
   333   1      17.157702243937159      17.218585708456899      2.8976662342439878
   334   1      18.654802047490652      18.783901360723931      4.2275448913093632
   335   1      17.326481898198374      20.237816311256537       2.692523427333914
   336   1      18.532278428289857      21.570719026565911      4.2857423433911555
   337   1      17.264014665647128      22.921548016007012      2.7730589022566825
   338   1      18.388327802850778      24.412686818123372      4.2746590142097842
   339   1      17.119143634458531       25.76624330180827      2.6506970916803874
   340   1      18.513715274207822      27.246704946137356      4.3681461927652299
   341   1      20.034912978859321      28.623879758168133      3.0147097906203357
   342   1      21.454474459122547      1.3889407059517569      4.1720013667034248
   343   1      20.020088594150302      2.8450136459027715      2.5610673539287512
   344   1      21.205680801475822      4.2006045934731118      4.1089971103225018
   345   1      20.039834746527177      5.8472537866670526      2.7600917448945772
   346   1      21.570115742909049        6.97327531281669       4.260564428767549
   347   1      19.984923306154201      8.6880774210273799      2.9166996328072505
   348   1      21.567179422051719      9.9788103945171329      4.3033601710815841
   349   1      20.069202704091268      11.265659257817562      2.9214091337937824
   350   1      21.599552124856469      12.879572262667965      4.2733271427617554
   351   1      20.195466803165026      14.440419407420723      3.1064909920517141
   352   1      21.631723273898608      15.853674089512813      4.5295268808614644
   353   1      20.161373306267365      17.086986575156534      3.0508514603701395
   354   1      21.398636464360901      18.576184044222316      4.5139450716886325
   355   1      19.985315889550403      20.131714554099045      2.9045867661874269
   356   1      21.587475941365806       21.57103824866326      4.3278475332994359
   357   1      20.174214386678521      22.777140036110328      2.8619643170423039
   358   1      21.623629661105351      24.492848459795322      4.2206833626660538
   359   1      19.907838562825315      25.667475509598823      2.8069286040861692