dump/Fe_1050_0/steps_71 (written by ASE) 

2000 	 atoms 
1  atom types
0.0      28.699999999999999  xlo xhi
0.0      28.699999999999999  ylo yhi
0.0      28.699999999999999  zlo zhi


Atoms 

     1   1      28.570862091727463      28.606218085221172    0.077308272663856203
     2   1      1.4014562035892812      1.2426703290268506      1.5397112979989962
     3   1    0.077646495588419434      2.9292971356837381    0.013726934293924841
     4   1      1.3426516501938972      4.4408236669912009      1.3803176850719401
     5   1   0.0037192775121091632      5.7467187733916649      28.526048341400781
     6   1      1.6996669185528279      7.2037297073631699      1.4412998634800132
     7   1      28.413772960497866      8.5911716356399079    0.019886504477267412
     8   1      1.4243769375175608       9.925871558032977      1.3327993107499321
     9   1      28.676928086926011      11.573184671084359   0.0077437182345988682
    10   1       1.239943971233618      13.163376652128273      1.4383549111204266
    11   1      28.426500086697132      14.516252892745547      28.678010767621146
    12   1      1.3357699418366702      15.655849903827102      1.7111308482371215
    13   1    0.039529945880509593      17.362879954944365    0.098620651860835559
    14   1      1.3833526782526766      18.548903725211478      1.5796015499088645
    15   1     0.05953609669081858      19.977170446345195     0.25215912403456281
    16   1      1.3894429699463229      21.567477094553219      1.6190553523198801
    17   1      28.569540566373192       22.92597640920247     0.16602588123949988
    18   1      1.1226133734985762       24.39560836454136      1.6114557787513601
    19   1    0.055529360366041829      25.992477288946134     0.16086546528488266
    20   1      1.3193672634424967      27.352628911689973      1.5653575856950515
    21   1      2.8805696774474505     0.22984739576676427      28.554568161919121
    22   1      4.3124381673916821      1.4456572976547468      1.6036625669863724
    23   1       2.898958784445381      3.1086112733839295     0.17948739932099902
    24   1      4.3652502878149795       4.292148596833341      1.4077598276346399
    25   1      2.9077841890526566      5.8355267110089777      28.676775133575561
    26   1      4.2448577808255745      7.1407423257609945      1.2891981942250355
    27   1      2.9996771395063107      8.5446851921041524      28.604744171123286
    28   1      4.2182528677599294      9.8800222999315874      1.4443111827914217
    29   1      2.6905222677626073      11.442307763796036      28.677091601394427
    30   1      4.2813119241067694      12.735580889036997       1.313419764383843
    31   1      2.8746613602121895      14.358732571879267      28.421610176578231
    32   1      4.2418826411848745      15.735281231079831      1.4880443937022261
    33   1      2.8038186147027222      17.055142865092122     0.23098111444120367
    34   1      4.0952071596749677      18.680388483493434      1.6063895683660563
    35   1      2.7352910865936098      20.108007878150474     0.13584514780434359
    36   1      4.1813361991325682       21.53936093081548      1.6484962646951549
    37   1      2.7013189716004056       22.99364987632022      28.685622136500633
    38   1      4.3283327386133612      24.575333228361686      1.1317641930371551
    39   1      2.8720737977239694      26.008764335196233     0.15504746779555498
    40   1      4.2653139260080426      27.353417819061715      1.3955494843424394
    41   1      5.6688912686772195      28.643427781981504      28.579757499793587
    42   1      7.0223994075536984      1.5638906611788697      1.3691704014066326
    43   1       5.515435953169284      2.8928953261685382      28.553627293403466
    44   1      7.0187251774258224        4.28293314472341      1.3902444686312154
    45   1      5.7032873219287819      5.7648088536056621    0.094819005495469233
    46   1      7.0299689324420997      7.2701864291898541      1.3163838130698986
    47   1       5.737683231557889      8.7019955197285839      28.614692364476685
    48   1      7.0903899619531661       10.00390023183432      1.3591651801412241
    49   1      5.8607480760105588      11.382258505813709      28.661585814342235
    50   1      7.2539272577614424      12.776222112530553      1.4167081131932477
    51   1      5.5460277171449439      14.251963472976913      28.565999932347101
    52   1      7.1586295832524467      15.609654831036442      1.4978057159480618
    53   1      5.6479848634285146      17.298276070380094     0.10925807943081041
    54   1      7.1143216556272222      18.690281489108717      1.4702314713807834
    55   1      5.6782360054512191      20.216298501133011    0.044913732796430919
    56   1      7.2130375194587515      21.507708746769303      1.5156920462853112
    57   1      5.7588672571081494      22.909369877663543    0.043418933987163781
    58   1       7.190058214552991      24.278864013160476      1.3714191256985475
    59   1      5.8819659850404395      25.958607314864341       28.51114074682252
    60   1      6.9591184161928892      27.389414377279518      1.4011269706358225
    61   1      8.8380440029966092     0.10557623120735116    0.065108864272508643
    62   1      10.147863616148266      1.4008074845606515      1.5013949483291646
    63   1      8.4726420423254343      3.0750156472477439     0.11179339844156855
    64   1      10.004919609958687       4.368477390492866      1.4443243657633844
    65   1      8.5407529757387728      5.7474959097375367   0.0056266970815158721
    66   1      9.8324802529115871      7.1143371655879459      1.5748269187232027
    67   1      8.5134242472538517      8.5304812510984096     0.17327965106222787
    68   1      10.186971591980349      9.8410987231276046      1.4409811780793911
    69   1       8.651025546903071      11.287815253489381      28.539692832752767
    70   1      10.072277004646821      12.661640625049658      1.3946587458307005
    71   1      8.5913749516604963      14.237314827544283     0.19755300557842478
    72   1      10.201789647388308      15.577626173758865      1.4826379590812155
    73   1      8.4906210306507841      17.119825834169401     0.10719675244018836
    74   1      9.8831720898949165      18.581534004604439      1.6172774714244951
    75   1      8.7310355392319163      19.984891873976451    0.021929472732756482
    76   1      9.9309710742561617      21.447600350422757      1.5966471605449113
    77   1      8.7812007848850708      22.947428544243721      28.513531939660815
    78   1      9.9875246388341825      24.360676413397883      1.6047569619507487
    79   1      8.5887262444003785      25.827065515795312    0.024350981775660321
    80   1      10.072862849384675      27.016522034030363      1.4618893730654354
    81   1      11.526538965797036      28.565171096961496     0.18984325040346453
    82   1       13.08410742588717      1.5261988351665294      1.5512049947500712
    83   1        11.4908573522537       2.915430972698525    0.089221585768507194
    84   1       13.16973099056352       4.312914073295901       1.410714576473789
    85   1      11.512031845687252      5.7139393622121908    0.056548108767651623
    86   1      13.119804791958462      7.0558299076304358      1.2112678686649914
    87   1       11.71163888843876      8.6072588464776114     0.04068229920327425
    88   1      13.236579533384679      10.074029191156804      1.2809911114620367
    89   1      11.506193920617827      11.482489546201553    0.029089346855448558
    90   1       12.94344516195274      13.065274504159481      1.4948944854806092
    91   1       11.41091584363917      14.564871076143538      28.589903660206183
    92   1      12.690586863573456      15.772916523434189       1.291497842992805
    93   1      11.312669977173256      17.412112368346026    0.041828358257782763
    94   1      12.802382961215619      18.579956991351231       1.412831298710852
    95   1      11.216734581375013      20.160597292651911      28.544701227238953
    96   1      12.873738783216112      21.475033287231511      1.5291622115925392
    97   1       11.52414656360064      22.909965391719368    0.038615836229689768
    98   1      13.055499187098549      24.115296995410151      1.5288897882656902
    99   1      11.549062234532277      25.633166019783836      28.681254330429823
   100   1      13.028464668837399      27.220588010366498      1.3579750658127412
   101   1      14.208079930517433     0.06473268473337325       28.66713307416487
   102   1      15.950632930041467      1.3854821241164685      1.4170100280489113
   103   1      14.401280231475157      2.8136194788200344      28.501138204321069
   104   1      15.894397559726034      4.4783979131008556       1.350269842807972
   105   1       14.63750944157761      5.6734300393392054      28.509181389140593
   106   1      15.875357119697442      7.3376505614262264      1.3461386169001801
   107   1      14.386749668966452      8.5585877559037016      28.605718110523345
   108   1      15.793244407212915      10.132465936691029       1.239526880857921
   109   1      14.355734413404914      11.512707259505614      28.625607740497404
   110   1      15.819587686618268      12.957059035828353      1.3154827703458647
   111   1      14.091543655789472      14.313846915826913      28.627976068151128
   112   1      15.655300796854187      15.718954410825479      1.4500544245179283
   113   1      14.338256726560815      17.252809422693531      28.558262074371264
   114   1      15.887360784477902      18.862399830493811      1.2812383819455022
   115   1      14.210116094507558      19.935676436239739      28.683738385699144
   116   1      15.883323850966105      21.472625565655278      1.2911168853783703
   117   1      14.251323216792501      22.818801503446956      28.574606665773942
   118   1      15.728253949114414      24.210903913266421      1.4034784071901982
   119   1      14.356773937257742      25.654635389495322      28.577617360139342
   120   1      15.751771390158872      27.212972500948933       1.364361217933334
   121   1       17.15620687203452      28.591555173246423      28.662790922394166
   122   1      18.547617536407444      1.4698679928277214      1.5828968197854358
   123   1      17.240573321616218      2.8800454918997183     0.01859981870126147
   124   1      18.600548625317813       4.371744661097611      1.5777907613430895
   125   1      17.343438096339554      5.6758470369666743      28.497317326186636
   126   1      18.616655515990292      7.3188738161927454      1.1162100651131472
   127   1       17.18512046401078       8.544766704919466       28.50423605425333
   128   1      18.434327403662902      10.325150209585139      1.3362901135608813
   129   1      17.046570704945879      11.409179471914843      28.575537295906162
   130   1      18.509799678219714      13.191155121601868      1.3802391363518831
   131   1      17.135727152071073      14.475589905184998    0.043666560286828693
   132   1      18.676459856335704      16.057957309601232      1.5003771246835855
   133   1      16.997771322212923      17.124655501754116    0.034536886339412771
   134   1      18.610209052067674       18.69768190851067      1.3299531151553081
   135   1      17.354955369401843      20.025311147760355       28.56152676936258
   136   1      18.778822989168514       21.48237883440606      1.3816206560626376
   137   1      17.343301345284324      22.845037608331936      28.458907121580708
   138   1      18.437759783053796      24.126848236295796      1.5628995475603464
   139   1       17.23956581986414      25.726181958445821      28.566911597409259
   140   1       18.56380032783861      27.326216309159669      1.6948956098203551
   141   1      19.865191364854535     0.05039295799823551     0.28934336858849413
   142   1       21.51413760034476      1.4867525622722846      1.2977383831182341
   143   1      19.976924713585998       2.928243412577749    0.068300701046564369
   144   1      21.462863966853472      4.2969504065336936      1.4378533271938183
   145   1      20.015011961324692      5.7441884266065921   0.0089313082753392451
   146   1      21.502199162261142      7.5054029843230845      1.3814579943334599
   147   1      20.095702781570445      8.7718791164089698        28.6090874744791
   148   1      21.570556798976746      10.273478892576257      1.4921165013284046
   149   1      20.229910443058348      11.687115006225861      28.634052602777729
   150   1       21.62373378323878      13.131794114457126         1.4756782667641
   151   1      20.227191127816937      14.525095711960631    0.045164054123540666
   152   1      21.551330988505821      15.890003761045547      1.4658302904277076
   153   1      20.313915860400066      17.477326592972883    0.059419692239077976
   154   1      21.751671175171023      18.755421707793104      1.5007457470862517
   155   1      20.270709088224205      19.956803517154729      28.666996684630867
   156   1      21.746124394851261      21.602708953456236      1.6149098183604671
   157   1      20.283837955921847      22.833084837865893    0.029039056415797342
   158   1      21.418168562554126      24.495945458794278       1.261351764535777
   159   1      19.924582441936579      25.852843378408213    0.036064737009269321
   160   1      21.481520691489759      27.195670884047694      1.2244531987575098
   161   1      22.896203737739231      28.566207301992648      28.693171255585085
   162   1      24.344841712542557      1.5989304625809266       1.312085594088829
   163   1      22.907621490561358      3.3272788343653366     0.11159202793149926
   164   1      24.349265462224366      4.5436564641315931      1.4486095910253884
   165   1      22.843947605954643      5.7494672313379089      28.657649648326302
   166   1      24.311158741434905      7.2566527467591104      1.3484648007005955
   167   1      22.955282228311717      8.7153044108175219      28.573154594363789
   168   1      24.292814342801954      10.221367756669999      1.2777559255420428
   169   1      23.078397820656843      11.698867599548869      28.676527987023494
   170   1      24.481185735000633      12.920393930517587      1.5565939369354389
   171   1      22.996834826387417      14.330005499002057     0.08789159375580774
   172   1      24.393844290656876       15.51760554330942      1.4939389080409671
   173   1      22.964206945386579      17.376044006309932   0.0049162213634076704
   174   1      24.444618204262923       18.63373716181319      1.4486833055693522
   175   1      23.003523156284352       20.18071332232212      28.661078204875849
   176   1      24.356344869484953      21.673684280137131      1.3774658401789452
   177   1      23.034935673341572      23.270818600371555     0.15148871000575342
   178   1      24.337413706239275      24.438789450120186      1.4244902356219526
   179   1      23.140849887529523      25.904811412439926      28.487276103284231
   180   1      24.383033924429057      27.374742870133939      1.6445933349572202
   181   1      25.859034592457316        28.5808830724331      28.679913663012627
   182   1      27.308364278395469      1.3403364365849151      1.3844320417999596
   183   1      25.619413022142457      2.7747694712539328      28.618787622300609
   184   1      27.159089764405021      4.1771021418631564      1.4390827587165289
   185   1      25.767296670807749      5.7103710012318363      28.682354118529183
   186   1      26.909476842083603      7.2345029413762276      1.3545354211504661
   187   1      25.684926416493788      8.6819294727136871      28.687370880494107
   188   1      27.363336880154552      10.229943911415305      1.3886814080212844
   189   1      25.697376444622527      11.496593835051627    0.031979240181817734
   190   1      27.411263735439263      13.007428923048938      1.4854197324253735
   191   1      25.860918566648866       14.36580467814065    0.056964542146738517
   192   1      27.265820838020385       15.69456946971958      1.4159692824719279
   193   1      25.784963755712877      17.216134081774353    0.096672403840875651
   194   1      27.158267107129927      18.621842755964831      1.4746479800240864
   195   1      25.861741184528768      20.113105867618984     0.10978235102869585
   196   1      27.466842029264196      21.479104496566347      1.5034560680529019
   197   1      25.873076795272858      22.865568576086581    0.093900860604026082
   198   1      27.049367485185442      24.438009781926631       1.634418889308495
   199   1      25.820545190208556      25.774208601854134      28.689456028433483
   200   1      27.106100277508212      27.328841521372141      1.6428813922997034
   201   1      28.485685106901684       28.64969937104782       2.937757071556264
   202   1       1.302798329941607      1.3499043205467838      4.3876257022754466
   203   1    0.064105017059364694      2.7795078330317549       2.996109943297689
   204   1      1.4607807869886311      4.2526004537693103      4.2272007017257387
   205   1      28.463065233617698      5.8345863172455612      2.6384411699551467
   206   1      1.4289193971411709       7.358859760489791      4.2819080593792345
   207   1      28.596964629349035      8.5892238026594399      2.6695048964882506
   208   1      1.3712754693416862      10.001682474567101       4.325175261121788
   209   1    0.085267443337466747      11.473747550485255      2.7216393605754101
   210   1      1.4171380873736554      12.755806399363673      4.3697819890820027
   211   1    0.048881103653674235      14.505235611311791      3.1107846485021042
   212   1      1.6256508182799978      15.928101895375898       4.544340395984614
   213   1    0.029138785919714305      17.301145447064769      2.9407192595257401
   214   1      1.5057670462934092      18.582362300645535      4.4138965968796464
   215   1       28.63844600648665      20.033946663292536      3.0223431144478807
   216   1      1.5657477724121038      21.441647382867945      4.3885717378849751
   217   1      28.688914557114998      23.042405814623304      3.2414368527207569
   218   1       1.501798093102743      24.574133786801511      4.5152195583023724
   219   1    0.030813901770126835      25.804174066282314      3.1264379890777407
   220   1      1.6863893254454205      27.392141698401744      4.5630544615964883
   221   1      3.2066620664270888      28.641874436210685      3.0312033105656924
   222   1      4.2494071115075966      1.3802201104532168      4.4365984034738872
   223   1      2.8747804688402989      2.9336873405168475      2.8348542624720836
   224   1      4.3451614355403496      4.3335720819439123      4.4428534492925165
   225   1      3.0585890536307359      5.6888037038718862      2.9525060650828525
   226   1      4.2474400323299175      7.0383572916925017      4.3477692438307658
   227   1      2.7877843532845534      8.4902511586856662      2.9083749498631861
   228   1      4.3943736559419255      9.8889264136979289      4.1462951198827263
   229   1      2.7694963506123726       11.41148961043149      2.8427564491870272
   230   1      4.1899517051521729      12.643802528712465      4.2984443147518414
   231   1      2.9137981267210038      14.329654073887577      2.9831772561830903
   232   1       4.325310394993493      15.867537859394906      4.1727244104023145
   233   1      2.8795386690288423      17.030430939932643       2.902478263411612
   234   1      4.3742246298919953      18.753287456459454      4.2335667233976277
   235   1      2.8085023341965449      20.118052693975248      3.1039978805256174
   236   1      4.2670864716507273      21.511438357232542      4.6096101440374868
   237   1      2.8882371236251161      23.133221496150735      2.8210787190982853
   238   1      4.3886032650921294      24.550168239724439      4.3975035804229696
   239   1      2.9851684780798773      25.769499485115976      2.7567506596232287
   240   1       4.370217351685894      27.253312408371563      4.2994586968450443
   241   1      5.7116053805646008     0.11778583410219903      2.9917095351678067
   242   1      7.2051828654937013      1.3951343268828169      4.2717182637389435
   243   1      5.8907525883041307      3.0305841586717435       2.943127611751386
   244   1      7.2574363264185173      4.5117901841279702       4.354299070103604
   245   1      5.8409183111431826      5.6609288615907749      2.7105662070678238
   246   1      7.2551322351393601      6.9696552833642382      4.3344984596741307
   247   1      5.7963139197187328      8.4419756616937018      2.9353804031592947
   248   1      7.1495060438847347      9.8471591157378402      4.5847176978001505
   249   1      5.7165443523431598      11.310060388614174      2.7786472666029449
   250   1      7.2526712136163942      12.669762287101038      4.0911084219018896
   251   1      5.6857609658418244      14.302734291593456      2.7908297944599307
   252   1      7.0932643342742123      15.682067239766386      4.1728780341970717
   253   1      5.5682989620078631      17.276052827247394       2.822665146834038
   254   1      7.1643530756071385      18.668271591359403      4.2373412702246771
   255   1      5.6561981386763591      20.154664214795964      2.9565589672023318
   256   1      7.0656773051374016      21.564011082710419      4.4757586243071694
   257   1      5.7069645873595309      22.986527255783738      2.8504459960168997
   258   1      7.1883660605743867      24.465402541310521      4.3236689378573807
   259   1      5.7367695775522742      25.739646657038389      2.7104895328790799
   260   1       7.156907763504317      27.288100669012888      4.3261182900237447
   261   1      8.4807719488474955      28.488044304674904      2.7889437927209544
   262   1      10.085931517974561      1.3975061086148335      4.2485004217430422
   263   1      8.6025763475463854      2.8784686128165955       2.902196136373477
   264   1      10.057645975574708      4.4634962123002309      4.1905934465001948
   265   1      8.3575571608010666      5.7003556003315721      2.7734147190577225
   266   1      10.015778866292395       7.177273145831391      4.0958540734417701
   267   1      8.6376672607129752      8.7521833329619323      2.9285613790470562
   268   1      10.135637170424115      9.9688297409554103      4.4383266391409411
   269   1      8.7589662818069236      11.116847869034777      2.8051598871252517
   270   1      9.9972109175567105      12.668112264404115      4.2294545411022906
   271   1      8.6077931316234189      14.358958655647074      2.8802441466536868
   272   1      10.017032012821963      15.912852329042117      4.1577821314251766
   273   1      8.6424604160257115      17.047700730580186      2.8506226133585066
   274   1      9.8093221767872425      18.591245481849736      4.4380565085433172
   275   1      8.6120652433885336      20.048858830819597      2.9414855634034822
   276   1      9.8651207803964933      21.440386339008032      4.2227826453152275
   277   1      8.5212571962446706      22.967686603585946      2.9944796530875406
   278   1      10.035978248305765      24.490636267893912      4.2531510493579043
   279   1      8.6334954278506313      25.689482714154366      2.7701877141663185
   280   1      10.056154861903027      27.260006630192876      4.2493099460030974
   281   1      11.547763991633854      28.523976474197017      2.8934981431453739
   282   1      13.016779992690289       1.492046638341787      4.0925669809166081
   283   1      11.371292320218712      3.0011225305742957      2.8779315796944336
   284   1      12.965849363530218      4.2918343721734287      4.2799046704588344
   285   1      11.581029670273782      5.8033465279314633      2.8351771705651561
   286   1      12.915658381770092      7.2692817985795841      4.1783995614953104
   287   1      11.678957232181016      8.6375306799634899      2.7829091809997966
   288   1      13.072834770377685       9.997525108655358      4.3893654086232363
   289   1      11.496741786705039      11.240090720650006      2.7928103867637541
   290   1      12.978317773948316      13.104227754903073        4.21415750106899
   291   1      11.639847559099302      14.255742379045094      2.8483250772681901
   292   1      12.784798296269202       16.10322710581513      4.2248921028551765
   293   1      11.475653742581423      17.263678350404032      2.7938908481527385
   294   1      12.820399293673475      18.557494601925487      4.3582159424288154
   295   1      11.332543392771553      19.976819004489226      2.9959542713900524
   296   1      12.801986008623437      21.595939500418396      4.0357569717439681
   297   1      11.273929554957521      22.942602631131344       2.852425436848181
   298   1       12.93829119608198      24.260567813830839      4.1754878788151135
   299   1      11.632193903618473      25.667746105329922      2.6979488009518473
   300   1      13.126181675258229      27.309929690638164      4.2434728723221271
   301   1      14.504088939138988    0.041441398125971536      2.8702580243347771
   302   1      15.732168295631407      1.6542820155141738      4.2290780378236601
   303   1      14.594393920540252      3.0673119317503024      2.8155654121357303
   304   1      15.800338731091799      4.4379212347556969      4.3655133131527979
   305   1       14.51239277449432      5.8956127188906748      2.8188563908725759
   306   1      15.930831169901385      7.1793053988516196      4.2899517093061164
   307   1      14.574155310511854      8.4683851990827215      2.7847878701990223
   308   1      15.870816708734912      10.049448969008882      4.3044768052828601
   309   1      14.503320174210044      11.329287733650945      2.8923968165288967
   310   1      15.556597584489039      13.029805380131272      4.2048396628081841
   311   1      14.182325929705343      14.493453776995015      2.8501377813788262
   312   1      15.691543003755068      15.892387073399409      4.3924342061310631
   313   1      14.417541735540269      17.373463454521929      2.8404888894011164
   314   1      15.832866066967238      18.614316903987966      4.3136421668721487
   315   1      14.512437536415108       20.17889646685715      2.9793906305817131
   316   1      15.981639685383318      21.480173617509738      4.4273749869143222
   317   1      14.466358066076964      22.760231325551924      2.8413125342740164
   318   1      15.555507995640554      24.367714183549239      4.2480804301073283
   319   1      14.464517109434986      25.900945775729078      2.8711531108798991
   320   1      15.798222742609013      27.263252521696746      4.3379916872211544
   321   1      17.087511428102736      28.573992633945341      2.7996562983771813
   322   1      18.519454513954837      1.3979271701495237      4.3829447248686098
   323   1       17.26959399798422      2.9713285331353387      2.8788569403930269
   324   1      18.785481464858741      4.5021273589239845      4.4811419136703057
   325   1      17.296935927396337      5.7781838316775866      2.6267298055178463
   326   1      18.576715044949541      7.3412155266804104      4.1661097447792121
   327   1      17.173372539321818      8.6512333564328063      2.7150152149492088
   328   1      18.533344289713202      10.128720379213366      4.3700146783381513
   329   1      17.308817737683363      11.631059752432149      3.0741632661935925
   330   1      18.747680458368652      12.883121066674766      4.3901911565352414
   331   1      17.206180549396446      14.494056992817987      2.9795981809168994
   332   1      18.823314883802631      16.028473886032202       4.235904665642491
   333   1      17.273864234451246       17.38479166380159       3.014515692324947
   334   1      18.796991013330533      18.616473020235638      4.2184109348132042
   335   1      17.342390616396401      20.194821675194071       2.851006172850362
   336   1      18.834996169675748       21.58353113424192      4.3825619995766907
   337   1      17.146231033662591      22.939650219274924      3.1073232938963495
   338   1      18.619162895846522      24.358990558023812      4.4272883892508395
   339   1      17.181284718082765      26.011827270833471      2.9050719080787974
   340   1      18.608715580436652      27.404681435367024      4.3505907639542718
   341   1      20.155291369705967    0.032987050576377963      2.8224696250258505
   342   1       21.59174027491607      1.3369732810838275       4.269829582842851
   343   1      20.088957324914613      2.8595964918975589      2.9169627674264316
   344   1      21.414482157115103      4.4065947802900984      4.1634374131988183
   345   1      19.969363508852485       5.968092428653585      2.6535638854706902
   346   1      21.622547213355453      7.3794084653224621      4.1166809843813175
   347   1      19.972368041684078       8.920639695606047      2.5912858605855926
   348   1      21.611043822397658      10.218893692032237      4.3266418252179388
   349   1      20.089466233577387       11.53540980308755      2.7651578327939097
   350   1      21.577098932838364      12.858258129304827      4.3005508041375613
   351   1      20.258086947144456      14.467298593635245      2.9627603866559884
   352   1       21.69732578725484      15.763654937191898      4.5048657886983277
   353   1      20.433805121947533      17.260360318072554      2.8681035902299543
   354   1      21.793998961236866       18.65644675589192      4.2965952786330339
   355   1      20.198380788336728      20.123073500840366      2.9385521932899814
   356   1      21.453188524641675      21.444026891970399      4.4265510502350667
   357   1      20.103966406592175      22.901902946052601      2.9226921720001808
   358   1      21.558389564263333      24.313237791010156       4.570629546871654
   359   1      19.970727164336676      25.710889090681484      2.9325150753668408