dump/Fe_1050_0/steps_31 (written by ASE) 

2000 	 atoms 
1  atom types
0.0      28.699999999999999  xlo xhi
0.0      28.699999999999999  ylo yhi
0.0      28.699999999999999  zlo zhi


Atoms 

     1   1   0.0058347681909026771      0.2574594984279997   0.0069604500432660678
     2   1      1.5612663541259608      1.6800484001376397      1.5157239639499482
     3   1      28.644554058613551      2.6608183614247212      28.572264304974894
     4   1      1.5222302556037572      4.1407175496208541      1.1870885427855897
     5   1      28.670893326551127      6.0017429270531144      28.675087776346963
     6   1       1.451206706378583      7.3331014334007296      1.6274339500778514
     7   1      28.615019646909563      8.7662958291649531      28.646991806994365
     8   1       1.315562461304705      10.055901930567591      1.4571062312516816
     9   1    0.030714399015346908      11.437692597171845    0.049689079970346509
    10   1      1.4079429943866342      12.914926585267372      1.4031932548497135
    11   1    0.035669768839910417      14.341538541588339    0.043337577114698496
    12   1      1.4687177623330183      15.845336079964513      1.6437291451329981
    13   1      28.672683343209091      16.967744866221484     0.18234655727253538
    14   1      1.4736491225383472       18.52860098438331      1.5196332747012662
    15   1        28.5573995491898      20.032259272804438      28.558180467391196
    16   1      1.4949498640834471      21.651116279619689      1.3261687289329296
    17   1     0.16400113160420104      22.926461710916154      28.516354006825797
    18   1      1.5666369484250509       24.40774000421802      1.2254550418665417
    19   1    0.063217355160967353       25.86807558816334      28.551380797206097
    20   1      1.4872862369622459      27.140099038107493      1.2868679060547945
    21   1      2.9738389706707986   0.0037321321733770826     0.07209858455739776
    22   1      4.5214846021901591      1.4054270360847563      1.4864830171275787
    23   1      3.0569420673101875      2.7901484776856611      28.676224207932322
    24   1      4.4056080914919882      4.3179829639933791      1.3995846494556641
    25   1      2.8316415613743304      5.7453815968785023     0.18566147598388613
    26   1      4.2483821807489104      7.3047482039869776      1.3820031323889226
    27   1      2.8301698258382313       8.796324630120008     0.10053105365042253
    28   1      4.2950065300980897      10.182732152186599      1.5609994485017404
    29   1      2.7138083165742515      11.303984692657563    0.021006578462447589
    30   1      4.3439411210524179      12.770165551776801      1.2351081297163882
    31   1      2.7395220482111919      14.162934321299904      28.603691506812936
    32   1      4.2880678431397321      15.864333085341899      1.3883128866907539
    33   1      2.8299513902687194      17.021006377086724     0.15926670619400046
    34   1      4.1575985336621892      18.513231172070302      1.6217672325779735
    35   1        2.74703539192326      20.022924303320881    0.079932747709176355
    36   1       4.361253326011032       21.46744537742391      1.5038863142670162
    37   1      3.1983354467233647      22.839981873730633    0.045498574963448765
    38   1      4.3970787008008552      24.427533840739294       1.369549621593124
    39   1      2.7369028804627891      25.976885366252834      28.537156847775925
    40   1      4.3191345160575487      27.211667681767601       1.536744463895809
    41   1      5.7483107427627873    0.016630467480594616      28.554104245107542
    42   1       7.179516389381817       1.370205352056143      1.4682264605490447
    43   1      5.8814834705938885      2.7669930921023824    0.033598376559677852
    44   1      7.2842528285968555      4.3336073705960523      1.5435204812322478
    45   1      5.7605094539988189       5.731050364591181      28.689920685799027
    46   1      7.1516374202142243      7.2986262618040625      1.4008490459726086
    47   1      5.7395469020258201      8.6603176798382826     0.13856324626149205
    48   1      7.2548891415351928      10.323048180271231       1.313788731505882
    49   1      5.8107543060158902      11.515801189007421    0.053799271871889633
    50   1       7.262981998419666      12.967998058018761      1.4237706286953886
    51   1      5.6778406898739426      14.261253333627703     0.23596892502446265
    52   1      7.0103392418380448      15.925941601837801      1.3900768620872443
    53   1      5.7735841701557602      17.198898616371665       28.66764868602414
    54   1      7.1076874276142759      18.426322171405545      1.5559612367977145
    55   1      5.6071423705394654      19.785144384783614     0.19741734588820922
    56   1      7.2595326145336552      21.505510373977302       1.300863332172798
    57   1      5.8175580607182349      22.883658207458321      28.549904761795723
    58   1      7.5761896709333705      24.501446667754777      1.4579999291895889
    59   1        5.95417563104444      25.840664617748558       28.58799246084498
    60   1       7.132597684587644      27.362598254380259      1.3124772854386952
    61   1      8.5921947909164622      28.652749328883605    0.077458301237561616
    62   1      9.7963815275460977      1.3936557877436826      1.4468895187873028
    63   1      8.5466623264502122      2.8073889841104238      28.669122114599251
    64   1      10.069422771257781      4.2576360302760943      1.4571646110903655
    65   1      8.7039590399709681      5.8277669334180846    0.056082384433136803
    66   1      10.144185736016755      7.2381447552621871       1.522925049662184
    67   1      8.5417269891051326      8.7250216674038619    0.073093856812840807
    68   1      10.113280822487608      10.162189950742333      1.3186450215992755
    69   1      8.7543734941854172      11.658747054043992    0.077624044027288688
    70   1      10.133990512658958      13.037689483342342      1.6005144655610237
    71   1      8.6858179058192366       14.55354743075512     0.09877722097986627
    72   1      9.9926001418979755      15.964453156783883      1.5181595041687506
    73   1      8.5428623464715532      17.311883921362071    0.021088412775702628
    74   1      10.037187533708492      18.667287719343836      1.4533986585009753
    75   1      8.5837579887024749      20.133167155835274      28.675857374366476
    76   1      10.038002337260735      21.528113591231254      1.3575135227525386
    77   1      8.4879185837799724      23.026604803603028      28.561942200598253
    78   1      10.136237521054232      24.479059067441046      1.1172847080041028
    79   1      8.8088462922082744      25.879365397862518      28.594362627529918
    80   1      10.151484978782564      27.330211387495435      1.2300675958884661
    81   1      11.491073638344508     0.28785987980886668      28.642130204580955
    82   1      12.923799854224169       1.545820695376859      1.3304582278068307
    83   1      11.489710903077807       2.886058405736724      28.689800730895303
    84   1      12.822023506598931      4.3287669129107984      1.5020262206896164
    85   1      11.454214698409469      5.6674051883241416    0.063225747352237335
    86   1      13.022474703024487      6.9508041552682078      1.3540174889781604
    87   1      11.529972482173587      8.5624898326054701     0.13593205310207859
    88   1      13.075967884988575      9.9863735455050726      1.3384487345096432
    89   1      11.689115842684121       11.49898999759016      28.695499799483645
    90   1      13.009835074504489       13.06741457259144      1.3134373939717974
    91   1      11.496439532066629      14.358383452718178     0.11083977803997398
    92   1      12.904368453745031      15.921399995247077      1.6873339699092644
    93   1      11.698896763752344      17.209343495123154    0.081771055055275932
    94   1      13.018717976460866      18.736515937024805      1.4454142136269419
    95   1      11.466875251331345      20.138612477233366      28.668127471174191
    96   1      12.955385679896461      21.358441985142445      1.5215944315875949
    97   1       11.53745567577452      22.946536154220414      28.599775367703618
    98   1      12.914265258340686      24.271974717028947      1.4716940741324827
    99   1      11.666274215374379      25.699043688576225      28.664661423013023
   100   1      13.025269372216382      27.260792915855809      1.4051298144843265
   101   1      14.262653555559618    0.030113917895598034      28.614826109519303
   102   1      15.834572138882585      1.3265908025365103      1.2193792685029727
   103   1      14.373480590624393      3.0229834633908079       28.61864317293518
   104   1      15.832757590483642       4.396138445984298      1.2411860950241691
   105   1      14.250167762636529      5.5943830248899067       28.67060373596539
   106   1      15.613839520080527      7.3015478640697085       1.500553985003557
   107   1      14.365399346545496      8.5126323473677861      28.699237949199645
   108   1      15.875342818739172      10.146232171235402      1.2289497942823462
   109   1      14.446488299846056      11.433003182807955      28.694795946132405
   110   1      15.798348417734839      12.904544607467102      1.4321349005182695
   111   1       14.46801955099412      14.422350588768017    0.039750231751691005
   112   1      16.099442751450844      15.678847159052006      1.5014282467147937
   113   1      14.455004179101199      17.065807563259874     0.25304535857985683
   114   1      15.958149955305339       18.47949838022765      1.7306963865297014
   115   1      14.519103147950755      20.018542837072243     0.12468363470487692
   116   1      16.037866513385488      21.324269197864648      1.5698360403590406
   117   1      14.437664734176076      22.690881204536492      28.692043587797585
   118   1      15.670884107997351      24.512551031268721      1.3273745236616485
   119   1      14.102783743189439      25.786606655883158      28.547241515042913
   120   1      15.557281686298699      27.203567410060732      1.1706780622275355
   121   1       17.58226583692581     0.01092420710428996    0.015909571054737628
   122   1      18.795623639999068      1.3193705866004501      1.4567036435184588
   123   1      17.324579791586839      2.7044375005791954     0.13203452465616006
   124   1      18.654024273738106      4.2951878885669137      1.4135379285815359
   125   1      17.140671605932148      5.8906769146110642      0.0894036477159601
   126   1      18.596585184720212      7.2709933134139142      1.3180928655903239
   127   1      17.395832141190795      8.8914363469717994    0.022512666252953308
   128   1      18.608810190209688      10.216142950257753      1.5200439257864895
   129   1      17.268451567379223      11.492976947387172      28.539946420965737
   130   1      18.663127307339078      12.832106172859833      1.3305282139515602
   131   1      17.217725399937077      14.241177394206572    0.073243611388625229
   132   1      18.610562065819348      15.664335799257023      1.3402398302220375
   133   1      17.181738859512144      16.908339685127775      28.677065409053316
   134   1      18.716030201538427      18.539655302954827      1.4299556385559413
   135   1      17.466328276563495       20.26926611469451    0.037831394956208332
   136   1      18.711838255977071      21.625867338637441      1.6889873546927436
   137   1      17.343648623932172      22.884610558547653     0.14028274535723997
   138   1      18.655816383959955      24.383921707491997      1.5435375033367678
   139   1       17.17199925935396      25.785686480406621      28.689743647332765
   140   1       18.77914333157203      27.094641337473004      1.3924202602631799
   141   1      20.293874011281709      28.630355933073048      28.624186382816589
   142   1      21.588996545137181      1.3703444598537076      1.4610778848860599
   143   1      20.127361322508033      2.8774674348383806     0.11546950288213791
   144   1      21.687128068537358      4.1709606117686926      1.3223772964097513
   145   1      20.090186091388087      5.7125940176564427    0.073295544083248274
   146   1      21.427518493040051      7.2022331340147181      1.4128860107766179
   147   1      20.231301876243322      8.8468837146505752    0.040045057168913427
   148   1      21.434648849962109      9.9914915624153284      1.5090190074470216
   149   1      20.280249947862082       11.43055882880663    0.015542307985333546
   150   1      21.793194517922664      12.985726523812414      1.5498442016038214
   151   1      20.149209899309067       14.26986967494029     0.28830321965914324
   152   1      21.731153072975431      15.737200031449252      1.3850373157690223
   153   1      20.173836589048769      17.262183367859301      28.688104575201468
   154   1      21.562675520874929      18.486512712968953      1.5993648428009914
   155   1      20.152305628349755      20.031054358813165     0.17925302536068549
   156   1      21.601123009285597      21.500694339446635      1.4974132545842957
   157   1      20.037351392353003      22.908402696916365    0.049399222116244472
   158   1      21.589396982810893      24.364458860778914      1.3804300154327505
   159   1      20.180380748646964       25.77293856204566      28.566870905295318
   160   1      21.529999800605815      27.108369919434892      1.5546432742810665
   161   1      22.874457083727336      28.520390624301587    0.025680650965716714
   162   1      24.329935034038019      1.5297743601928009      1.3540767062045569
   163   1      22.823272376930802      3.0084576263119307      28.501827489835581
   164   1      24.183410789445148      4.2433001507326598      1.3199105871981607
   165   1      22.941531436112808      5.8770909431409262      28.649240743439236
   166   1      24.280537374038804      7.1623828618587941        1.29596387244361
   167   1       22.88228435524541      8.6488746076747365    0.081760489005557643
   168   1       24.42870299168511      10.135427139438042      1.5088616974803708
   169   1      23.247720459014943      11.496190544854493    0.099702858580292195
   170   1      24.627824325925282      12.825129143146127      1.4438612880720711
   171   1      23.120872695884319      14.474133144890152     0.21799484006313613
   172   1      24.546023004667997      15.723859103965196      1.6452273296972739
   173   1      23.026777564946585      17.100119993312454     0.05327188239914462
   174   1      24.476879405767907        18.4589825420518      1.6288042574997688
   175   1      22.959028953419384      19.907676025856276     0.15858129467519558
   176   1      24.331682201328036      21.559415149715083      1.1425767269044969
   177   1      22.687003118288178      22.966410456983866      28.639731387534184
   178   1      24.364414264785175      24.408695558299193      1.2276250209420585
   179   1      22.941024726112403      25.910405278980672      28.622426229065614
   180   1        24.4489479219766      27.244655570054714      1.3524445676699997
   181   1      25.791234792055501    0.061274921368012186      28.685346627450674
   182   1      27.254374358528114      1.6766894654822511      1.4240907017700581
   183   1      25.736150318096435      2.9932086894855612      28.674081797106261
   184   1      27.333574857130323      4.2373725683726233      1.2846653122017515
   185   1      25.761872224024259      5.7929027251347733      28.699283344650912
   186   1      27.089835847183398      7.1498077494114076      1.5237613898993339
   187   1       25.87986643135595      8.5702079109273352    0.082436787900883338
   188   1      27.252200717197091      9.9824619285817704      1.4449326604929649
   189   1      25.988831182625134      11.315449765771577    0.035130616801780007
   190   1      27.278872281395714      12.815778800345162      1.3086841184143172
   191   1      25.991317480009297      14.458609662740892      0.2008166214353764
   192   1      27.227391856104578      15.728896947989437      1.6516356646603074
   193   1      25.805846576486779      17.167207042086691      28.696104986110484
   194   1      27.189007507124071      18.646093793563118       1.560061956748791
   195   1      25.697940270885372      20.066513951775281    0.025800663275356326
   196   1      27.126003023827604      21.512718615418517      1.2674754427958197
   197   1       25.93299657016971      22.902508244956078       28.65440021951305
   198   1      27.222800766241754      24.365527862411078      1.3223149500713693
   199   1      25.847552052621886      25.798101072351894      28.617597311650343
   200   1        27.4126674594063      27.246268784960186      1.2902654183194961
   201   1    0.098620609264821815    0.012052017494636571      2.6860771383861337
   202   1      1.5441142878649654      1.4164171169243798      4.2614111335496778
   203   1    0.060624805219493157      2.9238392460438156      2.8031319659059375
   204   1      1.5250404539319211      4.0746891915711725      4.1483296201028814
   205   1    0.011155759469409608       5.717229158819122      2.7641409382569582
   206   1      1.5467946654228859      7.2312710426384452      4.3651043689131699
   207   1    0.067370608692693498      8.5840651956992833      2.7693718489928405
   208   1      1.3146096906536173      10.003484625653172      4.4746674173942083
   209   1     0.11292435215671134      11.595811680425848      2.8465405593820154
   210   1      1.4578552392129609      13.043242237962662      4.4374785617916146
   211   1    0.017235209271929008      14.456483136881968      2.9889032741763271
   212   1      1.4863971287962159      15.707182170064163      4.6448581126909589
   213   1     0.05644965205742785      17.373876280705481      2.9897324691646259
   214   1      1.3836128820736027      18.890269306359119      4.4256948802336611
   215   1    0.070419936275517694      20.168286812175303       2.824016968600688
   216   1       1.307299106140398      21.538250346876307      4.2598329192128599
   217   1      28.688425344478706      22.889295087842093      2.5737618449628008
   218   1      1.3771891967340038      24.469892454488189      4.1406024333698133
   219   1     0.03596825709015735      25.676243098063907      2.6644881031660699
   220   1      1.4623726684889449      27.144353930263524      4.3530670030606133
   221   1      2.8362530108723156      28.625529947916139       2.777511284013177
   222   1      4.2609254153118821      1.4958192464873723      4.3373408359675825
   223   1      3.0137646127388926      3.0162065907570761      2.7052977587962341
   224   1      4.4408266281857962      4.1886317641477468      4.2992962863622086
   225   1      3.0357866240343019      5.6695500352522838      2.8494299971186479
   226   1      4.3178816243405622      7.2708401424909752      4.1530727805116925
   227   1      2.8980956271185003      8.7801049662447959      2.8271124357093176
   228   1      4.4603574542020157       10.04639691156809      4.2744498759225973
   229   1      2.9699591184416931      11.603386005899708      2.9597747288701584
   230   1      4.5139387702878775      12.759689184436828      4.4060702489691002
   231   1      2.9445664682939414      14.233664002567041      2.8327668965398414
   232   1      4.2159453055859446      15.871800821072918      4.3339073447864722
   233   1      2.8817644773570184      17.370568696502371      3.1981874326784467
   234   1      4.1043596542760854      18.822913168940214      4.2609128191632255
   235   1      2.8149121658278662      20.200177034855059      2.6246460712555071
   236   1       4.313393150085898      21.567982032706269      4.1727502060066834
   237   1      2.9974401066308936      23.079224142350697       2.795467672707717
   238   1      4.3914173740280074      24.433366927785752      4.2303134489164034
   239   1      2.9328742405897748       25.63236356164289      2.7377656289886421
   240   1      4.2473968424809891      27.314028413885165      4.1387145671000312
   241   1      5.6692849301881658    0.092067780123261694      2.8550331695881828
   242   1      7.1735901365720967      1.3602301759274278      4.3569550765357343
   243   1       5.860530537756798      2.8211363009314021      2.9373624348135721
   244   1      7.2680159097828385      4.5625713631261222      4.2506492977353227
   245   1      5.6261356463625569      5.5750246390358011      2.8326152137757958
   246   1      7.0519541484067743      7.2280762971096886      4.1587846461971587
   247   1      5.8462098942185889      8.6350365476535575      2.7240144334278273
   248   1      7.1699676233429788      10.046707931180613      4.3018681201932072
   249   1      5.8626710366156862      11.594535148332286      2.9593939699120462
   250   1      7.2107404439861762      13.168491837785391      4.3350163611499051
   251   1       5.750469751287973      14.467424119467866      2.9581849463076186
   252   1      7.3422327667557212      15.771779586716564      4.3085544151002617
   253   1      5.5660901506539959      17.017836916294012      3.0689649819193567
   254   1      7.1237246331103536      18.733943049093376      4.1943433159212802
   255   1      5.8241507087636082      20.188905578944585      3.0240176724161341
   256   1      7.3040268215489323      21.777597961761877      4.3940991968486154
   257   1      6.0160517533999611      23.211589429445965      2.5841808199803271
   258   1      7.1104066085746584       24.49916083054628      4.1870819861299662
   259   1      5.8309530760986226      25.938471327609221      2.7354367380002835
   260   1      6.9844412410166541      27.130157915764155      4.2973300324182437
   261   1      8.5101969643871449      28.658010332814147      2.9255888212207579
   262   1      9.8774609996820448      1.3292063535162686      4.6126445033092729
   263   1       8.517532595823079      2.8463704656941555      3.0427174196071944
   264   1      10.119569320820601      4.3793602878818199      4.0909922679003481
   265   1      8.7205924546519746      5.9634280591111608       2.796482119505765
   266   1      9.8405681730078047      7.3485563442095847      4.1555091117667047
   267   1       8.671948357340062      8.9105916421807905       2.871790579532898
   268   1      10.241891060434327      10.333672173521773      4.4823155687228544
   269   1      8.7187091284777534      11.742737793592195      2.8518361406520611
   270   1      10.207530696766014      13.045657343325432      4.4168760937809521
   271   1       8.564932834627891      14.390046887828444      2.7799154645800161
   272   1      10.117729091420326      15.861201573848552      4.2963820584307193
   273   1      8.5298170662581754      17.263523959375334      2.8588206580076068
   274   1      10.016486127654272      18.744464974353086      4.4241196876884175
   275   1      8.5935593818456404      19.915700568699201      2.7013692282046931
   276   1      10.090326262635694      21.498619345866736      4.2522145263599898
   277   1      8.9467717415452341      23.071867629379724      2.7416177904676475
   278   1      10.039446727307739      24.486744134504768      4.1935915428832438
   279   1      8.5789758414297737      25.907861551203553      2.9184070642353124
   280   1      10.149050352872251      27.347943659460736      4.3625212625911773
   281   1      11.543923213310649    0.078509848272904331      2.7312769454306469
   282   1      12.895661844343358      1.4213191002039143      4.2566168908884237
   283   1      11.450677483928066      2.7561941575907882      2.7316015071039144
   284   1      13.010478132658273      4.1113289660880206      4.2271174723024956
   285   1      11.515961020005554       5.776595815366627      2.9085266786361514
   286   1      13.000118628609515      7.2623677905280832      4.3018952448095096
   287   1      11.474720084179323      8.6076250386235209      2.8873629059292276
   288   1      12.843716941516558      10.087237064808715      4.4587106574410349
   289   1       11.59815504945507      11.335995026598248      2.7221971489063201
   290   1       12.94931904362746      12.898659298689786      4.2580119406723647
   291   1      11.585804309857913      14.380915105999906      2.8814144460572053
   292   1      12.820194583710965      15.862736267546007      4.2898861877619794
   293   1      11.409292210068472      17.316223159681265      2.9026573785567042
   294   1      12.993913150047785      18.430497931917291      4.2320126418740571
   295   1      11.364676915865541      20.114678309306793      2.7406443921413719
   296   1      12.892823190618506      21.343075171654085      4.2768517305806633
   297   1      11.471464311946825      22.990377371319596      2.9443568057348428
   298   1       12.78264309780819      24.442519096940959      4.2226076689658827
   299   1      11.403311498334986      25.670663142660207      2.7039499272629781
   300   1      12.890069578055403      27.293519711094703      4.1191554166107682
   301   1      14.227472424437064      28.624366428395025       2.861426572336665
   302   1      15.662427986349082      1.2935352315326567      4.2929292964964496
   303   1      14.338640726630217      2.7704261983825726      2.7925490673710103
   304   1      15.868969565494242       4.134803848066757      4.1346145372533254
   305   1      14.340479875112985       5.692945959925269      2.8771400685756974
   306   1      15.711149022577999      7.1247783985676403      4.1995505744235411
   307   1      14.227141543136973      8.6027609454363265      2.8505427654453461
   308   1      15.784763374410794      9.9731855776833651      4.2629674531111874
   309   1      14.411079745672403        11.3816817424155      2.8690305536904464
   310   1      15.596654809076352       12.86312519851935      4.5089806175487546
   311   1      14.405962290298685      14.303047236836184      2.9568702032534948
   312   1      15.833989244386059      15.558103517514551      4.3152981911304495
   313   1      14.597318721066657      17.066924751839039      2.7774060366630695
   314   1      15.738804159931661      18.610914107102875      4.2629862244191434
   315   1      14.449795746710848      20.071362694977449      3.0587664621325366
   316   1       15.90524625530232      21.426107128757661      4.4159945800910325
   317   1      14.464710314966249       22.69795947802854      2.7988296681224369
   318   1      15.849819726010779      24.362653185699003      4.2230718963417235
   319   1      14.202595638621753      25.669849436538534      2.8393782917679333
   320   1      15.866288868905055      27.191063146729508      4.2395098989918729
   321   1      17.099181181650799      28.601520570394047      2.7461456741725438
   322   1      18.592619873966726      1.4391967534574395      4.2835411737197813
   323   1      17.294122126166464      2.8404940009815047      2.6595042719934532
   324   1      18.549511875822635      4.3360808582544061      4.1894239720889663
   325   1      17.368567726340601      5.6777361562476889      2.8530277271973197
   326   1      18.556121052351465      6.9783738619129858      4.3642411340586333
   327   1      17.110108437021108       8.603790005345898      2.9690238884864888
   328   1      18.576349519996505      10.079870712328221      4.2464772614529709
   329   1      17.015594435383516      11.627184519503377      2.8740780983328151
   330   1      18.698031939115545      13.082606068936222      4.3291459733728619
   331   1      17.341091999312166      14.220782738417478      2.7951493116273696
   332   1      18.900444801755683      15.677947784476618      4.3286466151018335
   333   1      17.262328410787379      17.040711146139202      2.8996805613345908
   334   1      18.453243752598993        18.4668303357616      4.2294848242219851
   335   1      17.409891908661091      19.931689438653262      2.9305495771261061
   336   1      18.759407198678133      21.491848132502547       4.407426024928129
   337   1      17.138250537179651      22.835374772703268      2.7387214134993987
   338   1      18.636796832579357      23.903450107151883      4.2227955141925779
   339   1      16.986301260869155       25.86535664633773      2.6844092441017442
   340   1      18.522646961468595      27.283395824757683      4.1175495924677037
   341   1      20.056843063711973      28.625692595161695      2.9546013966164866
   342   1       21.38552156991117      1.4896309787283701      4.4779925713811712
   343   1      20.109509650261639      2.8249097063810478      2.7991290589937985
   344   1      21.461328506669222      4.2795007625460935      4.4695472502254487
   345   1      20.031420011319288      5.7040703522284604      2.8119154640653958
   346   1      21.444089410076263      7.1191614866176121      4.1276423933366688
   347   1      20.039102510859738      8.6217055325375842      2.8449728138109212
   348   1      21.605551626610147      9.9705108319155702      4.3014955623071627
   349   1       19.84680412939591      11.519613033259823      2.8422169101369472
   350   1      21.602688648822308       12.98877167970055      4.2619625515137542
   351   1      20.116358299906366       14.28514229141769       2.741656741525401
   352   1      21.456886948891011      15.757132788022634      4.2408264510241578
   353   1      20.091066531815109      17.126401766700386      2.7504758509182112
   354   1      21.539998887278482      18.647596639008992      4.2481600368171071
   355   1      20.200136496481562      19.974975108686419      2.8865883927081937
   356   1      21.462236677094698      21.372811781687645      4.3583664769537682
   357   1      20.223281324175421      22.800856122515132      2.7597973877692183
   358   1      21.649977439667786      24.205382290550506      4.1538439965467422
   359   1      20.054268427882199      25.660992634717768      2.8593614176300668