dump/Fe_1050_5/steps_61 (written by ASE) 

1995 	 atoms 
1  atom types
0.0      28.699999999999999  xlo xhi
0.0      28.699999999999999  ylo yhi
0.0      28.699999999999999  zlo zhi


Atoms 

     1   1      28.628649040619152      28.503393306226521    0.022613955273448019
     2   1      1.3768029841712068      1.2503242882037153       1.309952483342965
     3   1      28.695947660250667      2.8069790229403222    0.022917746177631659
     4   1      1.2224005207023312      4.3266317727087857       1.504303410721332
     5   1      28.378582660894125      5.6857555882443593     0.10417771846047101
     6   1      1.2913512010844341      7.1374767369532623       1.277822772362184
     7   1      28.640765209939122      8.5233635833738735      28.576545194323231
     8   1      1.2795260681463569      10.236062159334502      1.1667044782318603
     9   1    0.013283390446101941       11.53891293067254      28.660478673653731
    10   1      1.3583966770007803      12.899315597746794      1.4801245811124091
    11   1     0.18115464790463492      14.235992319754004     0.11813198037475543
    12   1      1.5317564845174858      15.763677501512545      1.2366349033058224
    13   1      28.671869868717724      17.257963687258421     0.16188312548314351
    14   1      1.4529819587850503      18.524369807061195      1.5075568625363975
    15   1      28.639350869844723      20.107421250458398     0.08496635582005177
    16   1      1.2735105684066435      21.341951604492323      1.5097188280308509
    17   1    0.071214659244631898      23.057220951318467      28.645712054508397
    18   1      1.4393144412026022      24.343652915793129      1.3691039238944203
    19   1     0.23991547363523469      25.758589116743654    0.043971765669061864
    20   1      1.5371509959644418      27.339997305661768      1.4174991216137631
    21   1      3.1360952380279183      28.533447459599756      28.686010103709229
    22   1      4.2045407417034779      1.5116843226498651      1.3221116868854899
    23   1      2.9425360380601084      2.9281206469015917      28.670495916488193
    24   1      4.2585281165283222      4.1138853881918234      1.4102847353345516
    25   1      2.7375586775981091      5.5887751079389831     0.09978278559381118
    26   1      4.2931623762329432      7.2147656703351259      1.4822838930823863
    27   1      2.8281856135975776      8.7835855824058182      28.666021195249801
    28   1      4.3987317041713707      10.067861718360653      1.3395633707767736
    29   1      2.7656153774343277      11.579665221459631      28.605215586179202
    30   1      4.3400812975277487      12.923055123653119      1.4430231733381667
    31   1      2.6494437182385386      14.148762756005423      28.501718467439446
    32   1      4.2719371528426358      15.842524392061421       1.404678364666244
    33   1      2.9278689219289533       17.43637875735843      28.647665037389345
    34   1      4.4057267158796058      18.818051818260923      1.2405309873275989
    35   1      3.0549580681213824      20.238427743835935       28.58605834416273
    36   1      4.2432207813043803      21.388364585435191       1.556562163036834
    37   1      2.9977775461607532      22.957142600895452    0.030528643672107635
    38   1       4.186615978674709      24.491083662907531      1.6361247629492603
    39   1      2.9449399850911839       25.88819276322419      0.1258587425702557
    40   1      4.5592420774693929      27.362421956787728      1.5308062472051791
    41   1      5.8294617360269347     0.14832276673672753      28.607611983137776
    42   1      7.0611413358966493       1.389310242317072      1.5139039994849774
    43   1      5.7666617747941613      2.9112446510182393      28.615437360855992
    44   1      7.1566265505495572       4.460112011722174      1.3795737325021615
    45   1      5.7387400361485801      5.8815030924745901      28.677816322766137
    46   1      7.2333691302108658      7.2626794259115641      1.5131933145749261
    47   1      5.5348412687892639      8.5614038725425967      28.660816280133549
    48   1      7.2548263796580947      9.9686755959264026      1.3181891692490584
    49   1      5.8260347885300039      11.487839318162809      28.674083539898266
    50   1      7.1573391971993807      12.948671383919759      1.3418154518858152
    51   1      5.8287519476920231      14.235647484808952      28.632747436635473
    52   1      7.1341550471723627      16.032655828894484      1.4059089870958483
    53   1      5.7609021980657102      17.274490861474124      28.583199896204036
    54   1      7.1088528365516561      18.658332842760931      1.3823530923930445
    55   1      5.7323544508926663       20.23891471999551      28.688333085725048
    56   1      7.0392341635719662      21.568126895390062       1.620426440963457
    57   1      5.6307682886809269      22.826564979611739     0.11468480167671939
    58   1      7.1357810205318533      24.276869087906526      1.4100809342773344
    59   1      5.6175403382959948      25.680059685094509    0.021323726990408444
    60   1      7.1302482933499745      27.050702344198136      1.4255814122168542
    61   1      8.2984163343475306      28.631273551713662     0.28836535354929432
    62   1       10.00058865627544      1.3177652299890146      1.3470332195702439
    63   1      8.5814926991193321      2.9930764791360249    0.058234689970617981
    64   1      10.075124787684423      4.1061238384011878      1.5690220055906023
    65   1      8.6771023129623135      5.8123158402300437    0.085928539002531876
    66   1      9.9380743090710482      7.1846038496638762      1.4540782734804776
    67   1      8.5013366091583418      8.5503805941512798    0.044579038025790274
    68   1      9.8678015788049809      9.9582814020690282      1.3000619059288618
    69   1      8.5803121410817393      11.670705255252178    0.029316598377238247
    70   1      9.8599464588190067      13.024375318915803      1.2910278092892333
    71   1      8.6706034560144865      14.442687257469656      28.657790929277542
    72   1      10.085397507537978      15.705895214714616      1.4355736222549478
    73   1      8.7462726968917206      17.306003542863703      28.500777204828285
    74   1      10.230568166266007      18.906040681950795      1.3903241085564095
    75   1      8.6746220629396191      20.200758948194558      28.639715758492247
    76   1      10.017860131506419        21.4845627276726      1.5327526397714919
    77   1       8.597212344575043      22.972685260481434    0.073580176429345612
    78   1      10.048442975814783      24.350431952757891      1.6053147966364354
    79   1      8.4165569181349689      25.661601226461158     0.13134910508147182
    80   1      9.8972070485527386      27.120926889393282      1.3461257141156922
    81   1      11.724880707798663    0.086227380272748635   0.0082604992182268647
    82   1       12.84437479215825       1.431219698911866       1.362589036133363
    83   1       11.48895486072173      2.8397532393996823      28.687287867465461
    84   1       13.05640414269795      4.3227211273497916      1.7057805681744305
    85   1      11.410490432850795      5.6788655552360616     0.25078487033586044
    86   1      12.613979939768578      7.0199292790062247      1.5461701400524135
    87   1      11.399008005402953      8.5734990693635602     0.13096321607545167
    88   1      14.372449154548978      11.454237355981293       2.889628802245348
    89   1      11.415271583500749      11.537511739437395    0.059727791099521782
    90   1      12.914658119934074      13.030529658957965      1.4321292656382649
    91   1      11.602125934259957      14.456180423753194   0.0046333138149066118
    92   1      12.983674264098706      15.841900205253395      1.5480014276309031
    93   1      11.530945318206372      17.182563857825667     0.21942293344949337
    94   1      13.020153878739041      18.744191818727156      1.6216315675889517
    95   1      11.453028166603143      20.119450753426158      28.677957983030716
    96   1      12.881827257125758      21.508461564980724      1.4937339155743854
    97   1      11.310361320984867      22.894562911611423      28.684169531460803
    98   1      12.764478728472239      24.348587481626677      1.3721419435260134
    99   1       11.36233734750356      25.712131783180194     0.15524386421687961
   100   1      12.834676538980009      27.277452302776762      1.5429907218093037
   101   1      14.541620320633564      28.513597605519124    0.081239140743878169
   102   1      15.717253034126328      1.3550301075964057      1.5712052138199275
   103   1      14.448634887693352      2.8343952557948673     0.21934806351434866
   104   1      15.769873323399715       4.312077289234705      1.6191863006038367
   105   1      14.296837651522752       5.910384165208451     0.29535916651009309
   106   1      15.797433603923455      7.2918795593967438      1.4891587986490191
   107   1      14.318369996770054      8.8291739045993047     0.35766279591293759
   108   1      16.074781826803783      10.096528345458223      1.5725875603175143
   109   1      14.337200189971009      11.453113957572192    0.019002633261925451
   110   1      15.653398384993558      13.025076137388359      1.4343585462936621
   111   1       14.35905068656835      14.308978612212186      28.636886432619026
   112   1      15.725283220430438      15.628972750063982      1.5512367639959059
   113   1      14.231158105355545       17.12485101317678      0.2012389025538141
   114   1      15.774137779886232       18.88709863411685      1.6276795436976945
   115   1      14.233711596687177      20.179971007892913       28.66735952598443
   116   1      15.532521323569036      21.444897799321403      1.6395795642977748
   117   1      14.271044709976431      23.094699590141616     0.21642589377061072
   118   1       15.79504414002654      24.155231864681895      1.5005520854660512
   119   1      14.257697953445664      25.839983604255959     0.02332279870447564
   120   1      15.778637611161539      27.215242192131036       1.700716249871107
   121   1      17.295808493035313      28.396738305156891    0.084446808043423999
   122   1      18.599098969437719      1.2315608292330453      1.4022131843660526
   123   1      17.145848192097102      2.8163612291486277     0.12685439226129355
   124   1      18.700513600549254      4.2658273065996903      1.3082582832841683
   125   1      17.069873445414213      5.7688756046436325    0.012444255773402791
   126   1      18.784330821415992       7.037514502999656      1.4896371280722969
   127   1      17.431985266462284      8.6908222976586735     0.17273251670403622
   128   1      18.638949338179408      10.000327180274228      1.5669692197223182
   129   1      17.218074972204924      11.421203500480763      28.595810134487611
   130   1       18.63769984875989      12.879986872141542      1.3992029500800194
   131   1      17.205520090270152      14.307439716006044    0.047709373901795929
   132   1      18.551787514315354      15.800476295833676      1.3816818931264263
   133   1      16.904356476850726      17.174751831556332     0.13236603774112163
   134   1      18.675472852594602      18.412737703269627      1.3141273141913854
   135   1       17.17218462395261      20.056275040007595    0.011971038449303259
   136   1      18.671372123279276      21.598058321988024      1.5058009807022914
   137   1       17.22612182476799      22.984911593397136      28.656620629965389
   138   1      18.698857283339375      24.139062105875592      1.4537527528895342
   139   1      17.124755247699355      25.770131114010443      28.694389203447603
   140   1      18.567870763841231      27.117460211437596      1.5725062920173518
   141   1       20.18206268706389      28.660452348137682     0.15280477656746139
   142   1       21.61185111770995      1.3722326473049296       1.568126914020751
   143   1      19.965460252963819      2.6247707514063365      28.662697944976745
   144   1      21.424469632460241      4.1358817003316224      1.3843625408843541
   145   1      20.209376800580763      5.8692004565248208    0.083471491836110176
   146   1      21.484394228031661      7.3711277834048428      1.5534646400856793
   147   1      20.159010419330222      8.5650009756914578    0.028263297482430959
   148   1      21.606387695130064      10.103900873179578      1.4597502301269174
   149   1      19.992854812124747      11.358635145136249     0.30746636513564468
   150   1      21.400394765253775      12.956289649754606      1.4963416125213371
   151   1      20.102490289053545      14.491972868091668    0.018115599516875133
   152   1      21.388928623151113      15.825240331752523      1.6000034882492058
   153   1      19.974751073788479      17.175644462127217     0.03003919496971991
   154   1      21.402392412162989       18.70797272365666      1.3068528078525774
   155   1      19.910760180318498      20.117496321806012      28.569134596542582
   156   1        21.5791155571935      21.447527499646338       1.236298055816496
   157   1      20.100102235441977       22.85381052090397      28.659222825636338
   158   1      21.330027019513373       24.26586929974042      1.2613644749285402
   159   1      19.922560136976408      25.823715857452171    0.070347754770409568
   160   1      21.505410723315979      26.948899977227715      1.3972225056142185
   161   1      22.888338743354456      28.441102783439309      28.516045347817169
   162   1      24.229846894679046      1.2394927407483018      1.5420051106267114
   163   1      22.775761482974563      2.6422530555017039    0.011451245632213143
   164   1      24.148619491957671      4.1010931463667761      1.4625488600890217
   165   1      22.858012073026348      5.6060903421414112     0.18889928840574144
   166   1      24.317904074537807      7.3016863688636944      1.5612791587976846
   167   1       22.79406047647872      8.6209503236081915      28.652037881002432
   168   1      24.448995440373388      10.104474104175708      1.3740857076915052
   169   1       23.09760430859378      11.741453296259433      28.624471730191672
   170   1      24.602182787059913      12.986555058942624      1.4794554774881032
   171   1      23.005002286485176      14.146201856752244      28.633267850595761
   172   1       24.43018742650408      15.711718062397173      1.4395819113194404
   173   1      22.999434163363354      17.205056365758953    0.091156078336518814
   174   1      24.435474918561095      18.773833785113219       1.460956461126262
   175   1      23.064011606612745      20.016120907338635      28.500600610647751
   176   1       24.52818661728088      21.638567733224498      1.3814805445098264
   177   1      22.810651255874692      23.026722783875595      28.614359124008345
   178   1      24.505182671313602      24.361169301016265       1.481518780326883
   179   1      22.683904827975777      25.694061876376374      28.535765992645452
   180   1      24.150233356737051      26.838981376794656      1.4258880749765916
   181   1      25.520495265290844      28.635027647202577     0.20380421636912152
   182   1      27.192700156241425      1.3950041176095178      1.3341628537845516
   183   1      25.542353768986043      2.6848622421862274     0.24362652954241629
   184   1      27.263991073764103      4.3361069624620674       1.556214151561345
   185   1      25.507597256708575      5.4869089812419167     0.20095734891251593
   186   1       27.03857784186452      7.1038403848351059       1.405980622686785
   187   1      25.613265109889358      8.5912375166839219   0.0033159814745545215
   188   1      27.137430199452442      10.126227248358365      1.3218593630628328
   189   1      25.831623999882709      11.696117617578928      28.495866343744964
   190   1      27.346126327713293      12.850733975024607      1.5255435195407243
   191   1      25.864186695908298       14.37814013088494    0.023318953163754947
   192   1      27.103553748172796      16.028910356873133      1.3179323552616558
   193   1       25.44109376334935      17.299424203313961   0.0083037006338145241
   194   1      27.331056664647129      18.663177595892815      1.6729323578450119
   195   1      25.803805129732826      20.092166370869794    0.063117446867988633
   196   1      27.271770056192821       21.59779695279499       1.351406877034752
   197   1      25.730565449811088      22.902696360082587      28.449156061329646
   198   1      27.165942699629639      24.297496528313967       1.251612098230624
   199   1      25.729810572063624      25.773889338302769      28.617960842945138
   200   1      27.182550030489061      27.030327002162785      1.4111637337225256
   201   1      28.638873700206009      28.571415878995708      2.7503467108945863
   202   1      1.3442404082105779      1.4573525688383924      4.1730334808303722
   203   1      28.499184155215076      2.7166373210898302      2.7469980727512602
   204   1      1.3746807700109911      4.2903250905399988      4.3057076076793779
   205   1      28.565046913239385      5.8242245354537037      2.9814713699315454
   206   1      1.3594640382312391      7.1693151453523667       4.237352543834799
   207   1      28.359416744389495       8.572186924910989       2.676748628200595
   208   1      1.2417939503769295      9.8498091167552086      4.1308101240492947
   209   1      28.648561361517508      11.368270781250795      2.8029148608688375
   210   1       1.281021069615419       12.95902583695897      4.1713962478256104
   211   1     0.08777990024374395      14.417284037262229      2.8214396663159267
   212   1      1.2597548902736448       15.82151386675447      4.4189300785793995
   213   1      28.669205501131813      17.005823470104943      2.8656098461000399
   214   1      1.6070838868793897      18.687744546215871      4.4437043464685893
   215   1      28.646181629775427      20.126722027391505      3.0232562016671261
   216   1      1.5402417996823623      21.690671948170898      4.4623580865713919
   217   1      28.646502549548249      23.007664613800337       2.911904597876473
   218   1      1.4771221638262664      24.432675847137208      4.4206236186854646
   219   1    0.059667336314545981      25.585352392361699       2.936262476992511
   220   1      1.6222848426421967      27.407109009429714      4.3960074518578471
   221   1      2.8498896852798801      28.674585734417775      2.7268708585881312
   222   1      4.1386583956795002      1.3466606785627047      3.9679713015411799
   223   1       2.781208524693692      2.9102898707325799      2.6291300839733251
   224   1      4.4812777743106196      4.2170650993705916      4.1896493125914374
   225   1       2.882553062738118      5.7240455252076394      2.7837585491568122
   226   1      4.3255740828225102      7.1206467896807242      4.2110846237407591
   227   1      2.8272387306650786      8.9023055145185896      2.8283242722625115
   228   1      4.4303832763260598       10.34366107167819      4.1779802543617111
   229   1      2.8490277625000209      11.354149141052355      2.8109765608394466
   230   1       4.153284885011697      12.934424603771737      4.2923205214972198
   231   1      2.7628992113875159      14.592890407708969      2.9012162571199851
   232   1      4.2542989895411063      15.993474472398747      4.2695386758640943
   233   1      2.9435120026567598      17.374385097197056      2.7552083512071928
   234   1      4.4725828799416822      18.682924830776209      4.4407730916590848
   235   1      2.8954347823632256       20.17159819636046      3.0721599727822291
   236   1      4.2787871028746389      21.513946370749753      4.3736726319630232
   237   1      2.8183392329786674      22.910832008188429      2.7610480359667218
   238   1      4.1867574590947125      24.381171692975514      4.2780932895066321
   239   1      2.7310875706824178      25.933674212544293      2.8679498526413787
   240   1      4.2675109101732449      27.099107348152842      4.2020277321648827
   241   1       6.015420854037651      28.631008361612491      2.9288214019124181
   242   1      7.3317651091569411       1.422608570509567      4.4723044556538198
   243   1       5.759099206534664      2.9055416341318092      2.7661984674059101
   244   1      7.1102543245917555      4.3347102424510648      4.1992184294982664
   245   1      5.7454604104116642      5.7272785649443456      2.6923514770438945
   246   1      6.9922413470386342      6.8737547949324318       4.100720751666981
   247   1      5.6555223791891489      8.5272731168056097      2.9118387158731918
   248   1      7.1644350088097228       10.10519209137049      4.1731655816766633
   249   1      5.6972916839647674      11.637352064499987      2.7900217414345447
   250   1      7.2809403851853913      12.979356022074198      4.3290487625544225
   251   1      5.8562905842789732      14.412446072424249      2.7682646054197098
   252   1      7.2033558288995199      15.885342096638725       4.071169287078737
   253   1      5.5638386467201126      17.334142254431878      2.7562750525795519
   254   1      7.3835935400929369       18.56286485191303      4.3087965057453044
   255   1      5.8168782539538979      20.039286744518694      2.9599434937483875
   256   1      7.3346066183123551      21.494434076498898      4.3950174180833486
   257   1      5.5689198422689064      22.845639205738053      3.0106844893082787
   258   1      6.9348917090951137      24.437399642308382      4.4759527703995099
   259   1      5.8070246810168209      25.740479649010247      2.8234482771454514
   260   1      7.2303444070187819      27.190221634262798       4.463680024792116
   261   1      8.6872926591760553      28.564094358609314      2.8034212368323193
   262   1      9.8323019214548388      1.3756994066873864      4.4160527901297053
   263   1       8.687389891597558      3.0109450209635389      2.8170063899336815
   264   1      10.348233005165755      4.4242403135438071      4.2197540972915082
   265   1      8.7860197058560736      5.6006255202262007      2.7795628396478929
   266   1      10.171863906270051      7.2032145113003834      4.2122911335963362
   267   1       8.600624829190135      8.6663160616479509       2.884592536606537
   268   1      10.015553916727059       10.22927015317399      4.3545271734869164
   269   1      8.6276198851271602      11.550174057410185      2.8201551747158975
   270   1      10.240537326522661      12.876515180913966      4.2225201142249604
   271   1       8.469025576457792      14.336823571397646      2.6777410227633154
   272   1      9.9052863331334198        15.5484963774742      4.2597406540738758
   273   1      8.9903725505500667      17.327567928803273      2.6649771776760991
   274   1      10.040670960997611      18.671941546152595      4.5047282864719422
   275   1      8.6810405104116857      20.004453260095751       2.841633794072651
   276   1      10.030806735960654      21.612902666686672      4.3998688960441958
   277   1      8.6222460684681721      22.848568773507239      2.9948751057518868
   278   1      9.9404201444600542      24.257599286442289      4.3145690070570897
   279   1      8.4663304607476135      25.664026714813552      3.0057980645597016
   280   1      9.9635378089222471      27.111780398546141      4.6328317477916068
   281   1      11.286795716903272    0.076345833203788571      2.8027962188130915
   282   1      12.820186251950233      1.2565473008150096      4.3359594507760395
   283   1      11.361816332554461      2.6359691606117726      2.7880252215039389
   284   1      12.912398449758674      4.3193404472450068      4.0148399975775391
   285   1      12.812397097218202      7.3272315013961311      4.2856992951091373
   286   1      14.354642114353664      8.5935427574452881      2.9985464359999026
   287   1      11.296786059973272      8.6877995354787529      3.0288759700950618
   288   1      12.907889819579273      10.167638917109555      4.1548072697042855
   289   1      11.285908687178019       11.54754776177111      2.7123960294576359
   290   1      12.861746943317494      13.013801334781999      4.1941466605631721
   291   1       11.56380799156446      14.543405894264646      2.9247830431879471
   292   1      13.060821621130644      15.786768264162854      4.5372909228370055
   293   1      11.622154897674635      17.307137774745904      3.0743097849144658
   294   1      12.884057372822886      18.594284464957177      4.3547291122190126
   295   1      11.679847548063966      20.226138275793751      3.0231514010253724
   296   1      13.012170200968466      21.545723275216385      4.3866938441495877
   297   1      11.395501324971061      22.933920585299383      2.9391183746147895
   298   1      12.963406158276991      24.279495358190271      4.1197360944700865
   299   1       11.45953277059016      25.756325692366708      2.8113848344275874
   300   1      12.836888289439257      27.112711759465103      4.1462932645497892
   301   1      14.283420421128605      28.588777923288973      2.8711318881558472
   302   1      15.789320552511921       1.529486698289646      4.2173376807023981
   303   1      14.215021323283574      2.6173765579819577      2.9613298900354681
   304   1      15.765015794015191      4.3548925729260866       4.114230612276188
   305   1      14.340136933323397      6.0015033318199142      2.9569666750971311
   306   1       15.95859259202609      7.2184075484919488      4.2904473041156947
   307   1      12.740844571423155      10.336783429708371      1.5671127563209202
   308   1      17.220516939622225       11.62766983523739      3.0866451568878315
   309   1      16.020344968909001      9.8674968714877895      4.1905086151470732
   310   1      15.828617272305774      13.051740455350823        4.58506730869642
   311   1      14.509070903506609       14.37075848476165      3.0774687758680215
   312   1       15.70350074150036      15.904821472699913       4.315560940444124
   313   1      14.288263383775984      17.059139245975185      2.8209555164271487
   314   1      15.704647417213337      18.637568480496544      4.2799672364953985
   315   1      14.405209787418501      20.182603351307844      2.8796567454499731
   316   1      15.727857212393156      21.518274191927713      4.3862973895506459
   317   1      14.272655565881706      23.056597560307086      2.7995475874931444
   318   1      15.846836494266167       24.26538711452466      4.3995565808439903
   319   1      14.359305300943937      25.605809396463179      2.8330116930415996
   320   1      15.848460120413977      27.284049198347837        4.32997920721699
   321   1      17.402262161450022      28.604686346706604       3.145398760246501
   322   1      18.833182501684686      1.5512646121636506      4.3861630168212509
   323   1      17.447688149236381      2.6736096820567341      2.7455478498302899
   324   1      18.598574203631465       4.190519176338471      4.3545826913857439
   325   1      17.308445597052238      5.6007241646362171      2.8743254077873215
   326   1      18.690898111726053      7.0266797300552932      4.2166808964978602
   327   1      17.284806530596384      8.4137071721177268      2.8802964585686484
   328   1      18.740036500915288      10.010669000265624      4.1355756323988642
   329   1      18.717941356982173      12.961694977750419      4.3162720824382985
   330   1      17.244165551663677      14.323236658854157      2.9793471392456836
   331   1      18.595570016168523       15.82928146061437      4.6657412964592435
   332   1      16.945711313445592      17.345633624667286       2.744255042914109
   333   1      18.397729010359413      18.495809610872751      4.3319111967087798
   334   1      17.282358433754645      19.938740540100774      2.8177059665537749
   335   1      18.726322616150824      21.319388057357955      4.2304466831625183
   336   1      16.958155244575689      22.850434795640563      2.9338972649459949
   337   1      18.777251169304208       24.13221700956063      4.1746700414249887
   338   1      17.122263671186129       25.68885087152939       2.976193753660028
   339   1      18.857959649517966      27.096679243051135      4.2778874042497899
   340   1      20.157579457765486      28.607815856689786      3.0200119338365168
   341   1      21.593976964305433      1.4539229304773476      4.4035451261161009
   342   1      20.131432153229387      2.8335144613396901      2.9445655678165155
   343   1      21.701456014549585      4.1778305883386526      4.3238589805815986
   344   1      20.169436978562292      5.6132023216422429      2.7820525184540545
   345   1      21.656380654097269       7.206685642048587      4.3452925803043145
   346   1      20.041234475856012      8.5925341585986779      2.8580584241814333
   347   1      21.604039116897095      10.049373002860179       4.467001621256574
   348   1      20.206786103619716      11.380048457181889      2.8662868716725951
   349   1      21.626661125349106      12.946906305193524      4.2264020851481634
   350   1      19.878321129133802      14.542407391143136      2.9993349467800581
   351   1      21.350270923572101      15.927309445846253      4.6374026140100302
   352   1      20.008759706173045      17.065396424129741       3.030571107442372
   353   1      21.569018218721769      18.706840908591701      4.4067981698022853
   354   1      20.134244471540445       19.86371919657817      2.8319981895747772
   355   1       21.53906018114596      21.349018650262447       4.239579060437964
   356   1      20.263047817884477      22.826211969259901      2.8647649295804847
   357   1      21.628276357279439      24.221002535994124      4.5152326525291082
   358   1      20.149395128879494       25.58841310378223       2.839062032392202
   359   1      21.593681802955601       27.00032458255216      4.2618196922260143