dump/Fe_1050_5/steps_11 (written by ASE) 

1995 	 atoms 
1  atom types
0.0      28.699999999999999  xlo xhi
0.0      28.699999999999999  ylo yhi
0.0      28.699999999999999  zlo zhi


Atoms 

     1   1      28.670383374793403      28.648249213219948     0.13189608364364189
     2   1      1.4053048384087323      1.5470868879838462      1.5337360627784169
     3   1       28.63083003060763      2.7975715370957452    0.059891472969786794
     4   1      1.4030903028194996      4.3716970670721018       1.537176236486117
     5   1      28.619234748748909      5.9215637907398753     0.07109003775590278
     6   1      1.3897215830466043      7.0595882529730734      1.3920236236417276
     7   1      28.664002034914649      8.5726846454199297       0.123504146122525
     8   1      1.3965899328860463      9.8535074036891164      1.5116783348053555
     9   1      28.687909793475772      11.497741219081979     0.21233486148104258
    10   1      1.3617206897832606      13.051317033996977      1.4705043188340714
    11   1    0.091625710352016401      14.402538093721148       28.66856767013374
    12   1      1.6500666168453806      15.829849391550502      1.3905088363519786
    13   1    0.017575075789217097      17.337478584992912     0.02226086771370318
    14   1      1.4906160529303762      18.407021481785328      1.5345170518562443
    15   1      28.598637012781808      19.984570396721161      28.627942357652728
    16   1      1.3678067053493825      21.185916953256307      1.5562979750839749
    17   1      0.1217329825777384      22.781490884778158    0.029395730739361244
    18   1      1.3892374501342379      24.424866421221584      1.5057447602677942
    19   1      28.683411618103779      25.561993353216629    0.053785583787225782
    20   1      1.4145618794426489      27.231735754062228      1.3328985306417287
    21   1      3.0232165898148535      28.636827052721859    0.087847473685644689
    22   1       4.323206038188367      1.6948361176987641        1.32003984932927
    23   1      2.7931885673954313      2.9076336356719197       28.62037309998701
    24   1      4.3269767799596863      4.1891583452881234       1.390604107010881
    25   1      2.7531119476798378      5.7535046445679159     0.10073703888962186
    26   1       4.401588811660778      7.2256845299511854       1.410788307638517
    27   1      2.8160187439308615      8.4126172091617253    0.025046832887369426
    28   1      4.2075998955651039      9.9762045600747467      1.5645396252283823
    29   1      2.9541174961240451       11.40024198187629      28.672615017266441
    30   1      4.1313920866181046      12.919694295633454      1.4746131282200732
    31   1       2.765657425964573      14.348171018260707    0.041346183900668604
    32   1      4.3874306091257287      15.562208042550763      1.3981058742226986
    33   1      2.8380504032185074      17.385236003400397       28.61722400073495
    34   1      4.5728987322721766      18.547563015607743      1.4478663564113394
    35   1      3.0027546652163219      19.944490395466122     0.28432587183009461
    36   1      4.2359785668160645      21.574953779587634      1.5179569037579206
    37   1      2.7274257286989272      22.666514320309908     0.12728314534726898
    38   1      4.0585675822809133      24.195427481519015      1.4403301369725441
    39   1      2.9344397154850079       25.80120211712385     0.14951000011946008
    40   1      4.3078799558600407      27.284140441557707      1.4818801188568618
    41   1      5.6811211798048795      28.651481449078037     0.13371510336459094
    42   1      7.0727877599913143      1.5181354713443966      1.1659678432363543
    43   1      5.7193140652859187      2.7091168990296182      28.575622111958328
    44   1      7.0084622858381609      4.3726726541221757      1.3126297039049066
    45   1      5.7277737913367925       5.785774338709853      28.418229310122815
    46   1      7.1199987453625155      7.3181200617662867      1.4698072542172329
    47   1      5.6947443509954692      8.6180513000260763    0.041823386257237985
    48   1      7.1211031201471293      10.169600676578591      1.5004208877498861
    49   1      5.5347581356156876       11.61227488052854    0.084651437633078724
    50   1      7.1622077349959161      12.796572454177408      1.5370922739513719
    51   1      5.9025265816915633      14.177292201134707     0.15837624842768028
    52   1      7.2693293017520881      15.734049335696648      1.5388865848128483
    53   1      5.7803173766613316      17.166346256941775    0.045498084027667508
    54   1      7.4496222383919379      18.600099329879182      1.4298661387416922
    55   1      5.8380136756088801      19.825008022394062      28.579955317404568
    56   1      7.2664924637561557      21.451956674324467      1.3051491806678315
    57   1      5.7605095163250599      22.990775247336593     0.12116114791190287
    58   1      7.2850940119665113      24.495917899923782      1.5125588178871012
    59   1      5.7671981991734507      25.670814720381284      0.1486097436777071
    60   1      7.2458088767353388       27.30017998022884      1.4748572222155181
    61   1      8.5415408222429647      28.631804238284278      28.515636148693176
    62   1      10.034977686943579       1.336261287296644      1.1230570837563509
    63   1      8.4987546048446276      2.8972307001629947      28.604428084684759
    64   1      9.7340460245983831      4.3142328759475443      1.3569380268165667
    65   1      8.5545956553995985      5.6975555457440814      28.583271882725114
    66   1      9.9848314982021229      7.1302355298353755      1.3564636117140936
    67   1      8.4885095307600515      8.5736736912540454    0.056609304638436685
    68   1      10.136022796486627      9.8228821070285388       1.233592146756042
    69   1      8.6171779780635074      11.405820802039957    0.013734562331308101
    70   1      9.9706718842299704      12.772528921218628      1.1538752482699464
    71   1      8.4255293569776804      14.301123983993993    0.044624982800860358
    72   1      10.021102317287578      16.012344120964244      1.4625461264886099
    73   1      8.6673730626175356       17.07282600192411      28.644812884374307
    74   1      10.043210123963366      18.784248331287277      1.4940076577854138
    75   1      8.6191894655188275      20.094797236221005    0.056207571775075862
    76   1      9.9718699342235748      21.669967675925395      1.4993305403497734
    77   1      8.5283265734083322      22.942963365365657      28.620208213987301
    78   1      10.067871605686703       24.41083258141143      1.3407222088083572
    79   1      8.5746092456012786      25.979664536998506    0.037274724419091756
    80   1       10.05027212548122      27.310393741273987      1.3047318930714469
    81   1      11.485273426624165      28.530694814460478       28.66685368774872
    82   1      12.853594260806341       1.415239188733038       1.394333534277018
    83   1      11.430434699359795      2.8770854796713019      28.638804487840464
    84   1      12.801979377711259         4.1904268557219       1.483829363603967
    85   1      11.442286828600807      5.5929568612514267      28.598707187936355
    86   1      12.832346428509048      7.1251094861296673      1.3526553233266776
    87   1      11.528266468173145       8.559026642217562      28.536549567802158
    88   1      14.392036738430537      11.360101012360959      2.6886787084927728
    89   1      11.777330644675853       11.41388213868337      28.521804154334319
    90   1      12.766272590964588      12.780274964278748      1.4795214272567476
    91   1      11.556710789604574      14.370835188371176     0.19493702506248381
    92   1      12.842125002812621      16.048824043822865      1.4467293661901062
    93   1      11.477574450828122      17.449231489927911      28.662926217458594
    94   1      12.844275937714459      18.937993915613564      1.4932227540409266
    95   1      11.343051678777838      20.081220898406311      28.650340182959312
    96   1      12.906745279987065      21.611136368184184      1.3429794225461922
    97   1      11.414442195327874      23.150683330787931       28.67100697440452
    98   1      12.861847000101063      24.459737119829036      1.4421827445101492
    99   1      11.304818350527007      25.952427563166012      28.633924498318507
   100   1      12.825962331692619       27.32321939445303      1.5558384377919203
   101   1      14.181229622886336      28.634332495136963      28.613188644616688
   102   1      15.500251632689917      1.3142858990007777       1.355118755516479
   103   1      14.190167836003249       2.771521092041703      28.542850386819257
   104   1      15.673763729471988      4.2957095323578072      1.4107644266915496
   105   1       14.20222140477912      5.5602892707847618     0.12622580330940988
   106   1      15.719867604360173      7.2064517623064521      1.0710769658375063
   107   1      14.042800256248677      8.9182279322341866       28.57763778318726
   108   1      15.825437042137949      10.101398184213044      1.3119200198135663
   109   1      14.232998548303621      11.556229169243613      28.577687219556442
   110   1      15.706962193634824       12.75719812165991      1.4021377580202743
   111   1      14.339838339152468      14.390257920785022     0.15504961460528638
   112   1      15.760686597114878      16.048533150701275      1.3685367643262683
   113   1      14.180567800707189      17.558382090375542      28.668168673175959
   114   1      15.702732224887745      18.754920948777219      1.5096490983007467
   115   1       14.36603810039411      20.066581453676761      28.560497961502008
   116   1      15.865990860966873      21.426075772316295      1.4065567715473786
   117   1      14.119031049368509      22.998878617357754      28.473857854594119
   118   1      15.667259728015477      24.157654046885384      1.1962199496419554
   119   1      14.132725468459428      25.804564624317202      28.611615425749839
   120   1      15.649888215199336      27.212428571957883      1.5378620210194063
   121   1       17.03509236087492    0.043817284867327451     0.10008672964135042
   122   1      18.593501919077422      1.3923769330727049       1.387924308243226
   123   1      17.080578532639347      2.8891004701885765        28.6034847668559
   124   1      18.471093689525233      4.2277697260074003      1.6344819757114226
   125   1      17.257037229843803      5.4482621318741735      28.564377435824046
   126   1      18.588773423485875      7.2155711008131753      1.4188641539688214
   127   1       17.46462682976933      8.5907584905164782      28.605295818908445
   128   1      18.591323180884554      10.065089756847568      1.5150180888101559
   129   1      17.344513372320474      11.397929143800161      28.547527724051669
   130   1      18.625261151800558      12.975669580395149     0.97251243780582342
   131   1      17.162569969476177      14.462683114965458      28.613149789638967
   132   1      18.666522958153084      15.903255198272131      1.5088283100525925
   133   1      17.224692372234365      17.235045307781999      28.582434909362078
   134   1      18.689462826269509      18.685807685456329      1.4041170317009448
   135   1      17.193249216025887      19.944199128582884      28.403629473372597
   136   1      18.628342591443115      21.315059628960867      1.4723063478387537
   137   1        17.1939771662244      22.799297389640614    0.017393368085288321
   138   1      18.640285722292553      24.321515986534301      1.3643431145948273
   139   1      17.179767795967592      25.819017790270095    0.030798467989552727
   140   1      18.617506160174436      27.195545759136397      1.3859884693214199
   141   1      20.137336643110835        28.6762247344295    0.042317892994003486
   142   1      21.657086946492022      1.5274599688973352      1.3562809758086025
   143   1      20.001915720046267      2.7265018085547701      28.629826170565114
   144   1      21.494527262870044      4.0878285587571721      1.3579711519291546
   145   1      20.074748372934042      5.5130410511268879     0.20952950011214841
   146   1      21.449545523294354      7.3506893824655597      1.5680342539836043
   147   1      19.954719225933594      8.4181757099304804      28.618933484674194
   148   1      21.501491437668015      10.075136855348866      1.5300632724056065
   149   1      20.177436664880648       11.51024977228696     0.13898218371193691
   150   1      21.462964480088147      12.912630822939681      1.4432681777463243
   151   1      19.985251528095937      14.464953372336863      28.630700675470056
   152   1      21.827705082999067       15.81138891795765      1.5140539825163515
   153   1      20.073430520436162      17.159702580672921      28.628608984672027
   154   1      21.617049462212435      18.824842191494881      1.4311682693167864
   155   1      20.023890662270041      20.183980004364461      28.619080158047495
   156   1      21.642809831179182      21.436724244140283      1.5833725125790818
   157   1      20.065649672093198      22.728228329718391    0.043784590924190063
   158   1      21.738936901274165      24.152038413191029      1.2970405993253731
   159   1      20.084232687285326      25.807960422724509      28.623567312168319
   160   1      21.472403043403627      27.209181526482151      1.3406928848184279
   161   1       23.32422307936865      28.683332684112486   0.0065281504239465089
   162   1      24.562635581819492      1.5930928435861331       1.342014169145489
   163   1       22.94466757885165      2.9208200023109523      28.696276150390663
   164   1      24.337774326314324      4.4236990680722785      1.2159459447367686
   165   1      22.892184390247071      5.6474730804435156      28.555088068897113
   166   1      24.265743307870533       7.149954694089188      1.4600203774790881
   167   1      22.914755921499303      8.3893572292736938      28.517031502824089
   168   1      24.379781157778467      10.000751350401066      1.4698835201531206
   169   1      23.061864737272842      11.316713796830692     0.18469742967688491
   170   1      24.434799849586089      12.772553415016363      1.6433602847832278
   171   1      23.077644143594931        14.1796978578761     0.11494706145437031
   172   1      24.377044895053068      15.818076140671449      1.4910690681217835
   173   1      22.938800487154491      17.148098899196757      28.623950755123932
   174   1       24.37877739291217      18.646254415417953      1.1661296137609944
   175   1      23.042617598946801       20.29401527489113      28.500312547076092
   176   1      24.526511811929474      21.563794843196231      1.2711488253984171
   177   1      22.980003732539807      22.946533475529876      28.569852107348837
   178   1      24.486063471451239      24.241550047384713      1.3119867594274865
   179   1      23.132700879320204      25.846392325787185     0.15812685495953924
   180   1      24.630044215172717      27.124421440180356      1.4927792689041448
   181   1      25.715253098489722       28.53300456964887      28.678527861327382
   182   1      27.236174373103772      1.3184333425177899      1.3663502732412449
   183   1      25.874336236188157      2.9803897055730544      28.641644940670194
   184   1      27.354009308885654      4.1925043649528568       1.331708614157129
   185   1      25.950780256241522       5.878594359696427       28.61820996039404
   186   1      27.185975877077258      6.9954477056242066      1.6121740322112035
   187   1      25.778815971789456      8.4946950235527172     0.10933640615238582
   188   1      27.282761382888356      9.8957729085455703      1.5111279259703685
   189   1      25.729029951497605      11.402060702974861     0.23926151230816686
   190   1      27.369859987324659      12.846259460059592      1.6923117452762528
   191   1      25.793415358888247      14.402194439326831     0.23147101023043892
   192   1      27.378133890351759      15.814535580440392       1.227483035503975
   193   1      25.596881507686845      17.311347914055006      28.548804814652215
   194   1      27.094448241940924      18.604878268241297       1.332061588738737
   195   1      25.869256377296111       20.04188165469046      28.589402965681401
   196   1       27.43712584320517      21.371323824943442      1.3827171106739806
   197   1       25.94753393444773      22.888378350704052   0.0050272700785171619
   198   1      27.341391570331528      24.141962235169288      1.3373636800761808
   199   1      25.850814472429747      25.572103182581973      28.616985946301213
   200   1      27.313550976106907      27.128997485476937      1.2641898670704903
   201   1      28.693796021364466      28.655389052673787       2.942703077406601
   202   1      1.6471633923370637      1.4368771759969607      4.1321718207661196
   203   1      28.679331793171301      2.7609696276617908      2.6375092989901181
   204   1      1.3960483500169061      4.2758907941448632      4.3506830511824965
   205   1      28.639648532647527       5.587956925917565      2.9789338829484677
   206   1      1.4919076906308431      7.3012151933259375      4.2831857885300808
   207   1      28.623929030899124      8.4536182613156257      2.9974634826478681
   208   1      1.5157409365902363      9.8559791285087144      4.4322905589911441
   209   1    0.065304883529052837      11.526324444133955      3.0547067835403103
   210   1      1.4483997384727225      12.890079182254162      4.3832437753111853
   211   1     0.09090453905380505      14.638603996429573      2.9372173539389919
   212   1      1.5338279654776892      15.692304618668162      4.3149915373075372
   213   1      28.473791385191635      17.285555157836406      2.7800551578337713
   214   1      1.4246096903593988      18.514345651069895       4.050450281030316
   215   1      28.628191218915404      19.779914761977604      2.9097423485858891
   216   1      1.3504099458448429      21.212131556972128      4.3286524975933984
   217   1    0.073473547552329474      22.924484876752125      2.9504101191975365
   218   1      1.5082156654526675      24.443739204729699      4.1975999346741117
   219   1    0.060612374736867231      25.977724237535021      2.8653931252688709
   220   1      1.4407292627151502      27.302557011444001      4.4912114698113337
   221   1      2.9201737072973177    0.016409549883280909      2.7182384024220707
   222   1       4.416820867864673      1.5744673765442931      4.1807315054677225
   223   1      2.8279001885610326      2.9318689038539003      2.8677432987690512
   224   1      4.1108673442537613      4.2207692569161575      4.1647104407971156
   225   1      2.9284513052243502       5.808766605231872      3.0029505610798437
   226   1      4.3997734613017245      7.3508066844419009       4.269480911848591
   227   1      2.8025050765888411        8.57557246392075      2.8209270904414545
   228   1       4.170714125648967      10.211774456017437      4.3894837727689566
   229   1      2.8338186304919097        11.4967454610362       2.886739453488858
   230   1      4.1697628237789157      13.046627324606323      4.5072973531216958
   231   1      2.9015177785229009      14.333644077757461      2.8508974722180835
   232   1      4.2936976782276739       15.63364678410522      4.1962144525715477
   233   1      3.2594581809748706      17.162241431387521      2.8682137747990288
   234   1      4.5485690964961467      18.800606514785933       4.319131354301124
   235   1      3.0039949263293546      19.872606834832823      2.9179063058458894
   236   1      4.5651880827734583      21.508862167374264      4.4856927364265822
   237   1      2.8508527639281294      22.631782415486967      2.9709056560414004
   238   1      4.2894313332156351       24.36180771126466      4.3649344771346641
   239   1      2.8925896269792624      25.833497635713393      2.7949621694845175
   240   1      4.3126783313982919      27.167626715126715      4.1661033253266311
   241   1      5.6987281265874561     0.33381985020984062      2.8407212383426907
   242   1      7.1593816894301519       1.595039955269737      4.3954592692788097
   243   1      5.8001185456026789      2.9483984409036061      2.7617865560976829
   244   1      7.0132899898592305      4.4981020325535246       4.246979654690767
   245   1      5.7603604105529778      5.8462646004863243      2.8595787483656743
   246   1      7.1576762700739973      7.4094455649696185      4.4246677149445492
   247   1      5.7707359093641211      8.8455776028768103      2.9535759498962886
   248   1      7.1693161086519952      10.233190828802821       4.256244368338626
   249   1      5.5939862542647329      11.497036321973409      3.1242998142254064
   250   1      7.1785661807365821      12.991328594143122      4.4494910079124255
   251   1      5.6924509196926216      14.212649307943993      2.8624790093529882
   252   1      7.0951741464964799      15.578983026321939      4.2994885131868195
   253   1      5.8747495231003812        17.0791639489434      2.8406693118213062
   254   1      7.1548434926870321      18.460102199082201      4.4718156451673012
   255   1      5.7699643650836414      20.215185104851994      2.8064455376794522
   256   1      7.2202220879703605      21.552059055542376      4.2938788512447585
   257   1      5.7304387662185192      22.965458042576426      2.9199045905076519
   258   1      7.3423467004559502      24.628630295015309      4.0727203820230242
   259   1       5.581689177416199      25.799727611923473      2.7209472134570993
   260   1      7.1887054120339293      27.453843259604028      3.9192402402041733
   261   1      8.5805270127727979     0.29905832698365192       2.830530896341235
   262   1      10.088659527954773      1.4597849800398295      4.3780593258992448
   263   1      8.6086864769916254       2.854738132825561      2.7144132336144908
   264   1      9.9889832430714609       4.482905131099221      4.1569359067397773
   265   1      8.3429880278971353       5.891347529501501      2.8751223353799418
   266   1      10.044575196017044      7.1883943331067677      4.2704040874287701
   267   1      8.6540685688760917      8.6976213930357815      2.7254655528651943
   268   1      10.018837430149501       10.00677668265158      4.3797712986986133
   269   1      8.7717884268722308      11.449340430661087       2.797634528293075
   270   1      10.114261885123955      12.844556740501098      4.2965029918061513
   271   1       8.754445152759617      14.249398140824598      2.9612321670795052
   272   1       10.11278683265536      15.850324325947232      4.3338367392588397
   273   1       8.604401570512918       17.30842156293582      3.0773632151345778
   274   1      9.9991951768307974       18.69778682370649      4.3460760235096583
   275   1      8.5239232995308747      20.088032970108401      2.9296192844877522
   276   1      10.070485909472787      21.499852000529163      4.4867628398876107
   277   1      8.7031097884464419      22.941885700595019      2.9660421347044892
   278   1      10.010787241563209      24.430785464416967      4.3182460751855523
   279   1      8.8639855846105853      25.983940995123152      2.8502364090016838
   280   1      10.176986525044157      27.414875546383183      4.2056805416530416
   281   1        11.4834035227068      0.1300270626301995      2.7922586263610016
   282   1       12.71799148982832      1.3885468946581576      4.2644046583738433
   283   1      11.204879806626257      2.6976410311460208      2.7478710150040673
   284   1      12.887302993245807      4.3604502758458912      3.9239963507213216
   285   1      11.330542778562991      5.7649869167907388      2.7016705480506502
   286   1      12.840157551977805      7.2492247051326153      4.1892046372427334
   287   1      11.589646068267944      8.5903609609611884      2.8522207059351548
   288   1      12.744290073499018      10.140760037563485      4.1884668486342855
   289   1       11.32220549554836      11.196777725073343      2.6180713165442517
   290   1      13.038408147531518      12.732304114718325      4.2755453488026678
   291   1      11.368285854484073      14.283767591800228      2.7733949636105533
   292   1      12.774222078091093      15.767927718192428       4.232361609121857
   293   1      11.592806906041734      17.427131848527885      2.9686631151963288
   294   1      12.670050507062557      19.068983339862918      4.5459256199971492
   295   1      11.272108335262571      20.347585379337453      2.8699468030478554
   296   1       12.64663645770246      21.763800218135291      4.4006049301177805
   297   1      11.394613790684513      23.103540251381599      2.8517328158390236
   298   1        12.7412112325135      24.592080083594958      4.3048156310935504
   299   1       11.25539756990741       25.85160410617199      2.9027525058019825
   300   1      12.694741072681767      27.301160684941198      4.1115196508749499
   301   1      14.347119750590617    0.089974075444104254       3.089113167935412
   302   1      15.722543866304632      1.4137744613456782      4.4735523669750545
   303   1      14.286244591983621      2.8660283288025532      2.8303617365779137
   304   1      15.654945329027226      4.3704132142915402       4.268371617320625
   305   1      14.437582829999494      5.9555293583554496      2.7329046671093247
   306   1      15.807005830052185      7.0936114410599522      4.2832145325257454
   307   1      14.206269191184242      8.5804687627646743      2.7338021254481291
   308   1      17.329040408485678      11.645906882113971      2.5746062521671544
   309   1      15.851258214508116      10.166712882467316      3.9502185715571345
   310   1      15.926597798608871      12.873710086394176      4.0997699598266975
   311   1      14.253982509026638        14.4817770103061      2.6502500121219676
   312   1      15.830856366599871      15.838260833592219      4.4015911399481036
   313   1      14.224965038244449      17.289440781644327      2.8797628754038325
   314   1      15.862780342298972      18.458550214558294      4.2755942708841426
   315   1      14.277078301716381      20.169994088391391      3.0825761591948333
   316   1      15.671402968599629      21.446474998228606      4.5023854856875687
   317   1       14.44650704842852      23.182526129708755      2.8375000831972668
   318   1      15.789935144319038      24.354717735751972      4.4399972508748071
   319   1      14.256870866083966      25.871080080640468      2.7220415056265788
   320   1      15.861880159593516      26.964341180707848      4.2150957704512573
   321   1      17.139561662584171      28.607285488641423      2.9495463483706161
   322   1      18.487492786836142      1.5996623669228469       4.132580902024281
   323   1      17.087077496741209      2.7869191473847064      2.8072002751749205
   324   1      18.592071276074101      4.5495941743848078      4.1538316255647718
   325   1      17.131529765039428      5.7878359385465954      2.9293561735826925
   326   1      18.583087644914215      6.9987830874083876      4.3623167495883299
   327   1      17.037937286475348      8.6861324478398725       2.504745856917189
   328   1      18.607663335583666      10.179344994205305      4.1349832169379326
   329   1      18.696604922574682      12.977553581048101      4.2625162676200556
   330   1      17.157313364155883      14.391233458044585       2.725200178658211
   331   1      18.757904991630838      15.881485487969497      4.1511297740723609
   332   1      17.225679558108872      17.202110964002436      2.8692286854058353
   333   1      18.727774699935207      18.630143529497165      4.2148009727124576
   334   1      16.978174222815834      19.965222787054977      2.9585010761268533
   335   1      18.430979815818841      21.642512860254083      4.2491063450900688
   336   1      17.166729767827515      22.909289312470058         2.6852678231092
   337   1      18.567847698375445      24.277831627195585      4.4316309370796176
   338   1      17.120296420319281      25.598797149151565      2.8105943700973266
   339   1      18.723085501236653      27.171683962088576      4.0613984882623066
   340   1      20.049452730462047    0.071575642242271503      2.7390778054004605
   341   1      21.795710327361991      1.4715161238929231      4.2897272207271833
   342   1      20.075828347788772      2.7860572946639532      2.8056126096652392
   343   1      21.415382388867172      4.3049817172681575      4.2781694400564536
   344   1      20.151478974230805       5.713156022500022      2.8717408797992929
   345   1      21.498531616056358      7.2750826846775487      4.2603008173764474
   346   1      19.781838404709525        8.45118854489691      2.8986195239726151
   347   1      21.328594302242429      10.121587912641722      4.3685286403069838
   348   1      19.969390183889136      11.468691888249868      2.6617897228588827
   349   1      21.562937748601975      12.933915077902343      4.2972200203149162
   350   1      20.061823248972509      14.385211878364236      2.9317236879086828
   351   1      21.418040158666621      15.967653084154412      4.3116155695095379
   352   1      20.424010227523706      17.195290530107371      2.6687567956442404
   353   1      21.596372162053264      18.648900460686626      4.2362663613264298
   354   1      20.058480116550765      20.103442313297204      2.9584751242142189
   355   1      21.690416659991978      21.391174238188537      4.2338265706355802
   356   1      20.121433112542796      22.904027311574197      2.9191880775819303
   357   1      21.639771450631596       24.47192389918256      4.3483759252595604
   358   1       20.10506660484662      25.778564763646308      2.7052678392549745
   359   1      21.519699938007772      27.166947497401132      4.2557403625602461