dump/Fe_1050_5/steps_41 (written by ASE) 

1995 	 atoms 
1  atom types
0.0      28.699999999999999  xlo xhi
0.0      28.699999999999999  ylo yhi
0.0      28.699999999999999  zlo zhi


Atoms 

     1   1      28.593063475303669      28.555999258193939    0.089609529608844676
     2   1      1.2852785272489309      1.3501749129889609       1.460441630227626
     3   1      28.607152564726281      2.7970503463267531      28.575422180444704
     4   1      1.3550128208125558      4.2408003489112209      1.4882069980222226
     5   1      28.611319475830488      5.5958735152306485    0.020353880561538057
     6   1      1.2996505023901925      6.9288108036117597      1.6044611737559413
     7   1      28.636947574258613      8.3653668958909986      28.695460688747119
     8   1      1.4825944869696754      9.8887217178601503      1.4805333446672773
     9   1     0.12841373039725637      11.442891020317886     0.10750228732404145
    10   1      1.5691749128032495      12.853196425032873      1.5252493112681227
    11   1    0.023686826196331789       14.21595980518584     0.17131573547793538
    12   1      1.4813113275204175      15.811153881222289      1.6301819143932106
    13   1    0.024256095861052158      17.252978137115608     0.14832487358353302
    14   1      1.4449647778058206      18.779911898347109      1.5894798780797721
    15   1     0.06189567691458378      20.092755005710181     0.12814628060773428
    16   1      1.4634672266200388      21.597215456681077      1.2770740776602454
    17   1       28.57459952540626      22.762794173395733    0.038448568032822546
    18   1      1.3984245760744234       24.15408593226692      1.3380908803955889
    19   1      28.676430664662579      25.772048032034142    0.064055496072410345
    20   1      1.4401246554789298      27.102824017643663      1.3185716565873358
    21   1      2.8031980061621562      28.644983551095198    0.019977527068829208
    22   1      4.0915373844310361      1.2942235824374382      1.2039598012123853
    23   1      2.7301259248133336      2.8028457368537283      28.479897947293328
    24   1      4.0153691088754471      4.2383088953309711      1.2558628287087903
    25   1      2.7621524493699896      5.9458516016155594     0.10476908248668897
    26   1       4.302887317991746      7.1080749467049893      1.4611769721021219
    27   1      2.7243548868793606      8.4248385902018921     0.16849220911969939
    28   1      4.3219062648254774      9.8431851672729866      1.5301367269589021
    29   1      2.7178948980420636      11.342178259231074    0.081768629451289598
    30   1       4.361704972485354      12.968008232974746      1.4635337225899769
    31   1      2.6889819867536882      14.469068116037695      28.630495721741216
    32   1      4.4903886786826188      15.921841329697919      1.4547708445000904
    33   1      2.7810337783171502      17.124267172673555      28.658765001235881
    34   1       4.205692919082356      18.617672332862522      1.3512444030314765
    35   1      2.7623133232281494      19.938064219586053      28.685358866259396
    36   1      4.3619254805344623      21.613859901540287      1.5703429209555897
    37   1      3.0061831521668161      23.030197331049273    0.031831042620035471
    38   1      4.1661212947789164      24.465488456344733      1.4295551936746627
    39   1      2.9120903538788063      25.653761855035565      28.473525471005537
    40   1      4.1855808737953257      27.289370607517558      1.2838048367401487
    41   1      5.7384235383623974       28.67570835723031    0.052545797808170425
    42   1      7.2143975973182641      1.4900107367405211      1.3448758327051669
    43   1        5.72612431027322      2.8556890262567776      28.418685590010739
    44   1       6.972099019098513      4.1332364130077028      1.3797957442183013
    45   1      5.5725831865000952      5.7561628032978263      28.455866311406112
    46   1      7.0067654107105319      7.0908840514643616      1.4444550462716066
    47   1       5.540762645296728       8.478794023615368       28.67382663588009
    48   1       7.082283636571316         9.7262937523207      1.5083059250518998
    49   1      5.7089389712559866      11.463884127852138      28.628778455962138
    50   1      7.1549483299049266      13.052646156962897      1.4848862886315832
    51   1      5.5444790019034285      14.270730962665944      28.594118811821364
    52   1      7.2398210701373635      15.778937772970172      1.5242942254755583
    53   1      5.9208325790603649      17.184726707493265      28.591044223350384
    54   1      7.2146036118836205      18.718207611107623      1.5818140259392304
    55   1      5.7552872193547699       19.94515590113517     0.10688333548617934
    56   1      7.0302355780854526      21.529416480899613      1.4634862239560449
    57   1      5.7326208316282745      22.989122990004812    0.020522009135891032
    58   1      7.1121436768702244      24.336131304105074      1.3536049175582661
    59   1      5.7626474037758504      25.684583852224598    0.064026739328915117
    60   1      7.2244756017480851      27.311615885139151      1.3323830176032518
    61   1      8.5612143315997642      0.1719090696423905     0.10162147118794568
    62   1      10.061524152369305      1.6626715190328245      1.3793934085895323
    63   1       8.607861202477805      3.1113363164661409    0.028733908077310792
    64   1      10.295174351057446      4.5165197000171942      1.3692214830358349
    65   1      8.7612555901680178       5.756994581353454      28.620961361604092
    66   1      10.104122344844848      6.9208615526737107      1.5957669320571433
    67   1      8.6557708409725151      8.4380990559040452    0.038591537753689044
    68   1       9.967598261342614      10.184066145865575      1.4209742324741217
    69   1      8.5177844736715205       11.49584135320349     0.19985647032909798
    70   1      10.031735391404661      12.869445582799193      1.2725146259010454
    71   1      8.6582004222944686      14.364059730613585    0.076730116482019564
    72   1      10.130204581439504      15.733381361458918      1.5888515012661517
    73   1      8.6691597215676168      17.209769360855201     0.13037125418456985
    74   1      10.122391030546122      18.755509904032298      1.6801493878113205
    75   1       8.535141059536036      19.866069558636255    0.031504160904546566
    76   1      9.7331688412508495       21.54750385418015      1.2635017274556388
    77   1      8.6689148407025751      23.078403189568704      28.645510038385666
    78   1      10.008343277565841      24.554052090804007      1.3008248859340921
    79   1      8.6554829772187247      26.027106808368625      28.694970941875894
    80   1      9.9690117083073932      27.234940377141641      1.5506676358980831
    81   1      11.508136007433535      28.523723460074226     0.10433111720925571
    82   1      12.943791728876842      1.4905838064395207      1.3069450751906957
    83   1      11.546568527931226      2.9584375532738481    0.038691045823588815
    84   1       13.03470031449322      4.1836488726944134      1.5534874330544315
    85   1       11.67249034917482      5.6540170148880913      28.668201386276706
    86   1      12.790083079898373      7.0452113044641322      1.4244852340113883
    87   1       11.53132647678394      8.5812375959092133    0.093531097150241674
    88   1      14.286563370442918      11.476992319989568      2.9464223630006989
    89   1      11.430917482792591      11.558700607046712      28.636737588991057
    90   1      12.883462103432294      13.006768143005507      1.5051389982962184
    91   1      11.411398852646496      14.212871389536522    0.071704718634532705
    92   1      12.844689681466081      15.822384043323611      1.6302398067416448
    93   1      11.558545764568757       17.30711411182984      0.1081470480850498
    94   1      12.847201995689572      18.819839255600563      1.5511905010640141
    95   1      11.421218970126166      19.860725663016179    0.062196464873204703
    96   1      13.040091087116258      21.702875605830322      1.3922131620004154
    97   1      11.454769709901177      22.806949914775618      28.486133809984896
    98   1      12.977195270127282      24.188892717404002      1.2359280428424086
    99   1      11.540335708882264      25.839449257354897     0.16597559438567955
   100   1      13.001332420102782      27.235427828193771      1.7174974651242665
   101   1      14.233123685404797      28.516291550610578      28.695121076001584
   102   1      15.762886507177603      1.5339987342805563      1.4240300694913552
   103   1      14.209057432675168      3.0731522527386672      28.612033625393611
   104   1      15.900619293416058      4.1192553648503338      1.6126781043551666
   105   1      14.448474231859583      5.6424606689183037     0.14299634555460433
   106   1      15.849785239922333      7.1980845889233604      1.4666307996321619
   107   1      14.354388774419482      8.5011996235623766    0.096401110494423459
   108   1      15.794065671064905      10.215444826414592      1.5693239773627625
   109   1      14.383860285803626      11.335739057196331      28.660757603173387
   110   1      15.564686314225977      13.005061864665066      1.3326189040499687
   111   1      14.197958042388629      14.445232715333402    0.016286265331871164
   112   1       15.68679482290924      15.646134598728773      1.3445621735917594
   113   1      14.257169562951898      17.408510187563056      28.513720596694768
   114   1      15.521850529590319      18.687399367128972      1.4255852050435798
   115   1       14.48945088290572       20.26456848690556      28.693737827944918
   116   1      15.823726404089795      21.674260278510296      1.4660507054768914
   117   1       14.37757263130565      22.973555444910723      28.560607928922767
   118   1      15.849549502608976      24.374529062516295      1.4549310488944334
   119   1      14.403575329233258      25.684766211750318      28.666992912389222
   120   1      15.539536719615175      27.174527992663723      1.4173251333810082
   121   1      17.317318829387219      28.538317388750787     0.12174899654505669
   122   1      18.763571404250264      1.4609604197430035      1.4375918950970119
   123   1       17.26050542690292      2.7982631768793818      28.604207937471674
   124   1      18.654293850072023      4.2302268834960213      1.5387325569710253
   125   1       17.27936045367781      5.8086802827865816      28.630603359983883
   126   1      18.650610734996462       7.228852343026956      1.3796561144099315
   127   1      17.048819172790534      8.5280979376547759    0.051250710629972343
   128   1      18.758064564409981      10.114498249344271      1.5643697284479792
   129   1      17.193337717537069      11.499193100979817     0.13590652331251926
   130   1       18.84131306783647      12.866353426965356       1.361675893629035
   131   1      17.205487760854929      14.231785538126644      28.548716499786956
   132   1      18.551969475265711      15.838974636344481      1.3678795160715129
   133   1      17.066146152467763      17.332677390596963     0.34452998020594755
   134   1      18.460047175639748      18.902136249178827      1.5743271905928402
   135   1      17.018545391588457      20.257910639714542      28.629629524341247
   136   1      18.529637911230076      21.430522432167052      1.2458568921370554
   137   1      17.175921184401709      22.959198681779945    0.048105713577967786
   138   1      18.486875971337636      24.423146274885024      1.3826678252033398
   139   1      17.197654690830095      25.844082253492605      28.671580050125044
   140   1      18.736962861211378      26.985502860930886      1.5296939995776362
   141   1      20.438231626845873     0.10765069729490057     0.12347860165683634
   142   1        21.5384662709222      1.4544325721961269      1.6345323139414871
   143   1      19.990747661797656      2.7669059221481591      28.647461817716323
   144   1      21.557630648700897      4.2197267291291292        1.66154482902042
   145   1      20.089182133852752      5.3830664697026789     0.11021785996971405
   146   1      21.449045987882027      7.1892940313368188      1.4728574147764444
   147   1      19.823919636064854      8.6526625696326356     0.19794841682137315
   148   1      21.531342396943778      10.079851287880308      1.4962969704012155
   149   1      20.189047762689892      11.500370223491462      28.640706560680233
   150   1      21.663017815006452       12.80384747945018      1.4196250557812617
   151   1      20.146567433854447      14.358470114238152     0.12944510132083464
   152   1      21.538776838710252      16.003066814933028      1.4447014981513688
   153   1      20.153006643654695       17.55921390530095     0.18856045138076058
   154   1       21.56212498991939      18.738709050623548      1.6668976145476908
   155   1      20.012025246935885      20.089838801343237      28.604926630424163
   156   1      21.608879604251122      21.461942005238466       1.614362009334275
   157   1      20.119784856919733      22.732128798812997    0.062979243913514574
   158   1      21.612057435602654      24.511897462908223      1.4026976102463324
   159   1      19.994789015447711      25.955945166915765      28.609043922440069
   160   1      21.557362945084154      27.161762452610787      1.3695986849412978
   161   1      23.004816599308622      28.659344543109601      28.609893049246864
   162   1      24.256572364689497      1.5600605532696823       1.670252636425585
   163   1      23.059430694051873      3.0899380903494031    0.096589608658780329
   164   1      24.376769572094329      4.3704813319542195      1.6966811040313123
   165   1      22.909018171118436      5.5472802968261368     0.16708313768400548
   166   1      24.495193015825855      7.2781996555264383      1.4971103078055294
   167   1      22.992059297367177      8.5250695980497042      0.2197517946218113
   168   1      24.374446603498477      10.064635543897362      1.3843975897981193
   169   1       23.16258259200109      11.320496082780842      28.641171669927331
   170   1      24.356858191434061      12.852448696492054      1.3046900668300738
   171   1      22.947187130273296      14.350056702707526    0.086084251744284801
   172   1      24.415983187701457      15.670229926906833      1.4244948788974272
   173   1      23.082969738854853      17.194701435553025    0.051241537168095749
   174   1      24.490387337653733      18.740508231604242      1.6949215523948169
   175   1       22.94577461565385      20.037819882925845     0.18703098541981272
   176   1      24.473219034425234      21.663136620238706      1.3756883270057627
   177   1      22.844907329038673      23.052562292956903     0.14059216572842398
   178   1      24.476432208696025      24.411448022378476      1.5318331759958721
   179   1        22.8575586501074      25.899861021258982     0.10657373903407003
   180   1      24.369896065530227      27.276598252131798      1.3269243554925325
   181   1      25.729903534442762    0.032565232816432296     0.13083871816573947
   182   1      27.146137518502716      1.4481320535682123      1.5213270072675855
   183   1      25.802195573754791      2.7412939204061684      28.481691683521365
   184   1      27.054943526552229      4.0688989098185866      1.3614294091864045
   185   1      25.792125508915227      5.5986025699307005      28.685913557124337
   186   1      27.435934477757847       7.078946575646051      1.5822883301224022
   187   1      25.745541203078627      8.6092488359612993      28.684997271063551
   188   1      27.257358903133735      9.9082640346951507       1.417284667089562
   189   1      25.911795875684987      11.422377465229646    0.092499896499782561
   190   1      27.268835088880518       12.68852786240352      1.4166209307881334
   191   1      25.712020794370318      14.187273828208635      28.660265133979664
   192   1      27.187544048383359      15.694830599184019      1.5074864685009859
   193   1       25.90898512023491      17.249391346499195      28.671447297285667
   194   1      27.246284256155423      18.669458867374029       1.576598759115553
   195   1      25.852928504735889       20.03058369626779    0.093779743750872099
   196   1      27.264428058599073      21.575639445967976       1.369018911158298
   197   1      25.877352388752282      22.938284574878303     0.11923648580564064
   198   1      27.263492006470692      24.351462725278463       1.494163960877573
   199   1      25.860023299347208      25.825771680979081      28.532300592798549
   200   1       27.14894524854278      27.115164689520416      1.3938542639108946
   201   1      28.583227838154787      28.510037169653561      2.8017038812737027
   202   1      1.2483722081119268      1.2137783984793147      4.4635151069522614
   203   1      28.630713088312294      2.9126818837113468      3.1163187934541936
   204   1      1.4939419930756224      4.3049521628062202      4.2027253165640195
   205   1      28.534203553317386      5.4126561507297675      2.9619929217064862
   206   1      1.2286995122362341      7.0887553836344583      4.2860994224241749
   207   1      28.630453270994312      8.7334676806379559      2.8090420635436208
   208   1      1.4322124529190334      10.100367532214257      4.1661265357754864
   209   1    0.085324339301349514      11.412641368300802      2.9265863145475213
   210   1      1.3318501726007641      12.910998852165871      4.3424117991935995
   211   1      28.679294485649184      13.986379543828445      2.9396201669926869
   212   1      1.3688674362092921      15.490805483704676       4.150332090698245
   213   1       28.52878400476715      17.243765254548624      3.0023252987705766
   214   1      1.4615875071421687      18.672067349578732      4.2509827522947221
   215   1     0.11637678262186606      20.358547685386707      2.9642075053145343
   216   1      1.3946022681756634      21.650719024822557      4.3025995862448365
   217   1      28.584565092813946      23.077706703859587      2.8289729998462354
   218   1      1.6611345788304113      24.383144063113228      4.1216743160376961
   219   1    0.094462278846187311      25.882000523637306      2.7986567058483609
   220   1      1.4653206026641221      27.217227870111795      4.3171299629428832
   221   1      2.7995237857542072      28.531830643888938      2.9114520111640911
   222   1      4.3099556850964174       1.330340555918939       4.415691990136664
   223   1      2.7356729623699385       2.689527193501136      2.9264396583284764
   224   1       4.142212561348205      4.1762799304480671       4.281961026858446
   225   1      2.7549908341225882      5.7551710641362055      2.8210569903610008
   226   1      3.8643236900127147      7.0273710273643815       4.460006645821033
   227   1      2.6955703195797827      8.4082212604576192      2.8932745315940691
   228   1      4.1210437141492537      9.8608816362657521      4.3185548265758316
   229   1      2.9044707667877079      11.526827512398679      3.0215982420391345
   230   1      4.0288465193323129      12.919994682523933      4.4775054563432484
   231   1      3.0180452623407024      14.385025443148798      2.7722381940387888
   232   1      4.2112434314850447      15.725184342876174      4.6258833337439249
   233   1      2.9706734515347413      17.289268547414586      3.0134048273956631
   234   1       4.262602721178169      18.689959022771056      4.3014981502229839
   235   1      3.1159967380187994      20.077651985113398      2.8748535892033353
   236   1      4.4614478154266566      21.683177872376589      4.1567546324351961
   237   1      2.9457059927055704      23.012578252673972      2.8626175023388423
   238   1      4.2423786526066669      24.502197913378794       4.312987353347487
   239   1      2.9886751917272014      25.894025971307929      2.7469600444657534
   240   1      4.1240363383524397      27.386082899202211      4.3935198927963937
   241   1      5.8813675103968759      28.677835857244233      2.8961985752067894
   242   1      7.1795310307003612      1.3466976946422851      4.0451035353339275
   243   1       5.480476901975238      2.7251830198483842      2.9239332848018442
   244   1      7.1695156635147068      4.3822850849039527      4.1695246568907329
   245   1      5.4747159146710578      5.5288372708052886       2.903358089858926
   246   1      7.1627091363518707      7.1438927302391075      4.1722132176502642
   247   1      5.5840940083691866      8.5177145546819837      2.9781926285188351
   248   1      6.8981668319614382      9.8795509451642758      4.3505994058191915
   249   1      5.8769294548854365      11.281534770806077      2.8715125832998822
   250   1      6.9438992306054157      12.826151506172696      4.3386920189114928
   251   1      5.4847021638056832      14.488458031353534      3.0397978837620987
   252   1      7.2548596104480545      15.906055211160878      4.3175573401466254
   253   1      5.8187841511995222      17.288260588774172       3.014390601085863
   254   1      7.1485137661535223      18.745512479184974      4.4142626166805421
   255   1      5.7785206357519066      20.016810323111137      3.0399352819015353
   256   1      7.3445561962858168      21.541673347623359      4.1657878034900326
   257   1      5.9865928276843237       23.21956731613918      2.8854051169992649
   258   1      7.4246140907410112      24.457165451921803      4.3209010646741657
   259   1      5.7086649377900214      25.760977797673302      2.8961457155700363
   260   1      7.1643829063379183      27.364309574131006      4.3733168084047014
   261   1      8.5491411301595939   0.0013803228002872766      2.8169197428646942
   262   1      9.9264315375772281      1.5293262399245227      3.9535825616986542
   263   1      8.7156624034183796      3.1867740212335671      2.7716864341776595
   264   1      10.161323581105041      4.3970763185107149      4.1111055045021088
   265   1       8.398680100503972      5.5706334071118313      2.5617792672615098
   266   1      10.032852814831253      7.1387344296733168      4.1396584139955275
   267   1      8.6439120523121318      8.4382102240315451      2.8240445289590288
   268   1      9.9514902951493376      10.050879917887794      4.1403970577055231
   269   1      8.5216108139396205      11.543294814766693       2.886578347393526
   270   1      9.9609379000927536      12.626162448851341      4.1983729200767916
   271   1       8.383756224880905      14.250509612744644      3.0504030486283038
   272   1      10.020983325810743      15.922263476192715       4.253664463259577
   273   1       8.496982929935605      17.345768549565658      3.0899728694318656
   274   1       9.845427493395654      18.814289249677678      4.3912417297875308
   275   1      8.5292266659557789      20.083109289254718      2.7825899011180453
   276   1      10.043049235262673       21.59826957499191      4.4475470962678045
   277   1      8.5870385404082334       23.16469140749134      2.8830626780248574
   278   1      10.162778309398739      24.376020781651693      4.4037347071751913
   279   1      8.7930477132457998      25.695851113639829      2.8735981265632238
   280   1      10.131981607239899      27.291272743683603      4.1086734733530568
   281   1      11.408430147366165      28.640842840438555      2.8109756112370969
   282   1      12.959511748413979      1.4793684246264205      4.1864515334140471
   283   1      11.474132627031443      2.8023481093153575      2.6747140469126185
   284   1      12.830575216514779      4.2207000089827025       4.257868151949733
   285   1      13.131124124538809      7.2540188687979201      4.3544014138379197
   286   1      14.230185255834298      8.6755054587827942       2.791649634923123
   287   1      11.468431500902277      8.6421521315014562      2.8719518970715177
   288   1      12.954053670424939      10.061992033579317      4.0611934211654335
   289   1      11.410627224064728      11.472507367330579      2.8273679778166181
   290   1      12.740017845718105      12.792697111360376      4.3812406360513974
   291   1      11.315585623198007       14.22717442725636      2.8163053307504353
   292   1      12.887665804485227      15.572630518311302      4.2860474727139763
   293   1       11.46689244576128      17.233956239525021      2.9141936068582237
   294   1      12.814322630198422      18.726080064042996      4.1661072289193033
   295   1      11.535919795150791      20.211535379993904      2.8561676307808046
   296   1      12.665708388088005      21.732408147676949      4.4132022068552565
   297   1      11.316600101929193      22.787100965009504      2.5512319679919404
   298   1      12.925400490619749       24.23405403278819        4.24853368481525
   299   1      11.540033707062879      25.635546170505268      2.7677986486718158
   300   1      13.069849928206857      27.166377628749345      4.0737016307277516
   301   1      14.557383904619835      0.0311668091671666      2.8375094479741385
   302   1      15.863383388197969      1.4834536870469164      4.4314916605196135
   303   1      14.269342100681442      2.6507715343306932      2.9076326601563056
   304   1      15.855000666320352      4.3346305805736582      4.4542665040043445
   305   1      14.524073643709551      5.7018839381458255      2.8306393286789904
   306   1      15.784365489173107      7.1809247903813898      4.1995119176616633
   307   1      13.038825753930753      10.120094245995661      1.3550572259742013
   308   1      17.020421375961998      11.662540208007336      2.9894432837859064
   309   1      15.934126922178228      10.147151870827511      4.2407406657519742
   310   1      15.671512152741535      12.851080501365846      4.3808179771775952
   311   1      14.350522282796366      14.383032412502242      2.8563949866147005
   312   1      15.736352627769516      15.520744121979051      4.2919761663944112
   313   1      14.249077387760272      17.160793012795203      2.8700223032017051
   314   1      15.580615284122098      18.706586389333623      4.2657099659949003
   315   1       14.36009306729718      20.224051421235536      2.8576589019549359
   316   1      15.724222131385531      21.436127480972257       4.364013242470965
   317   1       14.26888675522215      22.908191143090985      2.9178797200960793
   318   1      15.518085312223477      24.409592748725224      4.3626378361838469
   319   1      14.403497838470267      25.686179246680648       2.880763388675438
   320   1      15.784273381259268      27.195534899821851      4.3323413042925321
   321   1      17.132661675026135    0.036354534527447614      2.9020660354059795
   322   1      18.646587225979804      1.3859484189439173      4.5717739387302405
   323   1      17.329052249087738      2.7068176387159597       3.008786327763072
   324   1      18.562352536244589      4.3532104138745318      4.4342900847777198
   325   1      17.145595914652041      5.8242802301414622      2.8593683661965876
   326   1      18.494602234260878      7.2785694094658799      4.3771446064092299
   327   1      17.491200746816915      8.7453427017109284      2.8880298622739606
   328   1      18.795366975999887      10.080460697232219      4.2516916414703712
   329   1      18.842617281084202      12.816963234636292      4.2217680828113267
   330   1      17.099658211398065      14.323710851171809      2.7389299652993362
   331   1       18.54046013002143      15.673061764463563      4.1224811611536722
   332   1      17.113720717803496      17.110479841463881      2.6983533564545041
   333   1      18.579331426719609      18.699669689181427      4.2655415849017082
   334   1      17.029580401907339      20.236147234558356      2.8927497119057173
   335   1      18.449732946895718      21.420499047918948      4.5109261827115601
   336   1      16.968058413459595      22.916485174716794      2.9847825678623146
   337   1      18.280343463590359      24.425661460862948      4.3462245773705224
   338   1      17.115236367519778      25.824591399311497      2.8411177456360512
   339   1      18.806525809296179      27.346532106359419       4.432720209304799
   340   1      20.164848211459617    0.098733057008564773      2.8760699157842202
   341   1      21.583899571493028      1.4713107571197848      4.4838254314305148
   342   1      20.107747183194736      2.8153508767231541      3.0300296543939877
   343   1       21.59051752511731      4.3580640807190898      4.3816206436099598
   344   1      20.036244664800172      5.6938311941771715      3.0855271196805707
   345   1      21.589209124849464      7.2335269505922914      4.3688405705443065
   346   1      20.007191519231558      8.4736121677279979      2.9446721395714599
   347   1      21.626468827036259      10.008223260355452      4.3231289827693926
   348   1      20.270851042512199      11.447450917933836      2.9367131589566666
   349   1      21.529883746387604      12.897805375757807      4.2832372951144597
   350   1      20.014674334059123      14.412890420225734       2.770924645875446
   351   1      21.298662410644774      15.802416614681515      4.3497285630131302
   352   1      19.791793356241104       17.34966063786926      2.9174346817791061
   353   1      21.424666831105974      18.671335666400044      4.4301773045394324
   354   1      19.956705339724916      20.161871819329704      2.8186123191621384
   355   1      21.410330054778576      21.520923899115807      4.3420358704048203
   356   1      20.078449566753044      22.915531101583699      2.8729614304332336
   357   1      21.548511122432362      24.298641566803248      4.2466224012604483
   358   1      20.014844842796279      25.643871483651733      2.8844423016632059
   359   1      21.491907225931314      27.420980096895871      4.2899077871842364