dump/Fe_1050_5/steps_91 (written by ASE) 

1995 	 atoms 
1  atom types
0.0      28.699999999999999  xlo xhi
0.0      28.699999999999999  ylo yhi
0.0      28.699999999999999  zlo zhi


Atoms 

     1   1     0.18388063202429694      28.590355955296562    0.057575263912679045
     2   1      1.5860755632496066      1.3483378099925394      1.5884524477361079
     3   1      0.1220060544505146      2.8507097852802081     0.15407778926447699
     4   1      1.5241224749088016      4.3478830496646328      1.2708251841644824
     5   1      28.676569689609185      5.7653440323639673     0.13388082085120895
     6   1      1.3669642235598982       7.186985643974781      1.2052686980378438
     7   1    0.034639581468845868      8.7388289510301504      28.623757999811833
     8   1       1.464978052891617      10.255958109229054       1.505463585915368
     9   1      28.615278383750521      11.438197370549602    0.041078635675364621
    10   1      1.3176630947320636      12.885638574783096      1.3068287951434627
    11   1      28.673944901470922      14.421251811373677    0.037959374860838613
    12   1      1.4419758008818462      15.980706129537912      1.2964669110428519
    13   1      28.544524550548431      17.405062773655409     0.15991053096511226
    14   1       1.416284045212002      18.826926471703999      1.4893608135971346
    15   1     0.02872276145583617      20.255852057979084      28.631269021140614
    16   1      1.5142501413723168      21.445314698548508      1.4866442843340681
    17   1      28.650262752289184       23.01017589905031     0.11081422595235607
    18   1      1.2738635153065512      24.389401621352754      1.5542899760578499
    19   1    0.023168583048655978      25.943520770872269      28.669357634263463
    20   1      1.3806223084891958      27.142634700003928      1.6738247318348607
    21   1      2.7838822665137415      28.615842741930084    0.072664294210096639
    22   1      4.4097638257398808      1.3304743146327487        1.34457457899315
    23   1      2.9886322132367207      2.6438152126748142   0.0052683431405171118
    24   1      4.2408109951380215      4.5192713878604041      1.2441793697505308
    25   1      2.9163640942831677      5.7717018679695009      28.501358127794962
    26   1      4.4419753767731782      7.0752374163724818      1.2587684419872052
    27   1      2.9158176861845773      8.6732843005134566      28.690086451413752
    28   1      4.1632795646364897      10.092959136264147      1.3138001711115852
    29   1      2.7727860876664416      11.386286881885832      28.643225155587277
    30   1      4.1381274517350004      13.090795773386967      1.4865304899722442
    31   1      2.8106177735610931      14.438861451643684     0.24786380407196021
    32   1      4.0957835141449328      15.981159068542651       1.725338187983867
    33   1      3.1272103703185019      17.308657079451415     0.14815581813558076
    34   1      4.3027976216681028      18.819464757062306      1.6321307377448544
    35   1      2.8905054808880295      19.997313347205793    0.068530150969672923
    36   1      4.2700085670643411      21.517062052308209      1.5020735402082086
    37   1      2.6784238550388291      22.803925345604604    0.044219234084505482
    38   1      4.0529614777895491      24.289521860812474      1.2854127186377471
    39   1      2.6445813793676214      25.787055893279614      28.672202996924113
    40   1      4.2685200714079787      27.318604183953774      1.5441387043470953
    41   1      5.7606692602974379      28.661576242949412     0.17479589662675593
    42   1      7.1721198214784723      1.3219636978859273      1.3441493044957156
    43   1      5.7286780735048088      2.7420627301106606      28.491279271451376
    44   1      7.0777809297273722      4.1728053367401881      1.5409712166454717
    45   1      5.7280516777043662       5.706860635978841    0.052895893584434299
    46   1      7.0796587403948026      7.0745971677414534      1.4716698015338474
    47   1      5.6944502629738025      8.5756568508886417    0.032426597523021808
    48   1      7.4086287836245779      10.171184586137837      1.3625857333679836
    49   1      5.5294294137887654      11.482451604011873     0.17014732828691867
    50   1      7.0309617826761457      13.109623436945926      1.3013207860972433
    51   1      5.6008703575294341      14.592208459283619     0.05611165909913321
    52   1      7.1508685408291095      15.908745056000198       1.425576529026795
    53   1      5.7884602450248046      17.134025380124609     0.03625992829131533
    54   1      7.0195731327199073      18.727979247445557      1.4880773122377826
    55   1      5.5589304152497832      20.040309404911451       28.67513520203747
    56   1      7.0464404311651441       21.51114961767799      1.3087780539402396
    57   1      5.6718842620643164      22.937330076825894     0.16023791006369931
    58   1      7.1622357699596622      24.448360439773566      1.5676922224141983
    59   1      5.7654393829324162      25.733204691861715     0.13576185057659135
    60   1       7.120469296342554      27.101670474640812      1.6157880668660936
    61   1      8.6590042374063732    0.051851920919740967       28.63937211576247
    62   1      10.097636302233182      1.3792391694414625      1.4896654950010886
    63   1      8.6047767385933014      2.9822624700925449      28.667268832754193
    64   1      10.142654195589165       4.214462946215737      1.4047780918470378
    65   1       8.712822692395541      5.7732049347254062    0.087882239201326248
    66   1      11.635570548368424      5.6263775720691873      2.8859333836203263
    67   1       8.593262398887294      8.6204563412281807      28.697663511359195
    68   1      9.9177616493458611      10.062441241564795      1.4450459040496639
    69   1       8.488915817439123      11.366323557956168      28.522025159019353
    70   1      9.8959036341034441      12.660373798879604      1.3719466036783388
    71   1      8.5649186175630767      14.369137796606612      28.690087677098962
    72   1      10.008838472103434      15.937284743521255      1.5095617258596559
    73   1      8.6205577151633523        17.3576581105294   0.0076231995984926545
    74   1      10.058433513071027      18.625150127791454      1.4910833281284903
    75   1       8.530932986810619      19.968096816692626      28.649881458515356
    76   1      10.074136581212036      21.400128528816023      1.4658534414281104
    77   1      8.6149483536055946      22.865016977871701    0.049896398779640021
    78   1      10.205498558769731      24.295276534933858      1.5353727732862112
    79   1      8.4573376904701938      25.623498217293545      28.676542845336982
    80   1      9.9661902126060333      27.343300548164589      1.3487100345399201
    81   1      11.374993660084437    0.076612113040200228      28.660241786587335
    82   1      12.842929416520073      1.3775688711855318      1.6530553987967451
    83   1      11.509044515148965      2.7472471558672296      28.608667294776513
    84   1      12.931583011649538      4.2433909482619585      1.3837457945281126
    85   1      11.593166288975803      5.5016909835567045    0.011314016167136754
    86   1      11.424831070840451       8.743202129517087    0.025500100558451765
    87   1      10.096995539940888      7.0391078595064416       1.438388614427583
    88   1      14.031397386506425      11.262943013440402      2.8759686997039022
    89   1      11.503219595273935      11.684769478428672      28.534506043627093
    90   1      13.005221883992711      12.886737202404563      1.4464416509171309
    91   1      11.452209938948034      14.337673142123087     0.22945727099094024
    92   1      12.889315618766766      15.897838395109225      1.5376784519235103
    93   1      11.523974203139257      17.228232066325823      28.657229616138725
    94   1      13.054328152204954      18.421936614151566      1.4056904422678029
    95   1      11.693282147145053      19.898845839744482      28.616522253214143
    96   1      12.851371210856378      21.402348150173559      1.3588580741447569
    97   1      11.611517306246229      22.877985492351606       28.56764822840293
    98   1      12.852601777449479       24.32354349936374      1.2831609162740147
    99   1      11.525571420420839      25.936405929823131      0.2469661142920927
   100   1      12.792905446943518      27.391042138558941       1.485512968175954
   101   1      14.214878192115489      28.656043324284514      0.2653233747710031
   102   1      15.825955847167991      1.2919482330592578      1.5849600318071007
   103   1      14.434930148095694      2.8476955015537913      28.537580480881406
   104   1      15.826405176402822      4.1903773260167076      1.5539215515610618
   105   1      14.289559759445261      5.5366340730243291   0.0088690901132736106
   106   1      15.596897693746323      7.0771913052792783      1.2497140313917847
   107   1      14.001016352806042      8.5136746763124904      28.556951166969913
   108   1      15.903388397726875      9.9915142463408735      1.3802540726743147
   109   1      14.420655960442271      11.676482393245303    0.094197176862155715
   110   1      15.802584574888227      12.906636082800432       1.526093436992926
   111   1      14.377869768529768      14.294514651310243      28.678323057870621
   112   1      15.962864082698582      15.681449637052458      1.3762138727807727
   113   1      14.475655166451313      17.138931542430385      28.666314726483961
   114   1      15.847142220885928      18.697697908728497      1.4427680272971202
   115   1      14.304733611862037      20.007584930908983      28.686788006581054
   116   1      15.732040468889707      21.491103722248297      1.3903476495313936
   117   1      14.376234444080922      22.899039356030709      28.696158184792566
   118   1      15.679791637709519      24.444646615265778       1.305166525950642
   119   1      14.183398323696439      25.956244251536287      28.656207980931349
   120   1      15.830127408016191      27.223336421311924      1.4694311824520467
   121   1      17.268784041786557      28.644907978653738     0.22197688408721208
   122   1      18.608501309791492      1.4540799743257706      1.3779035260226116
   123   1      17.261191026036691       2.878185503694827        28.6518903988155
   124   1       18.52040843266882      4.1729080548528579      1.4764718820508724
   125   1      17.089566976085141      5.8690043932594786    0.047849490273779376
   126   1      18.582749517227892      7.1318196303115595      1.4818442288259921
   127   1      17.315711202360923      8.4445834247158675      28.665568991124992
   128   1      18.744546784567216      9.8094613750397546      1.1975421687353547
   129   1      17.395713373252487      11.461708264474179      28.598709974412266
   130   1      18.960219637938646      12.777352220975033      1.5036183582880656
   131   1      17.394905006494664      14.335415729373278      28.631816903144497
   132   1      18.630801434226473      15.864238824366772      1.4569532186599856
   133   1      17.321704771303946      17.342869739459605      28.688461681722035
   134   1      18.650125588608923      18.673280509939694      1.4950964216318072
   135   1      17.083266146034848      20.375296766621414     0.20440993070037625
   136   1      18.809116650956394      21.435974387227901      1.4317779414164542
   137   1      17.228459015153252      22.968685411209375      28.599345824348205
   138   1      18.788461503272682      24.409592828455285       1.321832265788907
   139   1       17.20895070223153      25.893291987781332    0.010852344698957949
   140   1       18.69221997305209      27.126215545820735      1.4092911122838687
   141   1      20.047006712181766      28.468229565208024    0.064548778575920188
   142   1      21.493393706164884      1.4088295921155589      1.4668298121632908
   143   1       20.07630048741251      2.9444218878858273    0.090641507637371999
   144   1      21.763663794349924      4.3167490633412537      1.5199226969373061
   145   1      20.320226116646417      5.6603043249113876     0.11885638363858096
   146   1      21.491243073914994      7.1507756006305927      1.5165448205181304
   147   1      20.191123238265412      8.3487895828944616    0.064000659474891183
   148   1      21.517997306975914       9.812185339012041      1.2634444104780402
   149   1      20.102125298415423      11.421979806832452      28.607950908299465
   150   1      21.571211722908476      12.838027284130018      1.4730341305342574
   151   1        20.4298359469933      14.397105281308955      28.632484480731936
   152   1      21.774285503915742      15.813114340897851      1.5583385495772641
   153   1      20.092127011706012      17.091505859455491     0.11692541513618827
   154   1      21.799494755765991      18.780297697110257       1.505343755347631
   155   1      20.103674395360308       20.19165344246516      28.677539022110864
   156   1      21.815354000092089      21.531597091026583      1.4686194801734573
   157   1      20.097372256742847      23.104000831569603     0.16111648965993491
   158   1      21.642238150863935      24.281914865817626      1.3296076192395396
   159   1      19.980876853880382      25.863729207597075      28.543205352406417
   160   1      21.562906457064472      27.178197703509493      1.4406811169676654
   161   1      23.134122817329668      28.580763311143023    0.018644116555537958
   162   1      24.635279329562536      1.2828455364545785      1.2755774761439498
   163   1      22.983469349983672      2.7444367351196779     0.21914304820155622
   164   1      24.545811497869515      4.2916793479959781      1.3175817198423476
   165   1      23.166779777890135      5.7891112239946461    0.031746807894967193
   166   1      24.604033115340457      7.2679153086545218      1.2770265186447083
   167   1      23.212566767660441      8.6717000253365253    0.033414846222729055
   168   1      24.538738319359908      9.8862148713497362      1.5415747068709731
   169   1       22.75744017112336      11.575180379775439    0.065207344647910725
   170   1      24.288911541566645      12.916053730680259       1.382912519513821
   171   1      23.054500249146962      14.424082484455543    0.033707547098913444
   172   1      24.600596711384863      15.846920027088535       1.662514425204642
   173   1      23.262713241999126      17.129217818928105     0.25195827492841544
   174   1      24.399670224891313      18.751878600202943      1.4458049421078596
   175   1      23.112737326572756      20.351910621582089     0.07519485533910035
   176   1      24.411773907454943      21.518269328777833      1.4415689357779697
   177   1       23.17178784177349      23.027278254869167      28.645676396788133
   178   1       24.59753322263245      24.480066815874796      1.3199034914037602
   179   1      22.973430414004319      25.698659833326758      28.646441384626868
   180   1      24.307892457011899      27.231974157677254      1.3520754863169038
   181   1      25.888097577669214      28.659738723675247      28.497721002105266
   182   1      27.247479555457989      1.2288546356357868        1.39039759079467
   183   1      25.962266191512693      2.8486568129519929     0.12432982578955036
   184   1      27.427114860227725      4.4058720085139784      1.5117142122319802
   185   1      25.839366793191601      5.5913408056143554      28.569911081735533
   186   1      27.244861155384037      7.1306844904017739      1.2940522336566449
   187   1      25.922390767652086      8.6445055111943141      28.519992231641105
   188   1      27.305908696300232       10.10085307040028      1.4957648415403346
   189   1       25.82104756114504      11.494116730484325      28.686810835163399
   190   1      27.147645828950274      12.918819589935051      1.2183304292102555
   191   1      25.685976242832883      14.584494325633219      28.550059275519232
   192   1      27.127923077710761      15.741700028759315      1.3516069073055408
   193   1      25.821502675512377      17.451401604667915      28.577040863224781
   194   1      27.248913771635497      19.127920314558434       1.455883206959049
   195   1      25.787676893462063      20.164701097474506      28.619642606654764
   196   1      27.104324299122748      21.712619352902095       1.523956598500388
   197   1      25.836244657686159      22.867588907668541    0.037662308100425416
   198   1      27.277377505220571      24.475815304788384      1.5251388963445036
   199   1      26.111388638073105      25.965453035779436       28.50690399905281
   200   1      27.310873936719148      27.260645940925237      1.4479943824097163
   201   1    0.023839145120668589      28.698223702889994      2.8272277990302985
   202   1      1.4381201563736106      1.4606246504597717      4.3115931758698558
   203   1     0.20694926504207864      2.8011029324983396       2.645033406181414
   204   1      1.3560822851669503      4.5142524867517499      3.9626012199147138
   205   1      28.658035613225337      5.8216625084355522      2.7875485589568147
   206   1      1.2829492728289671      7.2391473128128965      4.1034386442406827
   207   1      28.529448792356479      8.5347095610969852      2.8191849642974836
   208   1      1.5222485889248447      9.9834722369135989      4.1891077615836387
   209   1     0.17529663580801377      11.620389336880926      2.8216277878603933
   210   1      1.2649464074687573      13.068328406609682      4.3890655900983431
   211   1    0.019488752440612302      14.224470144339124      2.6634261173078468
   212   1      1.1648718732896668       15.77991705750763      4.1471137023425619
   213   1      28.542345753078422      17.449750906209957      2.7757367862103477
   214   1       1.221641839233621      18.649443380183122      4.1717521678620226
   215   1      28.623807715107407      20.277983708027278       2.973604908968138
   216   1      1.4425580108272948      21.585725133491859       4.446180636729296
   217   1      28.649926331200476      22.747493292650681      2.9403869213832543
   218   1      1.3711810706334644       24.01632705772376      4.2331136842017072
   219   1    0.062720173407582791      25.693522391234467      3.3207692430621387
   220   1      1.4231888557383865      27.482934168866922      4.4557419795846407
   221   1      2.8476169062016212      28.680494895318379      3.0326939400197017
   222   1      4.2392778258982347      1.4720691538493968      4.2439650186687405
   223   1       2.852900355291649      2.8979081197136205      2.6210108107638455
   224   1      4.1410828213078572      4.2007814248030151      4.0669194293310724
   225   1      3.0099811773391685      5.8503877550025489      2.7281955198671306
   226   1      4.6359808729504026      7.3172836957039751      4.3402797512794287
   227   1      3.0252911101760347      8.3348392318554332      2.6137042115212803
   228   1      4.2476051085075284      9.9187130142501818      4.2006883831049153
   229   1      2.7507233601742782      11.665161711273493      2.8119598906017247
   230   1       4.302458445052892      12.978512607740356      4.4010956605898732
   231   1      2.6555079349854296      14.311618199895763      2.9068606271848503
   232   1      4.0464533463729531      15.842095456649497      4.3368251180310278
   233   1      2.8087404517803742      17.353405698133521       3.115278449310797
   234   1      4.2630461204801584      18.872078010286653      4.5580878752773311
   235   1      2.8376575278789113      20.160491506174292       3.107070840354063
   236   1      4.2001633280601451      21.606268575261566      4.6654631192837188
   237   1      3.0276548356363389       22.82498059520562      2.9871679321922775
   238   1      4.4087183016960436      24.377030288571589      4.5711303313733671
   239   1      2.7629865139098024      25.731537377757572      3.0622640432401638
   240   1      4.3592252158553206      27.260707239953099      4.0878872554116628
   241   1      5.5964676287373836     0.14274743064313505      2.7956086715496906
   242   1      6.9562651518721506      1.5334127460181104      4.1933942032253233
   243   1      5.6862279999311527      2.9187774714811163      2.8082269757449461
   244   1      7.1046066403318804      4.2389672449088431      4.0469351194106808
   245   1      5.6260377342679098      5.7204233849799353      2.8699570462553532
   246   1      7.2530572491683794      7.3200012153414962      4.0534906331974332
   247   1      5.8078666224225799      8.8529631608052792      2.8134020280292464
   248   1      7.1464557035086598      10.347905009137877      4.0363386486992479
   249   1      5.6657192289054938       11.56971940002064      2.6606509435822323
   250   1      7.0947629288793719      13.113608466205001      4.1367085864300055
   251   1      5.5935527719412548       14.45249317813678      2.7004284324301819
   252   1      7.0348846123940429      15.855414926274964      4.2437973712743462
   253   1      5.6989028257870151       17.41358057997962      2.9884294422591244
   254   1      7.1331765380129015      18.409246151910825       4.341422200560781
   255   1      5.7928437474314283      20.224686843968222      3.1177709023818068
   256   1      7.2479042736165749      21.571432332597457      4.5547992133100905
   257   1      5.6889027277078146      22.954639929296874      3.0075063641503066
   258   1      7.0985571905903031      24.399092458661219      4.3556443401041012
   259   1      5.6092643912605817      25.637589036246453      2.7547258998014295
   260   1       7.224952175892569      27.124455166033549      4.2667619385792594
   261   1      8.7233440480171947    0.057741096034942672      2.7598392588579475
   262   1      10.159419006368585      1.6296999618061825      4.3996427782126135
   263   1      8.8542562053879639      2.9121164005076081      2.7681071342831838
   264   1      10.228348811571593      4.3502951540460524      4.3481347586690511
   265   1        8.57145727637959      5.5464517374565103      2.9193044434084996
   266   1      9.9395580951026723      7.1214713572508099       4.180973905110859
   267   1      8.7348321082862057      8.5316568215490101       2.724810177317841
   268   1      9.8396423191155549      10.089023373205515      4.0716785103973212
   269   1      8.5612001001850597      11.603138936650165      2.8147893031417635
   270   1      10.001047651859084      13.126483496666948      4.0184242510180974
   271   1      8.5138220721719478      14.464398655434675      2.7011182903822588
   272   1      9.8650364845296075      15.827167583657253      4.3101599874912608
   273   1      8.6814097592090533      17.266221973144731      2.9428695218640866
   274   1       10.01158764418463      18.675446928719349      4.1263385777311434
   275   1      8.4954163821330901      20.180245392982346      2.8803033107647678
   276   1      9.8434281231636209      21.448606210213519      4.4022322674893974
   277   1      8.5655657878097848      22.923043242358872       2.880739112614954
   278   1      10.202378345377161      24.304844789952543      4.3938414338592242
   279   1      8.7344664958115228      25.758732507899122      3.0295228650974622
   280   1      9.9427021769456143      27.293621398863475      4.3330146770325797
   281   1       11.46260655616134    0.023635859757451007      2.8971266712840134
   282   1      13.047256008434278       1.213020804287315      4.5744511987330663
   283   1      11.530837561450209       3.026750499638454      2.9330942798967632
   284   1      12.997239317261933      4.3102659746644578      4.4165230949729759
   285   1      12.763384714490146      7.2449371092939696      4.2734463171681414
   286   1      14.144974240270001      8.6542602227867746      2.7957793108286979
   287   1      12.805557269610901      6.9346421287820332       1.410867164837895
   288   1      11.504249394507385      8.7663502780229354      2.7950213228837808
   289   1      11.409665474598084      11.563674359901293      2.7752463414333755
   290   1      12.726296411429315      13.101787857116937      4.0575916105354608
   291   1      11.395417108321976      14.511087115853375      2.6334418904498187
   292   1       12.86049862574027      15.737919949546972      4.2247553875473161
   293   1        11.5126941186598      17.249169230288235      2.9272275661833387
   294   1      13.131522373723673      18.679637722077263      4.4677454699351413
   295   1      11.740556041435251      20.018652275044605      2.8592766467205353
   296   1      13.107866184221681       21.46443245306337      4.3293831586211358
   297   1      11.537054276667483      22.670937197930058       2.864804654567513
   298   1      12.951665895437932       24.30325660179907       4.201472291531803
   299   1      11.543839119503158      25.814608509075658      2.8087638002200706
   300   1      13.059753812398951       27.19741208584021      4.3237858936167237
   301   1      14.374171533050434      28.384539223607963      2.9127977359386428
   302   1      15.983680780836776      1.1635702186414163      4.3264938303975464
   303   1      14.334840411851156      2.6755310267900074      3.1480534284427186
   304   1      15.711477712968192      4.2772894490459521      4.1986647522552945
   305   1      14.349104664404425      5.7799727657735858      2.8746418171773613
   306   1      15.685621621074352      7.0399970411901531      4.1230500663035237
   307   1      12.837237854346185      10.263904408930578      1.2776775780298308
   308   1      17.374150780587197      11.428828507393369      2.8895046086907779
   309   1      15.824600581786894      10.182617947826314      4.0828514763821522
   310   1      15.661226821590086       12.74948654049123      4.3652726425162811
   311   1       14.48540821955957      14.273968047901581      2.6899495427536162
   312   1      15.837620502969999      15.614261531782009      4.1784318006905137
   313   1      14.393330163701844      17.293320636868707      3.0000984144550049
   314   1      15.832561945275877      18.710139882960885      4.4420529143901524
   315   1      14.465567741835539      20.323077595057079      2.8792749183352311
   316   1      16.093505938601481      21.540187868130221       4.394369156301968
   317   1      14.643774265147261      23.000379538119653      2.8384066227582485
   318   1      15.919176763486655      24.242726796767659      4.4408404876137988
   319   1       14.43520537962387      25.712684073675753      2.9159363957968432
   320   1      16.035943281976714      27.234509171869565      4.6687414922466326
   321   1      17.319683171672406      28.640043483907363        2.97016963790665
   322   1      18.934071051495813      1.2035337419400898      4.3373223140755126
   323   1      17.305915846588501      2.6774225924101995      3.1021272615727233
   324   1      18.752315789922964      4.1554160710539882      4.3248976918995679
   325   1      17.155171771654548      5.7557205676647705      2.7790791328685946
   326   1      18.604456843996097      6.8855414633796306      4.2208947821940646
   327   1       17.37473773223083      8.6009427133223859      2.8518163835082295
   328   1      18.686974394249166      9.9758906255636894      4.2151212114596923
   329   1      18.906873553648857      12.854900198254581      4.2189289009416129
   330   1      17.392104477047244      14.097110407623074      2.8004004654768662
   331   1      18.584253247192787      15.771344270248843       4.194044434795817
   332   1      17.171540255084714       17.27873014547836      2.8362144372142675
   333   1      18.686548896869013      18.775818750724159      4.4243464958201209
   334   1       17.22035245461398      20.063081664738299      2.8905849383371724
   335   1      18.616424393980306      21.476253178033485      4.3791232242972651
   336   1      17.372652085281864      22.753873248400424      2.7738192258302772
   337   1      18.669644635034388      24.427680156891761      4.0966092668565217
   338   1      17.197646710829908      25.799767320087433      2.7940413328643339
   339   1      18.756779220243654      27.120391634807216      4.1957197788342535
   340   1      20.133043765297931      28.594128802252271      2.8048373454525164
   341   1      21.461140192661251      1.3416793174074764      4.3908892737679297
   342   1      20.123612315386247      2.7480580126859082      2.9253628910726541
   343   1      21.530994645184862      4.1094239444409073      4.1890880560020314
   344   1      20.167440611207294       5.528289555314128      2.7589605610989687
   345   1      21.445861045211618      6.8771234850994913      4.2238692245685225
   346   1        20.1820204084434      8.4311402254718182      2.9516442858014535
   347   1      21.799222994776994      9.8394459670488867      4.2318229483066627
   348   1       20.27585112220267      11.315223118284418      2.6740819771991577
   349   1      21.596752797305111      12.827317959989829      4.3275018844001689
   350   1      20.270266884276317      14.386017116891029      2.8754730283226078
   351   1      21.921454724709818      15.807881750466228      4.3707491064620774
   352   1       20.17120563752346      17.118603892063483      3.0457642472656823
   353   1      21.530006453450611      18.688848673552073      4.5625340162267323
   354   1      20.372222744241849      19.941861746650961      3.0213311882342841
   355   1      21.870084620859451      21.672120255747934      4.5283942913549637
   356   1      20.300563138903627      22.849416891609099      3.0245928434445264
   357   1      21.587666022023477      24.292755956714981      4.4010369220473864
   358   1      20.129556316781944       25.77117911845394      2.8083110408625087
   359   1       21.64555766180079       26.90515801342826      4.3175936315523433