dump/Fe_1050_5/steps_31 (written by ASE) 

1995 	 atoms 
1  atom types
0.0      28.699999999999999  xlo xhi
0.0      28.699999999999999  ylo yhi
0.0      28.699999999999999  zlo zhi


Atoms 

     1   1      28.678228225082748      28.642633008360498    0.081400297249672349
     2   1      1.4990853699101532      1.4581252858584326      1.2131907611230424
     3   1      28.540975035153938      3.0564712771072649    0.011758199043265444
     4   1      1.2574846560518946      4.2907848879662893      1.5244425986353689
     5   1      28.699657822757448      5.7813677900619398    0.045024465514700324
     6   1       1.478277067111845      7.1938963436782339      1.5246129551329666
     7   1   0.0011276936567151076      8.4592893307348902      28.630520117476753
     8   1      1.5310100182184223      9.8034703084779817      1.3219699724272242
     9   1     0.15243665156747518       11.30677528045311      28.677714376215562
    10   1      1.5485095050661368      12.665552022163855      1.2922399096603718
    11   1      0.1176570819519068      14.216290686375009      28.639531416927188
    12   1      1.2697888711864489      15.609983468350494      1.4249093685018017
    13   1       28.69654109889527      17.416386820712319      28.675099084539639
    14   1      1.4732397167152054      18.638792164157827       1.472005196813962
    15   1      28.666836124483954       20.25969532096973      0.1250312837993873
    16   1      1.4589650100854112      21.556503418640862      1.4302957494252391
    17   1    0.068994744110024361      23.013693693772453    0.034089841702871201
    18   1      1.6272807477732045      24.317965819331082      1.5309372924925482
    19   1    0.053196784931791384      25.790453975759899      28.682545403011211
    20   1      1.5623395421941952      27.073607739642807      1.3156606364113927
    21   1      2.8737183506130477    0.022717114580338548       28.63974207433569
    22   1      4.3360317693845172      1.3811910186533951      1.3884561911337412
    23   1       3.051840266296189      3.0124074931081437      28.593205248898784
    24   1       4.476296513486874       4.057717622546658       1.512338065632798
    25   1      2.8505723748987206      5.7833667163132958      28.504782838880462
    26   1      4.3917689189203282      7.0413731270166684      1.3978350580755872
    27   1      3.1387539244035363      8.5890040633386828    0.058700561046850896
    28   1      4.4420045114058047      9.9865047891322778      1.5962859713701627
    29   1      2.8956107296798352      11.326654513975168      0.1359820610082921
    30   1      4.3308962680292717       12.89481797772828      1.4704624259367034
    31   1       3.003812645186184      14.341874566418284      28.659484470119384
    32   1       4.061018391237436      15.903916952806668      1.4207566462766292
    33   1      2.8510871518337026      17.095619837158907      28.477954025007055
    34   1      4.2564886929920425      18.641943733117326      1.3966953709181669
    35   1      2.9351198664075198      20.114672231405414      28.639995546994545
    36   1      4.3692759279570561      21.740928943376723      1.5596482296473251
    37   1      2.8042041293140878      23.134949904887144      28.622697511233675
    38   1       4.257580591683201      24.486862873622641       1.482545985327681
    39   1      2.8290304696213346      25.645515889668587       28.59318234319008
    40   1      4.4653837452835168      27.385599909370431      1.3734964332126649
    41   1      5.7328954614547536      28.686561399538093      28.480649635181752
    42   1      7.2241952223080794      1.3347796944458539      1.5048396333087439
    43   1      5.8131941287638673      2.8099218826137102      28.648089660813795
    44   1      7.0261827814428912      4.1661868461027174      1.5464936727162677
    45   1      6.0015916327660346      5.5997069082077076      28.593038353512473
    46   1      7.1892185333070433       7.032744846933781      1.3556057831828174
    47   1      5.8524845618852872      8.6005679606828256       28.51426276114714
    48   1      7.0090186362477231      10.013784455352258      1.3960709173948211
    49   1      5.7041139137410699      11.350093813795453      28.531664239604822
    50   1      7.0785849589156689      12.846908827477508       1.540252154402991
    51   1      5.7931988876883267      14.516277526410267    0.014802380626292688
    52   1      7.2946521416337395      15.909052201783384      1.5611539348894101
    53   1      5.6822806559805441      17.132253185942272     0.30444336433973812
    54   1      7.0660814101109439      18.833814383567844      1.4648982780165054
    55   1      5.5576532665532214      20.280622975925926     0.06869767656979775
    56   1      7.1892506751562362      21.659347028770377      1.5494160852784931
    57   1      5.6171220181500567      23.062382831649341    0.061554786184217253
    58   1      7.1979720063080066      24.395609558613174      1.3499124997123082
    59   1      5.7140248295690226      25.790276380511081     0.21942607009531218
    60   1       7.174091039487803      27.112758984440447       1.363238612974907
    61   1      8.6569155794853199      28.680189629906923      28.479380871795215
    62   1      10.024693066057432      1.4874190213807432      1.4639420345357392
    63   1      8.4412859316927893      2.8075247708741227    0.027654090137741602
    64   1      10.065717855180168      4.2170539502497917      1.4812884971435218
    65   1       8.543803262206632      5.5393784788220524      28.591493622587226
    66   1      9.8056509784221024      6.8976414087409283       1.529274699935455
    67   1      8.3840709647094904      8.5679624313031759      28.515674373664272
    68   1      9.6850515264242212      9.9438893437017271      1.4235812458194901
    69   1      8.5495408940723685      11.489948580361435      28.659824610681909
    70   1      9.7744480347806935      12.948022189930086      1.4867554708279509
    71   1      8.3670618736933147      14.299028081057076     0.18296982822547544
    72   1      10.014960185308677      15.777603053971287      1.5387368124938927
    73   1      8.6788108494298335       17.18130233730151     0.27316918908596777
    74   1      10.102125987346815      18.710923071621174      1.3892689450362925
    75   1      8.4416742756550587      20.210572357358359   0.0062467296867794045
    76   1      9.9945209584276178      21.429530848024893      1.4676039439256654
    77   1      8.6606135720678576      22.771560376105306      28.653541926189277
    78   1      9.9436716463467398      24.308292920882735      1.3239596487233487
    79   1       8.741733730474035      25.874692094762995      28.617379825270433
    80   1      10.056489893288244      27.246078591954099      1.4352972199155134
    81   1      11.514038787434961      28.631179880305865      28.649707431221842
    82   1      12.694297205577325      1.5995446910086464      1.3564689810305479
    83   1      11.468554953720179      2.9331544328650789   0.0033552443429584831
    84   1      12.796531805683999      4.2825149959142657      1.2985568152113598
    85   1      11.256551114916883      5.7108516619312049    0.025271198539826407
    86   1      12.816208176494488       7.103585774224813      1.3816813223692079
    87   1       11.24202869425042       8.631255439588406      28.579658039749024
    88   1      14.339553230047521      11.571268361891642      2.7815664596634968
    89   1      11.193429801945939      11.818272615675676      28.644024166397408
    90   1      12.688971869932844      12.943892072601887      1.5837908299353207
    91   1      11.443578210571827      14.359665232653695     0.40356101821541862
    92   1      12.692191716569829      15.945482123969446      1.6605194576483204
    93   1      11.572468580174059      17.258670658386642      28.558399705927378
    94   1      12.907899489657485      18.706104458062548      1.6007882495719403
    95   1      11.552471883264323      20.133469320475509     0.11243405971717955
    96   1      13.033468259473691       21.63255700305066      1.4172703469394359
    97   1      11.453343252593273      23.174458270635149     0.13530053587082869
    98   1      12.912851375343461      24.236992444005374      1.6658741132140105
    99   1      11.549299319354464      25.718669026768218      28.683853345685961
   100   1      12.980552266802727      27.272770437118218      1.4409908094541275
   101   1      14.348951529698706    0.086524453049787634    0.052102566860776224
   102   1      15.666278748417701      1.3844655305315314      1.4257786203801857
   103   1       14.42282165670804      2.9858084603055373      0.1267107769049288
   104   1      15.940262480027672      4.2337878137967451      1.7191710114380037
   105   1      14.278915670015321      5.7543904588858208     0.27378460683158878
   106   1      15.674215279712916      7.1631216563269939       1.728125743497902
   107   1      14.177806199572469      8.6667077442567351      28.668639169520208
   108   1       15.59257303209302      9.9777094414436913      1.2182741322073414
   109   1      14.203079989669439      11.493655487919332      28.622403322030582
   110   1      15.776466475102593      12.914928164282507      1.3275457672004343
   111   1      14.168383531249109      14.470899252244518    0.088868904598552886
   112   1      15.716643341634079      15.712649142655547      1.5025459485245387
   113   1      14.102561918517262      17.214313167057746     0.07410003997115365
   114   1      15.710369404373999      18.598346082524529      1.3214804109750948
   115   1      14.133471284170044      20.172778283610146    0.046438024387430221
   116   1      15.611304144482805        21.6258018997469      1.2580585290193778
   117   1       14.35375146213026      22.986922987803553       28.59771646340819
   118   1      15.537074346765882      24.421236314002527       1.528438398434411
   119   1      14.295640975760426      25.562076829912101    0.079504939295440932
   120   1      15.568624543089708       27.19998178107728       1.590867149387849
   121   1       17.17844855294398      28.653033810371955     0.10088659603590039
   122   1      18.636657089959247      1.2822289028187122      1.5174078406111111
   123   1       17.16121240014504      2.7401718752712778    0.068923847732037316
   124   1      18.670837277190774      4.1806176205498033      1.7247912546703774
   125   1      17.080279307055545        5.66287876474403     0.31009288816990288
   126   1      18.640330801270593      7.0553996260604812      1.4398146666508052
   127   1      17.028484663160281      8.3736743135401195     0.26533059709399837
   128   1      18.692751498534168      9.8640056883928136      1.3777501034324595
   129   1      17.090848229317913      11.387285561763669      28.493257131300044
   130   1      18.447844853302556      12.993144457119332      1.2635405643051729
   131   1      17.201933851734633      14.567711963341672    0.078950868622587322
   132   1      18.526315821996146      15.853854118470467       1.660972409322562
   133   1      17.149720906379546      17.321466732637752      28.681538254732615
   134   1      18.700815012869832      18.431290087881909      1.3794751381077845
   135   1      17.364998469108116      20.090603472636968    0.093977052963498328
   136   1      19.005335593250262      21.354074836531577       1.446727386159022
   137   1      17.107734809415049      22.903385109122262     0.10046850413672252
   138   1      18.561682711855276      24.322914939082168      1.4764974306407574
   139   1      17.063737105315298      25.803976850353493      28.681332810965259
   140   1      18.450943549159682       27.17878358859528      1.6526705429863238
   141   1      19.978009774339515      28.518736771594934      28.585421443746441
   142   1      21.391850380765785      1.3209179381854921      1.3277225977537674
   143   1      19.968372800015175      2.7489259878943813      28.663696775403992
   144   1      21.355827226859649        4.17687059797482      1.3545344091272571
   145   1      20.078876521442162      5.6948207252175607     0.19828520962922774
   146   1      21.645533277003835      7.1190459713115857      1.4060898517935017
   147   1      19.973834021619403      8.4939881142711098    0.043241894323455245
   148   1      21.430337728271599      10.181200119896571      1.1065549597718687
   149   1      19.965347596732911      11.508476475476364    0.040735397645244011
   150   1        21.4997717659075      12.981976027050424       1.091733646370836
   151   1      20.236295415342756      14.650874882602677    0.066210302392335108
   152   1      21.686482090186185      15.864797883824091      1.5036236478287595
   153   1       20.21931603830415      17.150101671931793    0.036382910308247925
   154   1      21.635336232977231      18.521239224317558      1.4132382983828946
   155   1      20.057258569594278      19.866128445440925    0.053926736839491743
   156   1      21.442849377898462      21.525514771508931      1.5743114548292052
   157   1      19.973508915660087      23.202717020860131       28.56260786846822
   158   1      21.354014722589742      24.399806765746394      1.5774254986092504
   159   1      19.714221202570169      25.959244571326845      28.691585700728282
   160   1       21.40321693238316      27.139557211206107      1.4285508046291269
   161   1      22.913571558379896      28.509341630771775     0.12726033378048665
   162   1      24.344951460286339      1.3373750407707685      1.5189629146103822
   163   1      22.961213838662427      2.7504157274065615     0.19595071716227036
   164   1      24.207802385095778      4.2655554502484536      1.7331025505111595
   165   1       22.96870121569437      5.6947662647243993       28.55703804323025
   166   1      24.516553419909219      7.2248101168519803      1.4134352688373049
   167   1      22.818559280286042      8.5206288203968459    0.038553850105779421
   168   1      24.314629291784268      9.9934111124256546      1.4104878603599107
   169   1      23.153832617328682      11.497252468220081     0.10815840397025328
   170   1      24.581141602652899      12.924179968998724      1.2414253566837479
   171   1       23.14270097679902       14.38514740786005    0.013691045506186571
   172   1      24.440010634715286      15.743255634734012      1.5350547196671875
   173   1      23.170754245585869      17.219756346876387      28.674193025401664
   174   1      24.453356345185185       18.74483482776586      1.5498201183690168
   175   1      22.835942452778074      20.128529408305521     0.12411263161894799
   176   1      24.295550177593245      21.706587952959538       1.346429765937182
   177   1      22.713749722509093      22.948500330943872      28.685334061155118
   178   1      24.438340624063187      24.235284145899342       1.510607912544754
   179   1      22.835847926552603       25.72073022440463     0.12970454403533732
   180   1      24.578413078717762      27.154677939473203      1.2610860845315073
   181   1      25.859894547800526      28.639685292310848    0.091775162582564532
   182   1      27.348282416706692      1.3737935334919469      1.5099832661533132
   183   1      25.725750039423765      2.8747305452810474    0.044882671398136113
   184   1      27.154898588077756      4.3135631850007163       1.614212235866809
   185   1      25.694886353530663      5.4852089749075787     0.14908462849789431
   186   1      27.385750717925937      7.2695912228726751      1.4547786846300581
   187   1      25.740871951099841      8.6385678514265809    0.061948721347221104
   188   1      27.334882084772826      10.121784815549386      1.4083496297363243
   189   1      25.826257386831255       11.42757399871147      28.575741960372014
   190   1      27.286709732613904      12.851947748034041       1.323083633364728
   191   1      26.051121376165227      14.592866593512619    0.030691387232616388
   192   1       27.38268953152474      15.841627060952725      1.5985372256042758
   193   1       25.70854572017744      17.358440098660758      28.575052298319179
   194   1      27.342052034430345      18.631886271751448      1.4375867389335548
   195   1      25.864731497744025      20.236847283010487     0.23120490847179548
   196   1      27.339646656300459      21.644401919678835       1.599431373072878
   197   1      25.958148249436913      22.787536907663096   0.0051611135504003808
   198   1      27.370254882018763       24.36745615786106      1.2730605081746151
   199   1      25.876769657983708      25.799938950406524      28.574220633088348
   200   1      27.207703232099615      27.074112678370103      1.3864585143763184
   201   1      0.1668595913759095      28.588372098875372      2.6057077778547755
   202   1      1.3438206548645679      1.4159325140626371      4.1570256043163463
   203   1      28.559614987021664       2.770043846124723      2.8727933218664607
   204   1      1.6163091485592771      4.3286233478767988      4.2935125845860123
   205   1    0.017112000244833846      5.6878178981310734      2.9858370075993235
   206   1      1.2292455430623821      7.3708388846021959      4.4070955714055549
   207   1      28.635883967356961      8.7493009455785167      2.8123069305813932
   208   1      1.5037106656413142      9.9202884538001079      4.0666995007933116
   209   1    0.053267248667396752      11.496604686639811      2.7337052974522051
   210   1      1.3375263641556214      13.020832403606457      4.3536948397907063
   211   1      0.1093521035388232      14.167323542147139      2.8254015268151318
   212   1      1.2118383354392126      15.702559109104897      4.2842176513454211
   213   1      28.679280494902784      17.339677350627497       2.880604980772465
   214   1      1.4988699361442175      18.546564744687544      4.2774383034868801
   215   1     0.16773361874218279      20.129078509470613      3.0078122885682568
   216   1      1.4864210365993953       21.59810821781338      4.2872469409672105
   217   1    0.070380649526590996      22.940809819515788      3.0987429420977701
   218   1      1.4646535603083997      24.276541223585326      4.6177366447480557
   219   1    0.010356869523629419      25.706806951124683      2.8834284199026698
   220   1      1.4639768211650794      27.251710491690883      4.1957478572488798
   221   1      2.9904226534533915    0.060018775361243268      2.6849555984063609
   222   1      4.3089098810217132       1.361227727909784      4.2587453073153689
   223   1      2.7908453176578747      2.8267787784281393      2.7120019178743755
   224   1      4.2509380433554496      4.1703981424604963      4.3173849188892257
   225   1      2.8696670493695602      5.8103095248411591      2.8293333955703028
   226   1      4.2686791155886885      7.1769387164774994      4.3562979746279105
   227   1      2.9101098954188136      8.5475675779932203      2.7226199199001266
   228   1      4.1501188466349515      10.093953693872331       4.538449679458183
   229   1      2.8118188562864579      11.314751995737998      2.8981547894807154
   230   1      4.2164815494827881       12.99592953522245      4.3408512893491169
   231   1      2.7912439715032056      14.290335084251664      2.7712963099238896
   232   1      4.3363208671567168       15.52043224209674      4.3221612034691059
   233   1      2.7982695153424286      17.210408590656769      2.8466128915866307
   234   1      4.2393862256241697        18.7174034833922      4.3877750362323003
   235   1      2.8444893346160396      20.282304167162117      2.9393223554595131
   236   1      4.4680361265420183      21.678121155949423      4.3089695231282787
   237   1      2.7785424497352342      22.902494804173024      3.0439772335761082
   238   1      4.4609624874962632      24.465156028063785      4.3677589149236127
   239   1      2.7608210488632388      25.794867263518128      2.9830105241674167
   240   1      4.1676123198815382      27.368611013974366      4.1868607789613437
   241   1      5.8965151288896509      28.660250134552811      2.9465588258810964
   242   1      7.2545197648421276      1.2364816277118846      4.2669434254332286
   243   1        5.94195293302234      2.6637522329084957      2.9404068622854056
   244   1      7.3018206822653706      4.2393944236683296      4.3138270447668692
   245   1      5.5775980796387099      5.5266053517159328      2.8156202574416955
   246   1      7.2521086728754751      7.0119570960057329      4.4918591874763596
   247   1      5.8740468114887179      8.4557559922101539      2.8801864255148071
   248   1      7.0688643332538073      9.8035820776513862      4.3192166546019424
   249   1      5.6021032443539758      11.454228317041915      2.8948400205911642
   250   1      7.0990858567166528      12.858500163545619      4.2666678089617092
   251   1       5.584692572919546      14.413583247797018      2.7622611870351856
   252   1      7.2182485069671376      15.836791870869002       4.474350361308244
   253   1      5.5235538786545799      17.090989617103414      3.0100465814905784
   254   1      6.8639121274525818      18.678189057204612      4.2863991701395099
   255   1       5.704384254695456      20.046803585078013      2.7717305186472796
   256   1      7.2533388669500116      21.555111814735767      4.2785162092063826
   257   1       5.829311807683581      23.234452630369123      2.9689353138100172
   258   1      7.1772909973884698      24.428890821720117      4.3033145421271639
   259   1      5.7536730622372207      25.779453301309584      2.8542563779388495
   260   1      7.1927744514746079      27.166406519868499      4.3461957203869179
   261   1      8.6191670492025825      28.457372665611761      2.8139460593159589
   262   1      10.010970570235511      1.1684354210542434      4.4378373419407042
   263   1      8.7037543558629675      2.7922013499564731      2.8999351373656035
   264   1       10.04757322883399      4.3593175149536663      4.4086690667663708
   265   1      8.5662031914773138      5.6559307313979987      3.0709660310314169
   266   1      10.071881092686155      7.2952187373161479      4.4665592893966695
   267   1      8.6629450218123214      8.4957676990233697      3.0543954330590624
   268   1      9.8950296891297143       10.16500980442691      4.2889121860699415
   269   1      8.4557387910424922      11.515877932057839      2.9912666484242538
   270   1      9.9909624938374026      12.801147840177098      4.3627231210058666
   271   1      8.4682313925639914      14.138102319540311      3.0120842554905871
   272   1       9.916209279839455      15.575165697154912      4.2411199152613674
   273   1      8.5764625318005638      17.299107603075484      2.9583144554597052
   274   1      9.9762084974081784      18.988133315258434      4.4046242633155801
   275   1      8.4483556007117429      20.023960599146285      2.7416102298399649
   276   1      10.001849848945689      21.509253987305033      4.3720237389006611
   277   1      8.6491483429098786      22.956177563235162      2.9011659121293611
   278   1      10.067665784641976      24.492050912095436      4.1936855531732551
   279   1      8.5595629776917441      25.693221775575172      2.8739404487284559
   280   1       10.07252309520274      27.162625509873717      4.2412760008348753
   281   1      11.488044850409482      28.626040016754988      2.9674975976170774
   282   1      13.006967544953271      1.3579349822752749      4.3068814190793665
   283   1      11.496906921140146       2.795173718751756      2.9643469832129017
   284   1       13.02189220834321      4.3017965772955069      4.3383382751936681
   285   1      11.298775665759999      5.6571521326112002      2.9961049482649669
   286   1      12.853045180927833      7.4243214031509979      4.1560741086254378
   287   1      11.321628024697416      8.7284796909589257      2.6715668826452537
   288   1      12.907415758371201      9.9365585754548214      4.3416798809586048
   289   1      11.426857413080524      11.433601361765689       2.703067861743397
   290   1      12.806805799107781      12.759391471792949      4.2614422401737988
   291   1      11.237494284053133      14.299360977189409      2.9767066672192453
   292   1      12.958045064523649      15.839197276471763       4.581911721104011
   293   1      11.311241558575894      17.488663301444483      2.8356141432298512
   294   1      12.692915536563561      18.605274777880634      4.2755270151781497
   295   1      11.441064628563057       20.21400722928329      2.9505334637716385
   296   1      12.962588995760418      21.542339693153348      4.2478099705464611
   297   1      11.402005256988451      22.991165426066278      2.8619890726252502
   298   1      12.943607351611725      24.337826683008142       4.265069340127341
   299   1      11.386760327933082      25.877856014980757      2.8087236140377949
   300   1      12.854587635374298      27.254339965159012      4.2836852384991593
   301   1      14.276661939133787      28.607719689972914      2.9368869873181529
   302   1       15.78776417837334       1.329491224439197      4.3455641264404097
   303   1       14.27390183375705      3.0075115657908285      2.8850987562095258
   304   1      15.639583433128776      4.3813198707287899      4.4316938487948532
   305   1      14.246807497810913       5.651713788299868      2.8882353654130624
   306   1      15.632208265886934      7.2338378174366653      4.3896638742360974
   307   1      12.764465720276077      10.024231037370024      1.5062196943564456
   308   1      17.141728222473919      11.355690711361508      2.7712305769593271
   309   1      15.765445177770165      10.007507391450153        4.31922409491668
   310   1      15.701029227592178      13.088172666641134      4.2632762160322386
   311   1      14.229073996222185      14.494702843374611      2.9996244930649798
   312   1      15.841065136726673      15.600242657963044      4.3507622874162317
   313   1      14.335092346655237      17.223355502184077      2.9467126078439096
   314   1      15.973472017780455      18.566614300323693      4.4189140972173577
   315   1      14.408755623962827       20.06444739898954      2.9335047874769917
   316   1      15.796524611869668      21.287016754567173       4.412701218192848
   317   1      14.422669986845127      22.745457991902811      2.8460830556474761
   318   1      15.646162561617004      24.206715239682577      4.2263008468448051
   319   1      14.229500404432681      25.803909843802387      2.9748688295778054
   320   1      15.818928479906143      27.111583431511168      4.3633552324996439
   321   1      17.001219387420324      28.695101011983727      2.9286211666326025
   322   1      18.618780058118112      1.3567743360029352      4.2983241494652411
   323   1      17.152608414394397       2.666176021179103      3.0995892783224206
   324   1      18.748003758916035      4.2889099387068539      4.3174854636328917
   325   1      17.302292365442877       5.781947552160795      3.1028241921010249
   326   1      18.780364949387035      7.3223550917485536      4.4711590657597071
   327   1       17.12355911774026      8.5532736533125959      2.7161359908338216
   328   1      18.727093946211387      9.7464843614182843      4.2454379077100981
   329   1      18.662950333003419      12.775690481685764       4.228439130786013
   330   1      17.265441511317775       14.24706493970694      2.8847847226916712
   331   1      18.722152284482306      15.775646197122379      4.4711648631179495
   332   1      17.142629136290751      17.309013255155268      2.8439737609936633
   333   1      18.712999586992996      18.694608705785427       4.329205972564826
   334   1      17.264215529096585      19.952373105929478       2.956188327722614
   335   1      18.749318010290473      21.342936370900194      4.1969963500065113
   336   1      17.035596863912396      22.666411987561432      2.7939961534830218
   337   1      18.547133510955806      24.310842274299603      4.2520969700898519
   338   1      16.965721046200553      25.716100333162323      2.9335904595687454
   339   1      18.503172159870193      27.129764214254415      4.5083236902242083
   340   1       20.17044349672657      28.466309269863689      2.9726255606720802
   341   1       21.46716597241624      1.2241290474579287      4.3820790260165579
   342   1      20.090223669839482      2.7042201825130849      2.9030591947359849
   343   1      21.522310942164072      4.2035195416410591      4.2311405067594308
   344   1      20.139551062139351      5.6691265502017982      2.8613052642957637
   345   1      21.406709496567824      7.2298404200440096      4.2158939791218453
   346   1      20.161989667197375      8.4479845928866375      2.7176745360788357
   347   1      21.415880413956355      10.213767258466161      3.9891043438001312
   348   1      19.891285093628607      11.466362338894523       2.695317188964804
   349   1      21.385162624830159      12.929190704580435      4.2461101692309153
   350   1      20.144610661819073      14.316610019904289      2.6540775847966764
   351   1      21.493880215810837      15.760306524704674      4.4202490567931632
   352   1      20.177390983584196      17.281281445547719      2.8378255885769823
   353   1      21.514530565258326      18.827207726419495      4.4427439871100605
   354   1      20.176115713451789      19.847793184744361       2.930344888818865
   355   1      21.749591311380524      21.742030536036381      4.4815423085424708
   356   1      19.871421231603279      22.836557657984088      2.8694927754025445
   357   1      21.448311539172984       24.47376782748626      4.1589381348886185
   358   1      19.957788315737201      25.788200454253047      2.8750251901570749
   359   1      21.437673057812571      27.157758291835794      4.5356279686787699