dump/Fe_1050_5/steps_71 (written by ASE) 

1995 	 atoms 
1  atom types
0.0      28.699999999999999  xlo xhi
0.0      28.699999999999999  ylo yhi
0.0      28.699999999999999  zlo zhi


Atoms 

     1   1       28.55344307977164     0.13044399617556343    0.041648127746418691
     2   1      1.2563329375875583      1.4774783833725351      1.3762378962343298
     3   1      28.514421054742375      3.0437392577777831      28.659826146097718
     4   1      1.3440352540585976      4.2390217333577604      1.5160532901219534
     5   1    0.058529262229501715       5.736342836841632     0.10052062251472754
     6   1      1.2710129735416094       7.148162506953053      1.5830288411430837
     7   1      28.626429628128935      8.5388396102454429     0.15558104160915029
     8   1      1.5090770360146055      9.9620828589857044      1.4457235259142065
     9   1      28.646246223297442      11.572049943280827     0.11827951820569059
    10   1      1.2653879805029431      12.981778424572976      1.4400497486674781
    11   1      28.534551530265805      14.331252517223058    0.052183366490589765
    12   1      1.5638605919267328      15.973256669973319      1.4074397109622736
    13   1      28.639227295381033      17.443413870200473      28.664815739021535
    14   1      1.2994139429329854      18.674112172207902       1.511507315780682
    15   1      28.675541657655149      20.221567908622465      28.619217204724933
    16   1      1.3445024107383254      21.649588753987938      1.4544852224843117
    17   1    0.053677749395709108      22.825369774163953       28.63896905507973
    18   1      1.3271160992251689      24.445492324909729      1.2102698426580087
    19   1    0.063232138731578916      25.803143890840087      28.563364645051678
    20   1      1.2978274737007864      27.170142447759467      1.2708771511643124
    21   1      2.6625384565155392    0.061187938643740877     0.15415280360842884
    22   1      4.5625799202917179      1.5828304570981104      1.4467765050728862
    23   1      2.8541625337553582      2.8480726787401869     0.17953276560598394
    24   1       4.292299816284566      4.3728494030464917      1.5614292791804019
    25   1      2.7106402080312351      5.7479473758174633     0.13312346126193689
    26   1      4.3505134809998021      7.2034079430554359      1.4638573745096211
    27   1      2.9281909223925098        8.65806096221106      28.677583841373963
    28   1      4.5120138136279673      10.197763943269027       1.418378246187739
    29   1       2.929395609686845      11.543924533995881    0.024971142149388482
    30   1      4.2426135955948876      12.864193400054479      1.6649820709379699
    31   1      2.8330848359212841      14.259225732689297      28.625862129531754
    32   1      4.3423117482569999      15.586631953459257      1.2516756595587148
    33   1      3.0353396254947875      17.347686786388707    0.077383642210600193
    34   1      4.1938008785901513      18.737081199081668       1.545020872733357
    35   1       2.753866557005519      20.043586785695563      28.648494273857782
    36   1      4.3317266436270305      21.538845153078089      1.2811840098288829
    37   1      2.8074654887993353      22.945648985593962    0.052866559182871184
    38   1       4.307501448956919      24.704878606350267      1.0816815144531005
    39   1      2.5796912949630983      25.709800568456121      28.559350642039448
    40   1      4.2293733321559488       27.21977687212047      1.2418338094263841
    41   1      5.6976401429610508      28.598741101802574     0.15417512461139041
    42   1       7.081837366477461      1.2913887215034259      1.3655056712535281
    43   1      5.8003687700275313      2.9539579527199775    0.072823029865821787
    44   1      7.0417875200972633       4.556782867482621      1.5166465329146144
    45   1      5.6730639879901821      5.8031668003173529      28.654670114685729
    46   1      7.2207500502689319      7.1513786169815656      1.3747622734522453
    47   1       5.472840818363216      8.6700082426855261      28.670992073402036
    48   1      7.1076479977649472      10.072013240826918      1.4202342143338575
    49   1      5.4451719457120129      11.720090459377568      28.548927546639845
    50   1      6.9281313944080338      12.834448407383137      1.3667245408605015
    51   1      5.7465517570773814      14.361605321590735      28.555281062684902
    52   1      7.1973364524787984      15.677888996890797      1.5594122509054373
    53   1      5.7638568112012232      17.304105540396883       28.66090284038399
    54   1        7.32576507040966       18.47269434837877      1.6287137373682403
    55   1      5.7907671701020398         20.168501009926    0.054893903540243989
    56   1      7.3608470809636826      21.798566954428374      1.5202067303550619
    57   1      5.7855366939009887      23.105186919881429    0.037600469876531296
    58   1      7.3008419760255086      24.503201760693091      1.5397699990419704
    59   1      5.8425913083321701       25.79175605444324      28.425500186289341
    60   1      7.2150322995077794      27.225090368601816      1.3746100925579188
    61   1      8.4987257233344611     0.12651398159501914    0.013462562488120973
    62   1      10.190603363944929      1.5143938398096688       1.282217059149604
    63   1      8.3518012846987997      3.0454842166366114     0.17740167685749372
    64   1      10.198326259587192      4.5279719150635707      1.6333552653325456
    65   1      8.4517078485205719      5.8860279715013473    0.075820229119062749
    66   1      10.336383362784735      7.1006530781104358      1.5131295664606226
    67   1      8.6408588672303761      8.7018194796012818      28.681090879016882
    68   1      10.163697437156891      10.084894901316822      1.4267715435380626
    69   1      8.5013375399799305      11.433733663748011     0.10521262277152334
    70   1      10.247013766984599      12.892434945695664      1.3878803858896953
    71   1      8.3931884059039579      14.293539637758116      28.627057648723397
    72   1      9.8572637887080443      15.877923757066002      1.5179168842303059
    73   1       8.535850059807176      17.308940873946462      28.481308900405896
    74   1      9.9682629534620357      18.382696194414631      1.4008011937020353
    75   1       8.609468343442936      19.982308809242262     0.16644920822303666
    76   1      10.078575447476837      21.428725985223984      1.3517203668930375
    77   1      8.5944186995733549      22.972713378702359      28.618124359503383
    78   1      10.052321008892294      24.493926770106825       1.217538468257384
    79   1      8.5299730937601641      26.127655967435938      28.556501834586456
    80   1      10.028833476076908      27.382806332241785       1.250828268519093
    81   1      11.518429653620531     0.12802023479053051      28.491828499856371
    82   1       12.86779980777807      1.6179768352863906      1.4108362823069673
    83   1      11.536156828723987      2.8990774061444422      28.686367116675189
    84   1      12.857529322947663      4.3808299100650574      1.4986178925253504
    85   1      11.589887411366819      5.8214845299400411        28.6724885838826
    86   1      13.043344036745365      7.1583749710205433      1.2206930725523646
    87   1      11.519853606798327      8.6781685464571936    0.090788293040964224
    88   1      14.405235607441718      11.377078790145244       2.956109977231435
    89   1      11.836627764449428      11.365413055954425      28.686940229361738
    90   1      12.900060410990976      12.829321067039121      1.5697856895018949
    91   1      11.487455286728013      14.328460971609417      28.682033799414004
    92   1      13.006018770137823       15.69061972647302      1.3462595930249781
    93   1      11.142655198809781      16.999117153188759    0.022399442158928199
    94   1      12.646797037003722      18.625439737564168      1.2971324321580471
    95   1       11.27052727195557      19.901947153111141      28.559749486041468
    96   1      12.715111651709464      21.431060226535969      1.1278909724151966
    97   1      11.520135387358444      22.958995712893209    0.025320018717127357
    98   1      12.854871821452519      24.475597864242836      1.4366882062714015
    99   1      11.482582439787539      25.845386470472999      28.503551512076584
   100   1      12.834500304147687      27.341779966688023      1.4789207718310409
   101   1      14.414178798928193    0.099385418529845934    0.014231251253215747
   102   1      15.762298844022274      1.5367574186373196      1.6534475612477546
   103   1       14.41968668825205      3.0900417310320387      28.633614210827236
   104   1      15.766593315408992      4.3811274558063005      1.4114413376186681
   105   1      14.476467823807253      5.6117977329940549      28.485315543967289
   106   1      15.707721713812701      7.2430676680923005      1.4469570508208569
   107   1      14.461987970640891      8.7530742960171679      28.538553034198038
   108   1        15.7845883809578      9.8666057736653663      1.6532530935106362
   109   1      14.604732976962328      11.409259487047148   0.0039847903364034305
   110   1       15.86831572373617      12.677732171567778      1.3343965241879219
   111   1      14.393757753278756      14.113071605053099      28.654210188365301
   112   1       16.09965571178321       15.68233222378019      1.2388579717200634
   113   1      14.633652703890254      17.366037064632156     0.12302434962792846
   114   1      15.820224338458848      18.822264770949495       1.356829865204134
   115   1      14.283211805403647       20.04826425055451      28.609898551299413
   116   1      15.890497616260678      21.503483155832029      1.1424089693249475
   117   1      14.392706081205928      23.109511694950069    0.046421569708798044
   118   1      15.795185183056764      24.531680679918601      1.4302047808201661
   119   1       14.26068030727842      25.757210463488491     0.10742938237189038
   120   1      15.792046214347302      27.337618111649103      1.4903336973648731
   121   1      17.357615615564871    0.003128984856391522     0.05730606542546169
   122   1       18.74093840527626      1.5164070588198568      1.5850348993897572
   123   1      17.297200725253635      2.8975434483025007     0.23360279208508231
   124   1      18.566350777256897      4.3774294667378149      1.3983408245685847
   125   1       17.27168903680446      5.8431771758999238      28.676431299729831
   126   1      18.649445992048005      7.1495837164613896      1.3281470831629014
   127   1      17.045432531354855       8.580136202519288    0.075756856339103326
   128   1      18.744018200422275      9.9800167765944501      1.4541181545049779
   129   1      17.385510011230419      11.242345844386943      28.580364974093925
   130   1      18.731249344771324       12.99217632366036      1.4077890497302077
   131   1      17.113180045709235      14.305757304719519      28.430069607450626
   132   1      18.623321672418832      16.097166286624827      1.2415961820376753
   133   1      17.491101188930394      17.441337499942218      28.623146212235216
   134   1      18.953950415631532      18.655883308108773      1.3614162373080045
   135   1      17.432072032415103       19.93398949379775    0.076942427106916997
   136   1      18.736066992749613      21.528052581096055      1.2880098081005245
   137   1      17.146306710886019      22.862859353712079       28.57679369531434
   138   1       18.68393947672326      24.443748108115567      1.2945158477738701
   139   1       17.16191434439547      25.764311999216748      28.672303219205659
   140   1      18.699703682572149      27.219782364046903      1.5169672952159547
   141   1      20.254774083747058     0.16200177513145478     0.17825197350646252
   142   1      21.696090044849633      1.5314324140279734      1.7561289401109204
   143   1      20.137449828344767      3.0061773164737828     0.12858549863213958
   144   1      21.649132362399261      4.5381260123011886      1.1889477275327407
   145   1      20.076821604908538      5.7450635689932641      28.502076147911527
   146   1      21.684533709725439      7.1374156560215605      1.2834140269075314
   147   1      20.153234705753654      8.4410162464625156     0.11739541142835611
   148   1      21.536640315849123      9.9251681918815979      1.5263596860740658
   149   1      20.285695780947446      11.479901112493494    0.068575248982972292
   150   1       21.52178932903054      13.087327200402971      1.2528482728573065
   151   1      20.095345841640924      14.217301514560932      28.509730866240389
   152   1      21.580029667682858      15.675471385929692      1.3086132331494702
   153   1      20.247766847439657      17.337766610461447      28.693236815653226
   154   1      21.732333698735957      18.534096227108872      1.4406771762409232
   155   1      20.269694380052048      20.401012072379274      28.540410899460653
   156   1      21.516708435911845      21.516764943072499       1.854311043042469
   157   1      20.226180492365351      22.957693397479794     0.26336985089784554
   158   1       21.49223544366075      24.405100390970293      1.5795366037029555
   159   1      20.210873932754293      25.825234723436679   0.0051703483205187651
   160   1      21.504276976737952      27.296568882362731       1.540468572040596
   161   1      22.782957528317265      28.553537330907762    0.020853886999998402
   162   1      24.367522584874727      1.3203473689165555      1.4538531879961745
   163   1      23.011933783745391      3.0728829043969976      0.1759381063295791
   164   1      24.451605807834252       4.661924248595577      1.4957988217068974
   165   1      22.994155712999575      5.8436035059889022      28.577267957284882
   166   1      24.477425039066063      7.4627158569076659       1.268055695729323
   167   1      22.726400633425982      8.6503591374513356      28.606430517258573
   168   1      24.418894613608096       9.943293993546753      1.3008422721293063
   169   1      23.012182384611197      11.475388395514512    0.042952416345531132
   170   1      24.395863426790111      12.875041282909899      1.3401285035218498
   171   1      22.974068690072816      14.307973613147995    0.034699103732293797
   172   1      24.331058235601652      15.769108027603696      1.4638625920302597
   173   1      23.029942647165981      17.172015915928906        28.4835436368129
   174   1      24.297618189994779      18.641647683398343      1.4157096228228279
   175   1      22.814037132716027      20.210292279460926    0.024472852811550181
   176   1      24.378459960467364      21.439653021995653      1.4339267715988382
   177   1      22.942626539091144       23.06470163208088      28.667946889926824
   178   1      24.423357810311412      24.238361511444438      1.3068277424362447
   179   1      22.841749913821175      25.726291386143622      28.638573625801584
   180   1       24.18294489496477      27.167742704212667      1.4323749547606215
   181   1      25.663959240365365       28.67339603801965     0.13039833492908887
   182   1      27.176568943143891      1.3950422798758839      1.3898194122234133
   183   1      25.771796198204324      2.8718897188984638    0.082884932238925887
   184   1      27.203915338203998      4.2709974699187523      1.6044377568852848
   185   1      25.921687176422136      5.7789169378209078     0.10620107225164485
   186   1       27.32095288887195      7.1356558055962829      1.5899073119846545
   187   1      26.140970408862188      8.5825918906982945      28.667036972519895
   188   1      27.300608622056181      10.080917416465951      1.5064994155795504
   189   1       25.99346711503938      11.543599436102269    0.062075231576807256
   190   1      27.195698104479714      12.925913990075633      1.6355251797750143
   191   1       25.70451197941555      14.238827281645952      28.589052842422475
   192   1      27.104348564367012        15.8393632816079      1.4220221730154217
   193   1      25.684191726352985      17.277616387713632      28.602572944979713
   194   1      27.066799906620922      18.785266329454171      1.3483522995185133
   195   1      25.831354454398681      20.140750478073407      28.381398870926105
   196   1      27.175968807673435      21.614323786591665      1.4565780782188775
   197   1      25.802056325763974      22.660538532897512    0.014769499678334332
   198   1      27.364467273837338      24.250243486483903      1.5561167454309845
   199   1      25.912062036817037      25.698921214716208    0.085823222898443532
   200   1      27.250271666536573      27.202219069130713       1.320902035519226
   201   1      28.605334157009395      28.653727001053444      2.9028977497290693
   202   1      1.6017520288242864      1.5115589059942194      4.4717925856268046
   203   1    0.026646610647810934      2.7754727288743877      3.0432190583425127
   204   1      1.4307329904692887      4.1463539830320046      4.4306485581465029
   205   1      28.697823033718105      5.6075294517542247      2.8926600158235276
   206   1      1.4381280122107558      7.1712918521525451       4.241293665830872
   207   1    0.015449808830931751      8.5868884655417581      3.0424390714113563
   208   1      1.4525404457278801      10.079781657483245      4.3684790329762464
   209   1    0.047822942196411151      11.385638218031373      2.9115219447449365
   210   1       1.269984291175321      12.783216927546666      4.4058323485906676
   211   1      28.648654450730305      14.368376455414078      3.0376037965369549
   212   1      1.4019507505304223      15.779591607344486      4.3826281021493747
   213   1      28.555670575836785      17.135679977564916      2.7820803090625286
   214   1      1.3815757025821322      18.779735831892207      4.2169396814946563
   215   1      28.582953761115608      20.273904414337746       2.892277283408903
   216   1       1.294500923181251      21.433896951889817      4.2045116825298932
   217   1     0.14825107381817745      22.955381333319885       2.948834227089046
   218   1      1.3220683442097112      24.330777378414165      4.3251908930497045
   219   1      28.516247543440247      25.847102738415547      2.9493051543561628
   220   1      1.2917895354936066      27.314305123542361      4.3028977089002156
   221   1      2.6644265803190819      28.645089266357051      2.7558978726001886
   222   1       4.487545360072712      1.3798254033316761      4.2914754641547024
   223   1      2.8881326494734143      2.8524534790325315      3.0102312343752313
   224   1      4.2427731209947535      4.3149148822388703      4.3744368188727139
   225   1      2.9131519473055483      5.6238515557178852      2.9778610633691782
   226   1      4.4342843874409583      7.0456831993900062      4.3772439129645804
   227   1      2.9563067829301608      8.4876236134090632      3.0723558831619817
   228   1      4.2900788999201529      10.187339457867353      4.2931836484570898
   229   1      2.7745110106915951       11.41941696662035      2.9168880520768239
   230   1      4.1945730305955182      12.876895485182885      4.3219649575058492
   231   1        2.73903074631628      14.327593763644721      2.8756462052212166
   232   1      4.2960797340235892      15.872331057701732      4.6391519933366556
   233   1      2.9962304865027916       17.22114097684662        2.78841208855098
   234   1      4.3536150505918618      18.952457056397847      4.3608132814216773
   235   1      2.8398089156395163      20.215105133904718      2.7640051378514379
   236   1      4.4368342174959468      21.563664435305768      4.1711243504020894
   237   1      2.8097962711681705      23.131278689865344      2.7812438774242185
   238   1      4.2595061668221987       24.26485750024467      4.3188550553014728
   239   1      2.8328081313573428      25.668106789989043       2.914055746251063
   240   1      4.4065225082941559      27.042308125465535      4.5669152290299229
   241   1       5.647482269387436      28.517486228026034      2.7683010172166744
   242   1      7.1606174151199546      1.2818385759736646      4.1868357319733684
   243   1       5.780066450506725      2.8926710865650587      2.9161199344865967
   244   1      7.2285034293936841      4.1904309192739362      4.3174330701410808
   245   1      5.8072878628847802      5.8357472570959716      3.0385582666335842
   246   1      7.1787088495511187      7.2274520960464343      4.1601920098540868
   247   1      5.6845923629669137      8.7237256811479504      2.9298835179535909
   248   1      7.0783340435152713       9.946698434827189      4.2099018629296916
   249   1      5.7499678044485387      11.606610373792767      3.0438543698165499
   250   1      7.2523593387033456      12.999438807335464      4.1822858533640037
   251   1      5.6003536339941329      14.623427488853652      3.1146553738492604
   252   1      7.2441141266871236      15.769848849550822      4.5041819116442285
   253   1      5.7050777796243537      17.248652317849157      3.1629597808292211
   254   1      6.9889263185760671      18.813089033016897      4.3396614102433082
   255   1      5.8534189922622195       20.13806670352988      2.7981936630691395
   256   1      7.1772666719290283      21.480383681381703      4.5564978682430803
   257   1      5.6753991557319976      23.080381465324781      2.7328466621840795
   258   1       7.080236748376465      24.314762335462557      4.2785130453421756
   259   1      5.5925220842081247      25.859952088009965      2.7921404082848662
   260   1      7.1629643848321773      27.278724635914816      4.3014913001705546
   261   1      8.6185902307476656     0.26030742861518091       2.789261388234614
   262   1      10.268047754381517      1.4147043600744826      4.2171959887412092
   263   1      8.7207568592710238       2.937237618593703      2.8320121699813172
   264   1      10.058950980423077       4.147862943428513      4.2943036941243333
   265   1      8.6423023904623566      5.8077715291823546      3.1296536476015553
   266   1       10.08687172309196      7.3140345448431683      4.3082115225236501
   267   1      8.6321877243661387      8.5711404215210329      2.7985504441095035
   268   1      10.071893142910868      9.8150001327959302      4.4455086706398212
   269   1      8.5197776845460389      11.418247401437709      2.6606371464837482
   270   1      9.8960160816579528      12.809125374235371      4.2534439476113688
   271   1      8.5742738974557682      14.141969327500222      2.7113943702341761
   272   1      9.9202212484621608      15.537289699059393      4.3036255829936163
   273   1      8.6617995557184777      17.222985622561144      3.0219652821018386
   274   1      10.092867352781512       18.60068330037614       4.322848008088032
   275   1      8.6648556812237789      20.170703392462997      3.1146565408821552
   276   1      10.074385860256619      21.479893689760402      4.4507280435299812
   277   1      8.7234179548876316      22.917852931892028      2.9525891785392124
   278   1      9.9408400602419267       24.40936808209792      4.2105501540241601
   279   1      8.7056081204296998      26.071134720553161      2.7819210790157043
   280   1      10.226868620875214      27.340359543497836      4.4079437856102865
   281   1      11.675778169404978     0.18087898237998845      2.8328852602515986
   282   1      12.894448152457231      1.5997694025289879      4.4152112078192323
   283   1      11.399699254076538      2.8485732409758722      2.8413432479250442
   284   1      12.649454374591476      4.4776060004767526      4.1291622683001865
   285   1      12.746979476935289      7.0071275322991395       4.286164592083785
   286   1      14.332059642559148      8.5474187637436003      3.0725874240061115
   287   1      11.621289419891163      8.7127433530243135      2.9093091962893087
   288   1      13.004249298207823      10.000496286896128      4.3070423353573473
   289   1      11.589139838843876      11.313706057587828      2.7996262465256212
   290   1      12.804124510513962        12.9532136658441      4.2017408758500814
   291   1      11.306010794832956      14.384534958666674      2.7548312587592925
   292   1       12.95780280373927      15.755481629472248      4.1345280012733205
   293   1      11.565919128979578      17.097744589480335      2.7026800892855372
   294   1      12.999931493533927      18.676191592419055      4.3227178954266039
   295   1      11.428151136608744      20.036797783824891      2.7673067860202072
   296   1      13.007694078252703      21.348715695731233      4.1832379026399433
   297   1      11.619106035704901      22.710463243294722      2.7646953533392207
   298   1      12.960484903960904       24.13111321957313      4.1034668241907717
   299   1      11.450538989568569       25.85670014950351      2.7716731247325694
   300   1       12.97810524979846      27.270612641889354      4.2456801528819383
   301   1      14.451089620899459      0.1261745344404632      2.9691790909537636
   302   1      15.945300832531855      1.5445811600861943      4.2269555345587113
   303   1      14.206262564275546      3.0279497694572486      2.8847308491327661
   304   1      15.990393798694853      4.4099490847538974      4.1059387127187321
   305   1      14.257162208409975      5.7729776018682193      2.7094074289512617
   306   1      15.809779488883441      7.1012558987024423      4.4533352841008771
   307   1      13.061359937379834       9.918295264349192      1.4819279874839151
   308   1      17.227215049883672      11.486689165995186      2.9586628567303319
   309   1       15.74313280704809      10.074008917741448      4.4091412261855893
   310   1      15.879821364781479        12.9110678340594      4.2200814150329089
   311   1      14.591831592752815      14.086873677502162      2.8268310021884524
   312   1      15.660492150856482       15.94844491924291      4.0626008226024384
   313   1       14.29462213355948      17.222113585751767      2.7233438742238261
   314   1      15.682591691859804      18.654602416836063       4.268395965446838
   315   1      14.285792774006108      20.172264668464702      2.6066487391974307
   316   1      15.715114365254838      21.434202502471067       4.182787158741073
   317   1      14.431571328425058      22.810551910566911      2.6063321991480612
   318   1       15.78494818602149      24.245854925481694      4.2011342745461464
   319   1      14.219787522781614      26.002299834688984      2.7951283929778454
   320   1      15.707587728473724      27.193588041658753      4.4318455756655784
   321   1      17.391198309003116      28.599398612793653      2.9420544823517796
   322   1       18.55863417610151      1.3853573386387992      4.3381207119957379
   323   1      17.504691604233368      2.9594313487772075      3.0107768269110591
   324   1      18.689025664172462      4.6748942655776933      3.9509624419497209
   325   1      17.105089211327872      5.8845298028661226      2.8456108501671342
   326   1      18.583892319953367       7.123854884888317      4.4414134422562492
   327   1      17.258126392275351      8.5207022686137623      3.1546108772174244
   328   1      18.663898292902136      9.9932190156730538       4.338009566574125
   329   1      18.599126774373204       12.97186777155804      4.2385785482789986
   330   1      17.179624340166026      14.418858506389785      2.7729542584387441
   331   1      18.744803600916864      15.921596249781752      4.1960366599747765
   332   1      17.207469364999262      17.262661675075879      2.7630832032623069
   333   1      18.616786282186482      18.645275367457231      4.2401569937632049
   334   1      17.424998378885718      20.094901012274452      2.7960727355075718
   335   1      18.566361586526448      21.459619981282223      4.2695941832990734
   336   1      17.167965764944189      22.874340957045323      2.7817794153137467
   337   1      18.534482321251154      24.288261189875683      4.1781040436147059
   338   1      17.295686508753736      25.706799360495445      2.8705718847082298
   339   1       18.58682221728289      27.140479337958556      4.3664203232113019
   340   1      20.248380283506467      28.548324891994458      2.9638706956607894
   341   1      21.678977194952168      1.5676773013421561      4.2033681710857085
   342   1      19.929278824019711      2.9180789611154245      2.8948057220034964
   343   1      21.481852212917751      4.4007854460893219       4.235257336656713
   344   1      20.176377563815024      5.7993526774017319       2.831773308515448
   345   1      21.318527597101056       7.211052504853412      4.2247307193033139
   346   1      19.870268462180604      8.6027088762289168      2.9409164726387593
   347   1      21.600488050182204      9.9477984896745077      4.1775417529911616
   348   1      20.055931542887318       11.58842216667688       2.753550204616793
   349   1      21.526642411609824      13.050788420131079      4.1366123409928912
   350   1      20.134580889320656      14.547541090414562      2.7913167662701865
   351   1       21.63655184237243      15.939667139126033      4.2491194073020671
   352   1      20.089981251751635      17.319328415784561      2.7132395748586529
   353   1      21.485800239768459      18.513225947818484      4.1583231795617932
   354   1      20.059540066900315      20.046346163204163      2.9714014251732581
   355   1      21.411260597723576      21.541138009692016      4.4274558510694861
   356   1      20.113765142148665      22.972758893964109      2.7913699588279757
   357   1      21.652048122084036      24.399493939827988      4.0455764168037041
   358   1      20.119453009856585      25.723088847984922       3.042714687168333
   359   1      21.681055894946475      27.317740378498609      4.5818409436326988