dump/Cu_400_5/steps_81 (written by ASE) 

1995 	 atoms 
1  atom types
0.0      25.526554800834361  xlo xhi
0.0              25.5265548  ylo yhi
0.0      36.100000000000001  zlo zhi


Atoms 

     1   1    0.038777565406161868     0.20508739310711893    0.034073304516050479
     2   1      1.1673803283227417      1.3361819093258289      1.7402553955824154
     3   1      25.493927091545558       2.742602068247991       36.07161711463263
     4   1      1.1243794301677463      4.0832922523293114      1.9182616302572697
     5   1      25.366236546761822       5.153697782676673    0.078534245001208189
     6   1      1.1959048442236822      6.4653268900424035      1.9396966527400532
     7   1   0.0015824467801983694      7.7493206244784893    0.078250439118994597
     8   1      1.1441956874766936      9.0167452102718038      2.0282991684934939
     9   1     0.19577107200536301      10.191410215662632    0.010426950144244532
    10   1      1.2292812285325181      11.578408454664046      1.7922622562485242
    11   1   0.0008706533037222484      12.837052099315853      36.093281265535396
    12   1      1.4880742663485396      14.179836343396717      1.7742684475291397
    13   1     0.15306597291220908      15.378148286557426     0.11813058557307853
    14   1      1.3038213220533936      16.782965324225398      1.7895741891239141
    15   1      25.453550738653966      18.105572629953137    0.094675147976306509
    16   1      1.3911805703369462      19.300382630920851      1.8261621691106495
    17   1       25.47353072332562      20.695051986134832    0.031190202506081746
    18   1      1.3272124730744295      21.916224631719238      1.8230225245317113
    19   1      0.1844300082376987      23.223540219183043      36.051015551785717
    20   1      1.3542139131647095      24.424711366053987      1.8625145195428805
    21   1      2.7893236651133155    0.065893899020886534    0.063845405797258073
    22   1      3.7906691645971846      1.3126484074492413      1.8656874298748662
    23   1      2.4842121064828162      2.5167205347643606      36.063270299575102
    24   1      3.9108204015468657       3.836561987723075      1.8065375963359318
    25   1      2.4089531896841709      5.1246217900932596     0.22115485572383026
    26   1       3.788587283003507      6.2987025577032778      1.7286401498355992
    27   1       2.450123063377919      7.7501512205987346    0.031374302473977884
    28   1      3.8020502030754217      8.9138995961704879      1.8831243772559096
    29   1      2.4637545971357486      10.157197639293152   0.0030645254595810896
    30   1      3.8291758390729536      11.621432598559911      1.8658647647513245
    31   1      2.6372129581422872      12.746350213641039      36.040531541953278
    32   1      3.9812740512322451      14.119751725881104       1.915819277576817
    33   1      2.6488489072317938       15.31587782563436      36.035091608874623
    34   1      3.7308334105500123      16.518441953178598      1.8976741691233188
    35   1      2.4077714766805305      17.890555128142367      35.933746788104962
    36   1      3.7255259373701151      19.228503669943105        1.88169536417448
    37   1      2.5295804385184884      20.303293111566589      36.057826790095859
    38   1      3.7844375794390626      21.794699993593554      1.7535220994989242
    39   1      2.6342152634221052      22.936046980309257      36.036988342709428
    40   1      3.9896831580346417      24.318768260503983      1.6260720468715582
    41   1      5.2683259520977188     0.14778564143496029      36.086999930892546
    42   1      6.5023161220875609      1.4460762621504952      1.9043598488099758
    43   1      5.1001252744689412      2.5000637639247003    0.074114082036942516
    44   1      6.4705478610211111      4.0121877337979646      1.8193815670210025
    45   1      5.0942243529508016       5.219161316036808    0.065347598476694274
    46   1      6.3588735429005183      6.4194680109328903      1.7894002249282381
    47   1      4.9216586412760925      7.7017858490307214      36.033839988122871
    48   1      6.2235030113371366      8.8387999600050744      1.8903281792905529
    49   1      5.0629093841217783      10.172810940273479      36.016050542543475
    50   1      6.3866743719944905      11.513655141379157      1.7959449240773084
    51   1      5.1493045767711969      12.745099537626601    0.078627889151027933
    52   1      6.4059366882568654      14.122075668396214      1.7496911898929852
    53   1      5.1662074054830605      15.203982164217383      36.069373409081237
    54   1      6.3931561926927438      16.608562110597195      1.7004229883371076
    55   1      5.0211307470937427      17.899543807402029      36.066406187005008
    56   1      6.2799909892901047      19.202402788378318      1.7356662148048032
    57   1      5.0304496747446663      20.485640577423261     0.10317918672515115
    58   1      6.5069431993244979       21.70312600252177      1.7257523922266269
    59   1      5.3333925776980067      23.030794395032906      36.030828098880086
    60   1      6.4563180655865091      24.378626797335951      1.8390060603158189
    61   1      7.6053173425922713    0.073505766755871976        36.0807297458893
    62   1      9.0321268818568399      1.3245946475709123      1.6399451577279016
    63   1      7.5981422618033543      2.7624158857820915    0.087705768576267981
    64   1      8.9559463666441612      3.9620801606558245      1.7899087801263485
    65   1      7.7326669863056807      5.3140329574147485     0.04508915849338576
    66   1      8.8653921650228149      6.5831178231479672      1.9528203423060531
    67   1      7.7160985616964739      7.6884258642426841      36.026969034697196
    68   1      8.7070756022976035      8.9176307226266438      1.8137000876887341
    69   1      7.5416843728222318      10.311011923621727      35.992543785023933
    70   1      8.9790831948346401      11.458680933210148      1.8668128801995529
    71   1      7.6875375170086526      12.704143457632346   0.0010335872576320076
    72   1      8.8474263525151553      13.920166924588779      1.7816375054283626
    73   1      7.6264719876316169      15.344282560205958      36.085787400410887
    74   1      8.9530394266771953      16.536678609574103      1.6242197428286209
    75   1      7.7328734918925548      17.919444150744827      36.044878566333807
    76   1       8.954559763374716      19.114791381943043      1.8496552590032267
    77   1      7.7813904936395888      20.360890822022682      36.013844881360278
    78   1      8.8672325702921757      21.558328524441276      1.8137948775335635
    79   1      7.7836053190093724      22.929264195710786      36.088265742771128
    80   1      9.0288780324094358      24.375399498205045      1.7406457878282824
    81   1      10.209121132852083      25.522732693330227    0.024790017692623675
    82   1      11.493859984869436      1.3820714516151218      1.8912380600062546
    83   1      10.193262067389361      2.4672441818013433    0.051498982019825404
    84   1      11.533324144424824      3.9053179299515697      1.8812245845632887
    85   1      10.167282790743426       5.174862486830202      36.022121097060122
    86   1      11.522110231429227      6.3409385363485615      1.8486952571893329
    87   1      10.030229668030854      7.6997204609285967    0.093748870141757867
    88   1      11.405816026726894      8.8496905991356041      1.7930993285118233
    89   1      10.087364519605776       10.20530936601236    0.012964653604899453
    90   1       11.37338022217285      11.368032805670671      1.8949285062274961
    91   1      10.042176274885774      12.652554951853256      35.958346787776229
    92   1      11.314143096982205      13.976087124276493      1.5831382164907828
    93   1      10.212203317154827      15.282000897361819      35.997255247514616
    94   1      11.598673684912336      16.677045243886351      1.7145091035420599
    95   1      10.330991027647087      17.776304376927818      36.027707081199353
    96   1      11.487816813355151      19.252847918615519      1.8454155945199882
    97   1      10.208384494305349      20.364536207777487     0.09517590012866306
    98   1      11.498691064701131      21.733933930420228       1.868383209644332
    99   1      10.196004019610086      22.850862052991207      0.1048200729763608
   100   1      11.574806765150628      24.288794017319191      1.8703293965435581
   101   1      12.878174739482581     0.13140597099762374    0.067672600581750106
   102   1      13.987482681198982      1.2050657038538752      1.9888524474680356
   103   1      12.694737968428608      2.6604647167965383    0.035787539486807414
   104   1      14.029306437197878      3.8131593491926492      1.7951867891123356
   105   1      12.780238566307245      5.1556014825515613     0.04268652523049915
   106   1       13.97628317471502      6.2641786037597003      1.9410812415434648
   107   1      12.475144228966272      7.6353262344159134      36.024827634464515
   108   1      13.969832461494928      8.8339278635837033      1.7728926442097088
   109   1      12.716795142319409      10.257651879201836    0.072759135990156765
   110   1      13.984030921557592      11.529260945679082      1.9367802890811263
   111   1      12.644252477189548      12.620541986102381    0.024893312305448494
   112   1      14.061557938045961      14.025064961964311      1.9228414764230151
   113   1      12.800549152453009      15.112678525983876      36.011526137000509
   114   1      14.135881464624743      16.512144000553572      1.7125023727771682
   115   1      12.839300505429179      17.852953523974936   0.0043544442864572354
   116   1      13.876860589739071      19.008763421577989      1.7808357491638405
   117   1      12.804760667515762      20.535403671302564      36.079107580579574
   118   1      14.001673749150186      21.463404962895986      1.9009576013216936
   119   1      12.908967005624918      23.171416967131123      36.061578264886627
   120   1      14.140404320855602       24.13658911462133       1.909552786242511
   121   1      15.462860753679609       25.50508553889798    0.058527878908864732
   122   1       16.72241808548106      1.1843012633881307      1.7368855881197189
   123   1      15.394952022655808      2.4105621890615607      36.048117782344086
   124   1      16.723049723619749      3.8022965866514689      1.7040272575464297
   125   1      15.162209371089963      5.0843505390254942      36.016845602057948
   126   1      16.659281292995047      6.2643075604583816      1.9190086937451256
   127   1      15.240579574265812      7.4268344176525174    0.058444856349388077
   128   1      16.517760198883941      8.8781859646074306      1.8128126929762405
   129   1      15.065413027372101       10.32168424710583      36.093017148356644
   130   1      16.482867334375126      11.377011531556866      1.9167219480381181
   131   1      15.373226342287854       12.66451488989418     0.14889217631464366
   132   1        16.5900309574298      13.979390886604291      1.7821505894212579
   133   1       15.31756076899897      15.208836596731143      36.087331872890552
   134   1      16.605666674519654      16.447350564241031      1.7221648864758659
   135   1      15.436055249985445      17.759460046039674    0.016287634363266072
   136   1      16.705556781487648      19.042472059895122      1.7167570439160278
   137   1      15.415636352179742      20.260937547665861     0.10035419565700736
   138   1      16.725016537387795      21.681086826885458      1.8883034366548024
   139   1      15.430658080670545      22.846616296350245      36.033084408685419
   140   1      16.753855030707449      24.081134951328369      1.6521279250229326
   141   1      17.889140074602366      25.497534727253303   0.0040085142773818852
   142   1      19.214021416784483      1.2918105684411261      1.7828922324012291
   143   1      17.890765253584838       2.494308214085307      36.023738919742961
   144   1      19.311455315814371      3.8434844287908767       1.786796126303613
   145   1      17.822078177416707      5.0655630620411642      36.060214346976601
   146   1      19.166660176524218      6.1616970418617756      1.7034602229736957
   147   1      17.834057842307939      7.6388703177337778      36.048495223769827
   148   1      19.131313968751517      8.8556850124391175      1.8057242026026743
   149   1      17.848355567580185      10.287252689723378      36.043957269622751
   150   1      19.116856103922075      11.401333076682569      1.7728459157368901
   151   1      17.928132898954889      12.835657942161145      0.1672445445002837
   152   1      19.194787113376442       14.21395942581583       1.734356094728422
   153   1      17.858784231723515      15.407854233786789      35.869842107491785
   154   1      19.136717890012516      16.849465506369391      1.9788911589522411
   155   1      17.978341620896192      17.954914161172017      35.989236876003574
   156   1      19.127278801403691      19.284981212011285      1.6553029877802929
   157   1      17.898162010992632      20.425997100681652      35.947837899682177
   158   1      19.224959101853756       21.66865457796359      1.6497048970927597
   159   1      17.889202073711274       22.91063416795366       35.92323129450309
   160   1      19.162523454654327      24.437727116371519        1.69397278185536
   161   1      20.417054333297852    0.027545438706038001      36.030038467743104
   162   1      21.631244988897098      1.2015056779259341      1.7744757270922737
   163   1      20.370522686987105      2.6218785781151008      35.975847292768542
   164   1      21.707169020689296      3.8435360849167561       1.804506030650713
   165   1      20.478718249559876      5.0849119657247206      35.966849583852358
   166   1      21.653330618733396      6.5510447040074542      1.7229231162987833
   167   1       20.35277703492233      7.7012744688388013    0.015237736008612049
   168   1      21.563213885415124      9.0636227102671683      1.7110000311314015
   169   1      20.441000751022973      10.283633800022965      36.084051462260184
   170   1      21.651560427753267      11.521751727493315      1.7936937793163776
   171   1      20.468747911364243      12.900563760458779      36.066711157043564
   172   1      21.586394101652886      13.945486695394731      1.7773748754769387
   173   1      20.372199889751158      15.401736636927094     0.15431877586838705
   174   1      21.651063142162435      16.682581662448364      1.7300745984212766
   175   1      20.457065851388901      17.941589931718045       36.08747125212934
   176   1      21.815522837887659       19.08755087952769      1.8258093241778384
   177   1      20.421408140798981      20.478813714110963    0.011913733392191256
   178   1      21.739236524817223      21.775770285783917      1.9454845765245856
   179   1      20.580095041592685      23.123202117146416      36.008047610889626
   180   1       21.70503241026789      24.219124402657783      1.8846355514185813
   181   1      22.926686914245007      25.458771464490475      36.067537566488838
   182   1      24.210297494567477      1.4703002953503321      1.7443967423573099
   183   1      22.831633626338057      2.6726925181287751    0.021771352242456046
   184   1      24.217730410364041      4.0119757241509237      1.9998976315028008
   185   1        22.8892290845309      4.9995819940745507    0.048626378071048776
   186   1      24.058785702088525      6.4564957972441936      1.6935434207775175
   187   1      22.961504710485968      7.7313052970904979    0.016976068369228884
   188   1      24.267158563861098      8.9844276496254505      1.7132262273706587
   189   1       22.98517932250757      10.148560257153447   0.0018324415372148893
   190   1      24.284660586768787       11.55905462688586      1.8465209974617893
   191   1      22.962846773632826      12.852242485382428     0.13941840630559441
   192   1      24.215043286458549      14.190323327865789       1.913927202720733
   193   1      22.997397644679285      15.314822941288735     0.21263186509813764
   194   1      24.329213924467869      16.799654147729647      1.9194726340300123
   195   1      23.028888252813676      18.078984877890282     0.17280236249722539
   196   1      24.285504037399114      19.330388038864143      1.7914974323353814
   197   1      23.043298100202676      20.577255555179427      36.050022782435363
   198   1      24.309207873438613      21.709299006739407      1.8601607133324594
   199   1      23.151033111046555      22.867194490236479     0.03475840094896511
   200   1      24.242865346111294      24.344663409926017         1.7902786909813
   201   1      25.487143274159617     0.13104050603797623      3.5377471479288158
   202   1      1.3672518765276904      1.1911221052628387      5.4008332731154951
   203   1      25.521429878336416      2.5650652763871169      3.6205233416990867
   204   1      1.4003202543339088      3.9337407151731449      5.5097116120742662
   205   1      1.2148736297347036      6.4258826320261138      5.2784295587377068
   206   1      25.194120924457781      7.5746731591200058      3.5446632987413733
   207   1      1.2390388094592772      8.9881191616410678      5.3219052328884251
   208   1    0.039908125415246833      10.196931865870082      3.6451845663372282
   209   1      1.2722064695071382      11.667623921236727      5.3357083942581651
   210   1    0.039569170018963339      12.835192735672466      3.6023885540960796
   211   1      1.3291091843337608      14.152554547453368      5.5434037515152088
   212   1    0.049107451347498096      15.374289945185565      3.5924646896227506
   213   1      1.2071221077647205      16.759821315958376      5.4264116283980259
   214   1      25.460986607085136       18.07260544809775      3.5204952260095741
   215   1      1.1740519232019089      19.226740654841084      5.4984043497976538
   216   1    0.042007512535174422      20.570565660789523      3.6230886230929205
   217   1      1.3909383714411561      21.795931685112709      5.2907625893843875
   218   1    0.090509877465190847      23.062854104962938      3.5900325885320736
   219   1      1.2727703351999522      24.436196891355461      5.2448221113650941
   220   1      2.7939128332141179      0.2392974484280225      3.6203267214101107
   221   1       3.845377761115004      1.4127871674201959      5.3936879849914368
   222   1      2.4637743530466145       2.687681772741763      3.5749075914834387
   223   1      3.8272292124666141      3.7982936521788941      5.3099245653291627
   224   1      2.6744434118066569      5.1775103711100741      3.5228104337128117
   225   1      3.5506096557942515      6.4272989196049659      5.4649139612690556
   226   1      2.5124194023578368      7.6268690956690044      3.6506761025499532
   227   1       3.823107601690102      9.0901237681540152      5.3597888329300103
   228   1      2.4056662017558446      10.331689706111444      3.6442476086260074
   229   1      3.7577864830579104      11.520996786667137      5.4568629407868059
   230   1      2.5359376579824939      12.830052740224163      3.5375324766569411
   231   1      3.7801511092529223      14.146714411144153      5.3836696517366258
   232   1      2.5092160870461599      15.300708666824002      3.7204598099383794
   233   1      3.7817427298827346      16.819740057455995      5.3653880988168874
   234   1      2.5936983897863719      18.017993860977004      3.6376526884727611
   235   1      3.8710970029569234      19.357680530294704      5.5392794187456555
   236   1       2.620708880308587      20.520334152647433       3.639323474860698
   237   1      3.8548916074218842      21.878416653955203      5.3433995763725664
   238   1      2.6036866580873221      23.162729955030354      3.4126529084347683
   239   1      3.7526554850270393      24.440432990578113      5.5224034386692722
   240   1      5.2154087915825249      25.459153114983621      3.5230969896094404
   241   1      6.5166947852250825      1.2709428142581118      5.5223278896788059
   242   1      5.2410304596562236      2.5843997344628202      3.5895904890497481
   243   1      6.5602086456415911      3.8799466279058294      5.5093042356433974
   244   1      5.1457970380417093      5.1079965012943065      3.7463435803772769
   245   1      6.3396117196819919      6.3605697033431996      5.6561400458392095
   246   1      4.8914223115777666      7.5134526048386681      3.6675411001588172
   247   1      6.3425448523741439      8.9558485115329098      5.5114113671622844
   248   1      5.0381998153293965      10.233687739880386      3.6829931395769768
   249   1      6.4440974770167507      11.521339180026784      5.3402294863006494
   250   1      5.0565112964169678      12.830622589837052       3.698857762496321
   251   1      6.4703120295432965      14.062241060657058      5.4337836367433443
   252   1      5.0652278438342018      15.357752903254879      3.7978032642238397
   253   1      6.2537265765319701      16.602474374693724      5.4160726876906784
   254   1      5.1504684470323259      17.830668837532183       3.413685705453041
   255   1      6.3378839009765757      19.160242441236207      5.4263112485338798
   256   1      5.2382235601132248      20.320574480870899      3.6361088020804173
   257   1      6.5057129361106201      21.971074920057248      5.3841482765959672
   258   1      5.1108437841324834      23.084401067980245      3.5606978990032299
   259   1      6.2445098230685039      24.366023454908785      5.3064785896625102
   260   1      7.6770794265292182     0.08244273973671537      3.5710655332967582
   261   1      8.9399535642941306      1.3715522170589944      5.4922468889098734
   262   1      7.7260038436217027      2.5729528247626754      3.5911104954461384
   263   1      9.0033561941562059      4.0593686445141275      5.5809015958710395
   264   1      7.6594911152716927      5.0859287612228989      3.6194835960993941
   265   1      8.8900076050971553      6.4271598302074651      5.4241047130061206
   266   1      7.5196244271559287      7.6556309239601852       3.670658622201397
   267   1      8.7748496002531411      8.9443486703387123      5.4290943409511296
   268   1      7.6484188176643224      10.195521239017674      3.6483442136259758
   269   1      8.9028814577693041      11.390270336794529      5.4981716319670877
   270   1      7.8104210523186381      12.703490222492254      3.7413005571774933
   271   1      9.0157678360012738      13.866527044536372      5.6022272524098744
   272   1      7.6060587925767038      15.529482198651163      3.4788161743132622
   273   1       8.811326022553704      16.539081633137805      5.4799029312214831
   274   1      7.5908230110069237      17.992685534136186      3.5187512383786395
   275   1      9.0248637394306215       19.02348189629237       5.563085501767695
   276   1       7.734732443815826      20.546050537219088      3.6422778759518906
   277   1      9.0063130531673909      21.720410990536816      5.5072590520010367
   278   1      7.7965035958002451      23.056914975442961      3.4986738925077461
   279   1      8.9908195997886846      24.301367570867956      5.4719144564304978
   280   1      10.265061797497598     0.12976695450232831      3.6888026731486647
   281   1      11.462537318870131      1.0592415156525816        5.53929729039191
   282   1      10.099473335565177      2.5600520138906302      3.6837677940326023
   283   1      11.484384713645687       3.796647350607838      5.5164710673063286
   284   1      10.210231595740845      5.2931146890414356      3.5890543251993341
   285   1      11.540036983372611      6.4760115059533305      5.4526696522756612
   286   1      10.094337976393483      7.8182170806574742      3.6323812161771256
   287   1      11.330902226602397      9.0336627015469713      5.5795502931770065
   288   1      10.102855677539978      10.203083987775843       3.682766791851583
   289   1      11.487684049069804      11.543419235073824      5.3747721172623262
   290   1      10.366825678999831      12.697000680301979      3.5411553013326982
   291   1      11.422234377069318      14.148269487008424        5.30222430990242
   292   1      10.078004685172163      15.212069349583572      3.5296415558802336
   293   1      11.554028904358914        16.4636536391052      5.4540089520723933
   294   1      9.9811559470337503      17.671546523750532      3.6123999360771943
   295   1      11.412348010785726      19.183678706346125      5.4670615385974539
   296   1      10.236383744809453        20.4098754718622        3.67116726735718
   297   1       11.48555676795411      21.632682730622918      5.4699070514941655
   298   1      10.243214669828085      23.042987119082433      3.5382030571526446
   299   1      11.698395506878704      23.973795269770232      5.5129056206139149
   300   1      12.690761262466049      25.454044561876209      3.7442037170686042
   301   1      14.125685607094464      1.2660893919653557      5.5375180665376265
   302   1      12.628488280698413      2.3593032543098418      3.7474808619988882
   303   1      14.185128383031632      3.8318567070764131      5.4207780263773309
   304   1      12.679859434293318      4.9675535145818763       3.666330183163049
   305   1      13.965986711366346      6.3023697107769472      5.5822165500786678
   306   1      12.726047810322488      7.7198530831438585      3.6643002586602269
   307   1      14.034660292885217      8.8821871235493166      5.5265745313859487
   308   1      12.560418352468526      10.159103489658902      3.6240759013983044
   309   1      14.008719585416765      11.341702616021687       5.309308890074993
   310   1      12.807050586662257      12.709903308595601      3.5443757803154878
   311   1      13.889298931343834      13.995716912013048      5.3517876257059918
   312   1      12.676886392935076      15.351429910708365       3.408276218989807
   313   1      14.009030162380862      16.485613917397426      5.3827018681854426
   314   1      12.622224993719874       17.80733503026028      3.6162812581269277
   315   1      13.994099224654581      19.079864084084814       5.413310975543193
   316   1      12.764975127562113      20.372311348110596      3.6058320974627338
   317   1      13.972611463730955      21.568932371562319       5.279016440224706
   318   1      12.743163450887563       22.99737265933917      3.4845790657458808
   319   1      14.068446953218828      24.246317575722216      5.2523538894836355
   320   1      15.382294036638992      0.1462009932942413      3.6474403927992123
   321   1      16.677946462823343      1.4543949920876638      5.4657324766951296
   322   1      15.424665087685785       2.709358348456592      3.6780484629947567
   323   1      16.724465487372914      3.8700842322376356      5.3884175427579315
   324   1      15.359643962984237      5.1281447900550612      3.6842777635223003
   325   1      16.554384953926593      6.3680110805341554      5.4790091352086217
   326   1      15.096656943967176      7.5266867781923272      3.6862054627711762
   327   1      16.641441945064976      8.8197157529199011      5.4618875617588536
   328   1       15.10080773930558      10.017626306377785      3.6756099733264063
   329   1      16.682863048143673      11.464959822392975      5.2712251040042233
   330   1      15.330382986262867      12.826587781552155      3.6098726426284888
   331   1      16.514419304836903      14.058546048832817      5.4920052324346234
   332   1       15.38532257808966      15.365323996798173      3.6154979516443002
   333   1        16.6637484543432      16.621790533481928      5.3950656343491632
   334   1      15.168748308745586      17.804140997842218       3.554122857960873
   335   1       16.57004011284026      19.230776736413407      5.5693415146337726
   336   1      15.286811119349048      20.305426647153077      3.4345067280388548
   337   1      16.568165668769197      21.707443052694945      5.4031163129521014
   338   1      15.485211545034511      23.049607146039925      3.5791615576701372
   339   1      16.641109999216699      24.361402154961525      5.3516020214477891
   340   1       17.90354718157808   0.0021791134703730564      3.6200809982940108
   341   1      19.140153732198637       1.350117366831258      5.3902086181834079
   342   1      18.107285206172463      2.6017314049162494      3.5558367217613989
   343   1      19.147119979404081      3.9541064095201004      5.4471000467027411
   344   1      17.879534281860025      5.0692722425902659      3.5676558904511917
   345   1      19.118983289369353      6.3250011826326196      5.4021011542992188
   346   1      17.854963993302849       7.614769200743158      3.5848225403811962
   347   1      19.259808351962494      8.9661839748423642      5.4965580046295619
   348   1      17.874627168262709      10.138278961078941      3.7032467162037945
   349   1      19.230533369140424      11.610323554951727      5.4131809634453329
   350   1      17.930354841532292      12.721536084891719      3.5052327797343095
   351   1      18.902875466860426      14.162948735971899      5.3539236433013393
   352   1      17.812231454135453      15.191768056393336       3.551371444185738
   353   1      19.192854687835222      16.596916531006126        5.27322769872801
   354   1      17.819820879565011      18.054101676186598      3.6305514579176212
   355   1      19.111228480591276      19.127725758582443      5.4197075753272044
   356   1      17.878040426573264      20.555071402230606      3.6720346243724395
   357   1      19.104330928922074       21.74689698574489      5.4987519551597934
   358   1      17.901966656443058      23.075036889153751       3.575853075862129
   359   1      19.179547253875281      24.244301611310405      5.4322307047659129