dump/Cu_400_5/steps_41 (written by ASE) 

1995 	 atoms 
1  atom types
0.0      25.526554800834361  xlo xhi
0.0              25.5265548  ylo yhi
0.0      36.100000000000001  zlo zhi


Atoms 

     1   1     0.13482120842082718      0.1833341025136539      36.081913403764155
     2   1      1.3285641651126192      1.2982385119479229      1.9492211185190749
     3   1    0.040507890191448702      2.5454423893345854     0.07989634591763202
     4   1      1.2161598697376956      3.9321625881421038      1.8187466135693182
     5   1      25.470381266980421      5.1674658135264684     0.08084994186330044
     6   1      1.3450753481598581      6.4299836820794374      1.8053885545824064
     7   1       25.44543624958564      7.6708087031617707      36.099560195587031
     8   1       1.291171028775465      8.9154668535052277       1.687152109398788
     9   1      25.525183244471148      10.370299850174309    0.035193552609132428
    10   1      1.2460148999698892      11.589379643332952      1.8544844215637579
    11   1      25.442542776753744      12.988663499796335    0.034143458193659645
    12   1      1.1748143286962101      14.233673415424455       1.772939790701004
    13   1      25.349047860196279      15.352463866602715      35.886856112644459
    14   1      1.1754399684510721         16.671542412352      1.9146430116918414
    15   1      25.506878157104133      17.811723883722312      35.952225738465089
    16   1      1.1330785769904297      19.099659309240565      1.7486215455847969
    17   1      25.448102584914928      20.439387216521034      36.099693598186398
    18   1      1.3173653651954178      21.767622575059995      1.7837966297014742
    19   1      25.450729229645617      23.028463359637907     0.10450013953934571
    20   1      1.3326969272945008      24.391054760665646      1.9880291069725435
    21   1      2.6453000800093469    0.089466665390519687    0.075241365517149522
    22   1      3.8208294433005059      1.3296351981157142      1.8558338999917503
    23   1      2.3539029628731147      2.5691988784811484      36.076938205391812
    24   1      3.8863382626137084      3.9627578050184926       1.669298260807683
    25   1       2.390472055260128      5.2368818859230126    0.016154477872089498
    26   1       3.941923211311837      6.6921772638846235      1.8310274327750897
    27   1      2.5334351799994321      7.8131450558552213      36.096889122924068
    28   1      3.7004369861425488      9.2017463411803391      1.7710550455366834
    29   1      2.4671465795026326      10.497795814640183    0.069441097772687463
    30   1      3.8963719437106112      11.709045971764112      1.7736052270462535
    31   1      2.5012719092429565      12.888625283746299      36.051579674285641
    32   1      3.7047682854183077      14.249227728256974      1.8305846680723459
    33   1      2.1720396045609918      15.422085927211636   0.0097943877423176812
    34   1      3.7795650563518617      16.702286676047692      1.6342819970763125
    35   1      2.6726980857467111      17.955146395373486   0.0065499999733447216
    36   1       3.628099562691514       19.10487985611649      1.8606924704931216
    37   1      2.4925490207785268      20.500262425262274      36.093631670329366
    38   1      3.7618713646534334      21.665168557921366      1.7869830858939855
    39   1      2.5585823858046246      23.019828160062268      36.046222756040507
    40   1      3.8033209794256866      24.207570344746077      1.8567520264619133
    41   1      5.1993781036405471     0.12021671530529236     0.27061021620596637
    42   1       6.408367023601806      1.4591946339777846       1.914157916575117
    43   1      4.8766802773411504      2.5623936666994633    0.018472784080745434
    44   1      6.2629445811519249      3.8708065705567809      1.7650437445131391
    45   1      5.1949254363699913      5.2988216965322223    0.062937296638722356
    46   1       6.565763932849884      6.4774639071454825      1.8101884882801762
    47   1      5.1367205380190395      7.9295712221308694      35.939930018491388
    48   1      6.1231236112507785      9.0958503960045736      1.7042017240340688
    49   1      5.0022931356002749      10.346809305413402       35.89202004808039
    50   1      6.3505693288784748      11.476129041463667      1.8518194829753394
    51   1      5.1205849671056241      12.893578920230979      35.984475269815498
    52   1      6.3273763229301503      14.116396778354869      1.8542057172355935
    53   1      5.0846544902246524      15.446740015894198      36.046102413315253
    54   1      6.2287261468530364      16.626623070679766      1.7331779415056638
    55   1      5.2305118177994174      18.099005176027649      36.087406502186184
    56   1      6.3212302990174276      19.006143474426796      1.9216693952167807
    57   1      5.0928415463128589      20.415024020328108    0.086436179986492515
    58   1       6.362230622083473       21.62661363783403      1.7894853478731665
    59   1      5.0147629125520465      23.148204925690862       36.09553608898532
    60   1      6.4143350170033679      24.327606672294007      1.8175621356162897
    61   1      7.6328367122876912    0.015527806121841263   0.0052741172739502046
    62   1      8.8947638600255061      1.1494054632125912      1.7893687781100214
    63   1      7.5920163926685378      2.4627074585382638    0.022513037675184949
    64   1      8.9522554808117611      3.7929458341371514      1.7197937696120218
    65   1      7.7028457307785478      5.2195226292257306      36.049109397947191
    66   1      9.0531695687704676      6.3786259273509636        1.89748509340419
    67   1      7.8118776056704027      7.5479360596684897      36.006713537542787
    68   1      8.8663761451208156      8.9834896055600133      1.6993136250669065
    69   1      7.4160539517710831      10.202639200695693    0.051420798184062831
    70   1      8.9305621573053937      11.558686216783221      1.7608670564951814
    71   1      7.6029033845210865      12.755045210358496      36.015942032200677
    72   1        8.75490567926966      14.007637532450822      1.6811496071687988
    73   1      7.6323138236996542      15.405490554765789      36.047505549181963
    74   1       8.945189018389982      16.630742083405028      2.0011133285911802
    75   1      7.6320652235017405      17.852445581345918    0.032643047934925576
    76   1      8.8285600560593185      19.107327532308794      1.8799316163611122
    77   1      7.5447366205446684      20.407950175534356    0.088713892625901236
    78   1      8.9860309986492517      21.656574465580579        1.81461680569921
    79   1      7.6057266658417984      22.963613345107259     0.01637725573267516
    80   1      9.0504246325630042      24.279410492296702      1.7042786999033879
    81   1      10.241917825531365    0.052816305488777998      36.023049673298594
    82   1       11.67686681518998      1.0118341763106078      1.9392127706624354
    83   1       10.11076174997738      2.4846909955506788        36.0663562371276
    84   1      11.587717753131708      3.6105653788656356      1.6760956996016723
    85   1        10.2607903421067      4.9677144784441865    0.090610311247758146
    86   1      11.617163549383834       6.306449234960585      1.8696034569549733
    87   1      10.376477469672158      7.6488319843256676     0.28483710840181392
    88   1      11.539457493608474      8.9727828403704173      1.9375218565375472
    89   1      10.181734499858191      10.006269169298625      36.068984858180613
    90   1      11.444301869937565      11.454081487457014      1.7265381265399229
    91   1      10.251063198006932      12.995649663722808     0.15255243677057717
    92   1      11.443192409965388       14.27817133558092      1.7997713675949274
    93   1      10.153755388832497      15.372955755017097    0.037989152296461146
    94   1      11.456744206527803      16.653593260560289      1.7841243575779566
    95   1      10.055864359362051      18.019569989624376    0.015746335481696853
    96   1      11.445092123906333      19.299600938780294      1.7609367417314064
    97   1      10.172467492145367      20.387217804193554    0.011006777188811153
    98   1      11.576464516119463       21.74668323118356      1.7701000363377504
    99   1      10.243826715707382      22.988288989152871      36.079284583681009
   100   1      11.537428493341411       24.16280915046929      1.8169520199413811
   101   1      12.722365008016743      25.412960354176651      35.942977561842653
   102   1      14.338869841370808      1.2725389319163825      1.9211543927852739
   103   1       12.65593066696106      2.2782447813023459       35.98419724427179
   104   1      14.051976043196664      3.6959874285294156      1.7786437004177846
   105   1      12.755614435995536      5.0447514830331848     0.19396823012539252
   106   1      14.063931697537935        6.34129869442667      1.8493220787710818
   107   1      12.868741982483574      7.5517999984502433      36.087022202926718
   108   1      14.110695210252278      8.9215257958754801       1.742502629346167
   109   1      12.717877885444659      10.054664312190651     0.01929602080830365
   110   1      14.040959160451893      11.716095706090918      1.7532054397095735
   111   1      12.745574196436902      12.801322786047077      36.069370210113732
   112   1      14.087871355284129      14.161058259229122      1.8532306122295601
   113   1      12.922310134574046      15.375944856018528      36.046995904393867
   114   1      14.031851137995114      16.608983735690629      1.7504028110046754
   115   1      12.591487653218282       17.90805472028898     0.15256241793333625
   116   1       14.15728669063032      19.170376151920543      1.7195901757969294
   117   1      12.912044080543991      20.411899343803956    0.059401570877707768
   118   1      13.942873350473883      21.756220748833019      1.7656896695318542
   119   1       12.69494763648305      22.931978486130241      35.867025404632912
   120   1      13.977604234044781      24.280725279868147       1.840272818656127
   121   1      15.302278150498147      25.473269180911217    0.075494457970580617
   122   1      16.640904473443332      1.2631495358280551      1.7025497027989798
   123   1      15.250915432809336      2.4553398016032921      36.035421725832947
   124   1      16.490253970764794      3.7118915617851278      1.5818372753251195
   125   1      15.266657491423874      5.0029617953481296      36.011287148236164
   126   1      16.540434077293884      6.3261427916139894      1.7788870715756404
   127   1      15.422236968806493      7.6650784717258604    0.074255677901464784
   128   1      16.743378265278142      9.0256318910243998      1.6425376498163577
   129   1      15.349367691663987      10.263398865982571      36.044928419590569
   130   1      16.540049634766095      11.443269393485576      1.6504644204155641
   131   1      15.267813029242223      12.868821934577635      36.035593372823847
   132   1      16.523845425544526      14.135082859192659      1.6794641100592111
   133   1      15.347127992699845      15.278702359573265      36.010750500199002
   134   1      16.579178024530663      16.657492610274407      1.6262619188630649
   135   1      15.141391100726723      17.851048865184065      36.078107152852816
   136   1      16.579116983989447      19.179346387226346      1.8413782213804115
   137   1      15.397222554710858      20.528532000694895      36.063547499594499
   138   1      16.530188889669649      21.694815209741417       1.838804044878146
   139   1      15.266570543647923      22.940517494564983      36.054248137335279
   140   1      16.508988535795066      24.172594513117641      1.8773859341419892
   141   1      17.791908111254958      25.484464278606968       35.96704498193575
   142   1      19.104004977760429      1.2453364364821007      1.7028605632191327
   143   1      17.902892646443139      2.5678940946305464       36.01407341683089
   144   1      18.997629744872675      3.9394107019040345      1.7307968177422817
   145   1      17.904219400534398      5.1468570348675744   0.0023182157790301978
   146   1      18.959669264561366      6.5017943904727931      1.8898300972664079
   147   1      17.881909939226645      7.6861133651442248      36.046219326067863
   148   1      19.206573713610535      8.9765914060614307      1.8422429207192992
   149   1      17.979496487189849      10.190982854134486      36.027627842057164
   150   1      19.153970864944348      11.336013020597171      1.7330714446235904
   151   1       17.86690987662282      12.833033901956087      36.062346395610568
   152   1         19.201467954717      13.924195806135227      1.8494080421648607
   153   1      17.933211681591654      15.286240593640228       35.90867667810803
   154   1      19.119274430548785      16.542268715450216      1.7123879262510748
   155   1      17.921437054792879      17.729024537365131      36.006419068856907
   156   1      19.183164585906539      19.096123983617847      1.6134873357975708
   157   1      17.795755216136875      20.452192104519057      35.978143744311005
   158   1      19.057258389004868      21.647585260446366      1.8163907657974385
   159   1      17.749202435847003      22.958957689462075    0.060998589206098894
   160   1      19.002672513679666      24.175670999385272      1.8937941659285815
   161   1      20.363302599614372     0.10989760014768538      35.958073998579415
   162   1      21.775465334664613      1.4257948480653393      1.6675624749763545
   163   1      20.398710814198008      2.5168657665736025       36.08182451863447
   164   1      21.804761121974714      3.9056498841431888       1.714710474460365
   165   1       20.25706065809376      5.1299635832904036     0.11671703738587651
   166   1      21.660215798518117      6.4065473299723878      1.8855748996255315
   167   1      20.376072168254101      7.5836865390737715    0.080996406078998107
   168   1      21.783078125217394      8.9346837180606133      1.8467884413931404
   169   1      20.550034074789792      10.158205094684257      36.064436231609875
   170   1      21.669255262443642      11.516448074968107       1.674293335535014
   171   1      20.244903774224674      12.676031282031408      36.051894976852878
   172   1      21.620477402788904      14.079664328788265      1.7331725692906619
   173   1      20.318003458393356      15.292467894230407      36.006262810341994
   174   1      21.661060233962132      16.688882655701999      1.8422499682093987
   175   1      20.458146976215613      17.819853478471504      35.976937212696534
   176   1      21.601159019890453      19.121508197851551      1.9135287203928215
   177   1      20.486569614876736      20.443391737053492      35.910622210161996
   178   1      21.663917282407773      21.811547841957886      1.9026184060420643
   179   1      20.213226912017689      23.199169801184542    0.099845841969954566
   180   1      21.710516301232307      24.395365142993633      1.8892912218774649
   181   1      22.992795324061529      25.480484291097831      35.997358785968132
   182   1       24.25998847877738       1.158683306905564       1.837160492069289
   183   1      22.939920827031358      2.3897690270881542      36.063809850069177
   184   1      24.156506836898124      3.7184130790831658      1.8815106324345372
   185   1      22.968147963719137       5.191825289362022    0.071973634235394005
   186   1      24.205715450668205      6.3595797796372597      1.7752342834739141
   187   1      22.918223617714006      7.5684644111764303  0.00057177129738192746
   188   1      24.372196741411575      8.9302295431983847      1.8438563052544952
   189   1       23.08226368985494      10.298867011005992    0.031741647736123473
   190   1      24.232558572099499      11.516307366804849      1.8021527416424288
   191   1       23.01086908041384      12.897017917365373    0.024861843037831489
   192   1      23.988213094271284      14.078963698696786      1.8747766427374912
   193   1      22.886766300608567      15.343872699833621      35.994880567233487
   194   1      24.199897229724865      16.628600769942718      1.7171259335818938
   195   1      23.001602232495692      17.879211726647966      35.915324475624423
   196   1       24.05447419293278      19.117721282626103      1.7610997939597144
   197   1      22.903900636141781       20.36538082980773      36.086663528660715
   198   1      24.111884235427258      21.665308517806956      2.0251947648699558
   199   1      22.798364253438976      22.974442504029827    0.089438676452130147
   200   1      24.003480399569497      24.263151022151412      1.8245539468701069
   201   1      25.394368068672851      25.505544483136905      3.7596493848959307
   202   1      1.2410526471450776      1.3911375962540571      5.4742965993350055
   203   1      25.435078452625209      2.6343512181399604      3.6326550098531771
   204   1      1.1841688325357869      3.9391095683739534      5.1612184097644578
   205   1      1.3531793921690161      6.4415695293049575      5.1548248336559048
   206   1    0.076439270582757457      7.7360569218564974      3.4945436611853453
   207   1      1.3455765543541465       8.971229880143536      5.4277866772206655
   208   1       25.49861699894668      10.302961242235838      3.5631653136055998
   209   1      1.3678978342853454      11.382212442933065       5.511470983658465
   210   1   0.0015273877184783218      12.951765698847124      3.6597649738451645
   211   1      1.3773379078500656      14.039506749969933      5.6474865144836244
   212   1      25.472891372410963      15.359431493774089      3.7221901560464747
   213   1      1.1070606667418805      16.623375974536494      5.4801616173468419
   214   1      25.396380563892553      17.884541097526181      3.6483067886149687
   215   1      1.0217799717999878      19.291463144928038      5.4778273858876538
   216   1    0.079848458933819186      20.488711093715061      3.5426006320818035
   217   1      1.1169420514183359      21.782299241802956      5.5434524998224264
   218   1    0.025565954565755469      23.002875683498871      3.5967832937723747
   219   1      1.1489428563158268      24.359737392642558      5.3967046197313762
   220   1      2.5263555730326011    0.071693026317480563      3.7555247438719426
   221   1      3.8541127299575937      1.3604377581028702      5.3892089864417434
   222   1       2.432922690048605      2.6616534139756647      3.5324095771419128
   223   1      3.7024601741854171      3.8468906347047853      5.2120832827295995
   224   1      2.6392216438977019      5.2057936681976962      3.4158670421134616
   225   1       3.912095085801286      6.2715950127732381       5.371480374514034
   226   1      2.4938752409711107       7.840839579443645      3.6656282400898061
   227   1      3.9297057138370417      8.9582456386960452       5.420306385903503
   228   1      2.5085365372925623      10.432271883867138      3.5986607497441359
   229   1       3.895241361585128      11.485822056011932      5.4211629831148516
   230   1      2.5901290373762622       12.91391888166539      3.6568803500696521
   231   1       3.799827846540369      14.030590358850555      5.4854155885303406
   232   1      2.3998290100293347      15.375450853857814      3.6466978595302466
   233   1      3.7683679713999521      16.502539311660854      5.4181560667647597
   234   1      2.5768167961401458       17.88660280607937      3.7108245994324278
   235   1      3.5962657698506706      19.126678818918624      5.3020654901573723
   236   1      2.4583796451173781      20.508407414569653      3.5481431336747749
   237   1      3.8157615112936565      21.750167898585183      5.3863626574334527
   238   1      2.6008995124208658      23.002637308502099      3.6230240034301247
   239   1      3.6216040624902841      24.362966470061117      5.5545360138334585
   240   1      5.2731855510144596   0.0075567802072201273      3.6193274415247858
   241   1      6.5458726209300497      1.2953119455240845       5.251424291559486
   242   1       5.074832944876869      2.7192669426171912      3.5984148834361589
   243   1      6.3329692478154902      3.9791050006875741      5.3775431217864487
   244   1      5.0960563753313455      5.3289065401670914      3.3940970447886682
   245   1       6.414294457260314      6.3981114574095921      5.4155189368458325
   246   1       5.307659662284868      7.6701668484380976      3.7123936147747796
   247   1      6.4930953584958386      9.0063841135808804      5.4419300880643844
   248   1      4.8939260284852901      10.359616472087966       3.588901412486178
   249   1       6.432540313206415      11.488662800503626      5.4909522594603919
   250   1      4.9187107753091448      12.897951373528031       3.606796179050606
   251   1      6.3039525362463431      14.019513477055336      5.3067817138474647
   252   1      4.9694010302389442      15.336002741566976       3.590984097972342
   253   1      6.3764701208987873      16.616964888694415       5.477989048243737
   254   1      5.0488480083780081      17.822551967220999      3.6366036295901649
   255   1       6.410885793126738       19.24933982765242      5.3889896598376223
   256   1       5.141582778897547      20.423985085092642      3.6550364397584394
   257   1      6.5146920624022346      21.628768285378985      5.4062951833326958
   258   1      5.1308114222993728      22.896790878889242      3.5942274067870934
   259   1      6.5712236415162213      24.272350286722773       5.410655142192895
   260   1      7.8512200383945636      25.490560059962437      3.5584061642395124
   261   1      9.0474412690960477      1.4023504549870229        5.36122544630667
   262   1      7.7550907939268381      2.5553629274864798      3.6237834481882647
   263   1      9.0773532598747178      3.9120184944039798      5.3960855307896196
   264   1       7.780561106628257      5.1019622825210078      3.4708548681786833
   265   1      8.7767581218535256      6.5682109582294697      5.5868235751240931
   266   1       7.745130505655319      7.7230428919194543      3.7113484295462222
   267   1      8.8460659056548501      9.1164814593655183      5.4873951007740587
   268   1      7.6476132065155173      10.136295921604619      3.5226572688194455
   269   1      8.8936496525213133      11.569581174412075      5.5176526009899414
   270   1      7.5713689522276288      12.790599256806539      3.5658625848770056
   271   1      9.1395043806559286      13.862169676989247      5.5064308444471788
   272   1      7.5437677759374644      15.371633686119338      3.6668648280961791
   273   1      8.8968198956057289      16.629175755066289      5.5867907636081799
   274   1      7.5933878038546379      17.806216541783975      3.5456378592366269
   275   1      8.9887698019810358       19.09788913491818      5.5397469372636143
   276   1      7.5955106705249822      20.448617765089633       3.520938047705886
   277   1      8.9661442687555759       21.66335775600637      5.4189929904762577
   278   1      7.7341774417684706      22.938368326772768      3.6194978769869111
   279   1      8.9678712810236778      24.081673797202068      5.4583178946697322
   280   1      10.253235653705152      25.315684806346511      3.6568892467376886
   281   1      11.576017971480887      1.2017698953231526        5.50315013159332
   282   1      10.290596128771952      2.3472596942230881      3.4820431731883446
   283   1      11.548513682900845      3.6918060975353999      5.5331698108773324
   284   1      10.403169694832838      5.0409828141505368      3.3527369221178227
   285   1      11.534620674498104      6.3687105716646339      5.3649000676471417
   286   1      10.172224706914072      7.4850268960158699      3.6845609563348529
   287   1      11.619166654485705      8.8483842618643145       5.433208417160845
   288   1      10.224348265071265      10.252811170595054      3.5749163112362354
   289   1      11.497810437375973      11.428023370791699      5.4480072257214998
   290   1      10.171966492233409       12.80798854097581      3.6356318035548103
   291   1      11.590954306649557      13.961483558986025      5.2951032138045644
   292   1       10.13001310838259      15.414973750884988      3.7034489194243392
   293   1      11.605485062359961      16.483273883464651      5.3988475907714717
   294   1      10.357063611915578      17.756791191498909      3.8669477935736332
   295   1       11.57779804833028      18.892701321130783      5.4907962836355466
   296   1      10.297685576693315      20.307617268659683      3.5784441910801204
   297   1       11.41070669395018      21.553428576849445      5.4597825358335115
   298   1      10.171925288090968      22.988981617473758      3.6275468134221147
   299   1      11.498026175938499        24.1329165785342      5.4880645920635178
   300   1      12.821928592610096      25.334230144454896      3.9176239644605504
   301   1      14.111675543452105       1.297966540915565      5.5553202481124027
   302   1      12.774287040949242      2.5129572485875782      3.6190810863370353
   303   1      14.228880804912192      3.7852926927676371      5.4035778586658925
   304   1      12.882419878475249      4.9669493540232965      3.6022257914321822
   305   1      14.190267920002398      6.5551615616856989      5.1959864756720906
   306   1      12.703671558791036      7.5805331743834108      3.5364806780201898
   307   1      13.939878801479447      9.1040301632615268       5.573863078606105
   308   1      12.806176034079249      10.440241712788801      3.5742224319623794
   309   1      13.928276251748922       11.74195652467092      5.4666438686247538
   310   1      12.814450826391043      12.849228463617013      3.5739994848694443
   311   1      14.142607560545239      14.154591850530492      5.3542574106365386
   312   1       12.77347801977491      15.340088526013918      3.6340834245329536
   313   1       14.03162886917862      16.658978172768819      5.4062121639990188
   314   1      12.876805796089824      18.073278904138608       3.515282918287721
   315   1      14.215596432572156      19.231876871023676      5.4977500822129848
   316   1      12.835728339431048      20.469582876604306      3.5613862958548248
   317   1      13.919387312459611      21.742647040561543      5.4126789015367764
   318   1      12.714573683696672      22.967718420626088      3.6236422850225649
   319   1      14.031769500121705      24.140451757976066      5.5940204306950525
   320   1      15.381314381795251    0.037289029156328798      3.7997448985655895
   321   1      16.566727380249063      1.2821180825040182      5.4057856512861191
   322   1      15.381528149247426      2.6612778288481946      3.6696595237581371
   323   1      16.739639583648056      3.8405661701628508      5.4961008671691518
   324   1      15.427074939266662      5.1063334476867412      3.5672513220297097
   325   1      16.588697690827583      6.3720012213668458      5.4183059157342095
   326   1      15.400480668676098      7.7525112149022357      3.4316736014891722
   327   1      16.538246048872917      9.0978540788315616      5.3400211652906471
   328   1      15.291160008051751      10.210576510157777      3.7001325989265057
   329   1      16.664136264103114      11.665521124163901      5.3609578049026885
   330   1       15.35674478671084      12.863185122565122      3.5282402359585254
   331   1       16.83231078991378      14.164385851829671      5.3333768291760251
   332   1      15.216706880151433      15.433823110484806      3.6908689995158235
   333   1       16.82983880696958      16.831369865871686      5.3647845684248203
   334   1      15.454139856091254      18.013665022997067      3.5343797661339176
   335   1      16.706880222815052      19.231946087483582      5.2674610043467025
   336   1      15.280132330207465      20.521322295886286      3.6155722856954386
   337   1      16.528101295147728      21.662900274292102       5.412895009192594
   338   1      15.180810483492882      22.872141526658748       3.642580180635294
   339   1      16.368100314573965      24.266219275272235       5.497038875167525
   340   1      17.765212171047658     0.15975277692765247      3.5854652376606526
   341   1      19.162010681297769       1.116121704210042      5.3887075445428874
   342   1       17.68480830020652      2.6321183262229466      3.3880756299046637
   343   1      19.134374277213851      3.7389011018005847      5.3217431801262185
   344   1       17.82195577253411       5.123161008853371      3.7392748388916965
   345   1      19.185862306128065      6.3513621989619695      5.4570908153011235
   346   1      17.785670304450864       7.698406221275536      3.6175728612455784
   347   1      19.078612092915005      8.9551952581158289      5.4059413807298711
   348   1       17.86665311108117      10.320025728247403      3.6053598504365372
   349   1      19.267228366906441       11.43951350616747      5.3509317788052746
   350   1      17.879609728587848      12.707287476211301      3.3698958606875542
   351   1      19.197655129865417       14.06764036935361      5.3124052751796063
   352   1      17.745058442674413       15.48696399465628      3.4324753675132356
   353   1      19.129456989267712      16.511397552330465      5.4625486695727501
   354   1      17.925469013702038      17.922673416537243       3.418818429292843
   355   1      19.296087552492509      19.249840938332074      5.4356275081026171
   356   1      17.897820975796133      20.433945055753689      3.6753273436080076
   357   1      19.190817522877396      21.715292032278988      5.3155241727588241
   358   1      17.746270355440846      22.919575993700079      3.5671358433401781
   359   1       19.12965175282741      24.217977984743204      5.2903513968881875