dump/Cu_400_5/steps_91 (written by ASE) 

1995 	 atoms 
1  atom types
0.0      25.526554800834361  xlo xhi
0.0              25.5265548  ylo yhi
0.0      36.100000000000001  zlo zhi


Atoms 

     1   1    0.060753912327097898    0.007093258720325726      35.970571772216324
     2   1      1.1593689307571897      1.3995019589931876      1.7848203227374946
     3   1    0.075424608383720851      2.5552655906518691      35.958635405305394
     4   1       1.164083259972825      3.8055616737760114      1.8009843244325348
     5   1    0.016049601674054986      5.0460593499691306    0.055192709986113218
     6   1      1.2888865079912823      6.3760317574901828      1.7615751214292137
     7   1     0.16807085564824267      7.6275031153003594      36.059108706091699
     8   1      1.5935706029159447      9.0349696822367473      1.7020939386754219
     9   1      25.483883327187439      10.183603084643643      36.065625664955782
    10   1      1.3300219518111362      11.480524341136801      1.9140997745611914
    11   1      25.351824471644406      12.646911907048073    0.035204210311405845
    12   1      1.0766551697976927      14.119434595693443      1.6225229396682717
    13   1      25.377054051079881      15.386632105234474      36.078713233843381
    14   1      1.2004121377728483      16.644291333618515      1.8245765405319263
    15   1    0.066323776596634978      17.768737860285714    0.011217997319124613
    16   1      1.2080593982388965      19.169157909842742       1.643588341993246
    17   1      25.396602793958198       20.26458466404824    0.054680067827757764
    18   1      1.3292890478504167      21.698512663284237      1.8061262477527742
    19   1    0.084073930072006017      22.962596720683919      35.996706250549515
    20   1      1.3711211207313878      24.229314743851962      1.7839612232267079
    21   1      2.6750156571176955     0.17660376699260569    0.011690943494295425
    22   1      3.8227777253426996      1.3724039995052262      1.9591860116613697
    23   1      2.6266817946328702      2.5901684027260545    0.071352851299775449
    24   1      3.6585708868544766      4.0453545554763419      1.9435338599646108
    25   1      2.5454682987913455      5.0822406505731257      36.016015736562615
    26   1      3.9338427911480025      6.4980742411345789      1.6328102829688294
    27   1      2.6416905310630701      7.6300515398212143      35.924051629594558
    28   1      4.0170484854899522      8.8852339404326433      1.7515513838612609
    29   1      2.7743392200773385       10.32024715689624    0.044082086548985495
    30   1      3.8762446076905221      11.497608181380123      1.7328600978778474
    31   1      2.4511467710377111      12.936226646179671       36.09193079360864
    32   1      3.8266439186765395      14.020407814113923      1.7797467284963755
    33   1      2.5341517599590331      15.407130946755235    0.057140967848533973
    34   1      3.9078813205512613      16.715718930275315      1.8535257160323213
    35   1      2.7159280298104114      17.864902884446956      36.031234814092016
    36   1      3.7160855286408569      19.124308531053703      1.7937771750981368
    37   1      2.4825363374334981      20.475587793724475   0.0085470586671703968
    38   1         3.7468094105945      21.644051354750815      1.8138860113973572
    39   1      2.6509666138663821      22.987489460538189       36.08146511435055
    40   1      3.9350653993987668      24.394695930192697      1.8707732190233977
    41   1      5.0811834949082852      25.436286268552081    0.082816877391576227
    42   1      6.3351557544014865      1.2834372155133673      1.9569736023038111
    43   1       4.995681069851436      2.5827358646670993     0.10366321768291313
    44   1      6.4077370811675936      3.7426448434477022      1.7726560395551005
    45   1      5.0884558074724024      5.0209460797643226     0.10511195251602887
    46   1      6.4963528580571017      6.2442535567975392      1.8041936833252081
    47   1      5.2645922585376299      7.5468413334209474      35.982571726310574
    48   1      6.5783866674939073      8.8759876514850209      1.6009910914428487
    49   1       5.340653926255567      10.155313930695627    0.075583444793574178
    50   1      6.2836943427886203      11.371803573210927      1.9849651460517281
    51   1      5.1205570173124508      12.744079223949925      36.046996232622959
    52   1      6.3214180051484608      13.864520898347426      1.9345213199085267
    53   1      5.0461745038308488      15.369972684632382    0.014216388302736506
    54   1      6.4861787241091236      16.549472931129614      1.8372762085295578
    55   1      5.2403082612934124      17.807339477794606     0.11368307238725496
    56   1      6.5632330741014027       19.16397199167643      2.0160254332919538
    57   1      5.1355126398819335        20.3566042443512     0.11485633293386853
    58   1      6.4297370701382812      21.630023833918948      1.8965857015565128
    59   1      5.0853766624227195      22.960317269493704    0.030460616683683394
    60   1      6.4565495552568306      24.238716516067541      1.8921425856990022
    61   1      7.6469235796254234      25.445901549236567    0.038519363580030636
    62   1      8.7772181239111635      1.2074129111602387      1.8423601698619902
    63   1      7.5230616605100558       2.422906912401031     0.13846330418174374
    64   1      9.0594615727033752      3.8738478938649643      2.0491630783532861
    65   1      7.6350059673769222      4.9287626311019324     0.16925721473995747
    66   1      8.9185859302875645      6.3576653546482751      1.7916930460335487
    67   1      7.7057937286632088      7.4116782869982814      36.033199657007998
    68   1      9.1138567439984772      8.8575398286311451      1.7299515596237822
    69   1      7.8348057774929858      10.166770459829397      35.998572445853597
    70   1       8.942452109874095      11.457348299346995      1.6517096037016594
    71   1      7.7118733785299618      12.638482998764477      36.012736563946824
    72   1        8.96368871584699      13.877906429441436      1.8356190636357606
    73   1       7.594284344807301      15.361571466418656    0.052807305241401384
    74   1      9.1409656500817071      16.455271563965475      1.8990058419112181
    75   1      7.7959173151853394      17.808857974214103     0.33047968425362351
    76   1      9.0201320256570856       19.21430080177651      1.7927686948459034
    77   1      7.6381165218932834      20.348795823479961      36.089814784027666
    78   1      8.9609051953715131      21.656651027202837      1.8225702222449849
    79   1      7.6480628677695304      22.885255185984427    0.037843438161553521
    80   1      9.0020143507977579      24.135734592394492       1.655106478117182
    81   1      10.147901854996164    0.034063333131837147      36.080719922338147
    82   1      11.444614905080552      1.4019523563060445      1.6635085015816453
    83   1      10.155126027099737       2.445102840808469    0.090727826311171933
    84   1       11.70016619644554      3.9631629359500913      1.9875781107852719
    85   1      10.120425062049797      5.0192472101150578     0.20732683983258074
    86   1      11.401908374408571      6.2783125840432836      1.9361709399157019
    87   1      10.217104023538568      7.6961823003472798      35.968126026713499
    88   1       11.59869848551183      9.0041081700986094      1.6547647258673459
    89   1      10.285548291067585      10.274173763026194      36.040993525809995
    90   1      11.553261616980041      11.516318875900328      1.8418177817577535
    91   1      10.291823694319534      12.860616687384185      36.090507940492436
    92   1      11.373512329414648      14.096885530047709      2.0148856037702911
    93   1      10.282108967535587      15.352926199750502     0.12251883475521488
    94   1      11.752889999407181      16.639588626381805      1.7365688308827427
    95   1      10.305989972112751      17.896270901282744     0.19710608947232225
    96   1      11.585942566812054      19.172474002184497      1.8165404708567729
    97   1      10.216139958823961      20.310555798213713       36.09022322236023
    98   1       11.52198995116874      21.786089451529779      1.7927615909532286
    99   1      10.375088871318665       22.85289782105523      36.064302649552793
   100   1      11.457699303239831      24.241529189783208      1.6367742582094917
   101   1      12.556618562793041    0.070820358065329603      35.973040562312235
   102   1      14.016504454578753      1.2994978372723587      1.8214774886398575
   103   1      12.760995958629374       2.516348900206717      36.032661835351568
   104   1      14.055620961518205      3.9707924210498846      1.8179110982395408
   105   1      12.721926220666981      5.1456078847712625      36.090464422983395
   106   1       13.82504868152634      6.4456840735838297      1.9149095574420374
   107   1      12.769881593602628       7.619476824616279    0.092907375983031684
   108   1      14.098341332071119      8.9457555121039007      1.9560300774580341
   109   1      12.871884850151069      10.314436812260073      36.033009210363183
   110   1      13.994193197774301      11.565183606921803      1.9149809558136321
   111   1      12.894015172991955      12.942594583273198    0.065345431769071455
   112   1      14.005412032551622      13.931787560057399      1.9336407895203827
   113   1      12.788234904960877      15.296199668803466    0.010015639084826937
   114   1      14.141127503559076      16.467045778373301      1.7650831881888835
   115   1      12.883306566235509      17.813956672028063      36.039335173764421
   116   1      14.077503136039686      19.183594160789145      1.7558313063342219
   117   1      12.733846982971043      20.566542568613762      36.077774986970283
   118   1      14.086016301763749      21.710464156080359      1.7764759776186325
   119   1      12.779825070003502      23.063085174694525      35.999951187805486
   120   1      14.031093586990176      24.165023433501233      1.6482902804660295
   121   1      15.298699547865619     0.14107820725740836     0.12209452683183591
   122   1      16.812916796345831      1.3457361733557422      1.7677897932308162
   123   1      15.374505219823693      2.6631793181456676    0.036508206840244369
   124   1      16.582360214914686      3.9743587648755216      1.8033851510523515
   125   1      15.264195078964699      5.1746274305435493     0.12488201450483988
   126   1      16.382828376269007      6.5906108483158858      1.9399942708139188
   127   1       15.18797227420561      7.7459280343011496    0.057911659989372491
   128   1      16.579427783667196      8.8767228767444237      1.9952750217153488
   129   1       15.31469797302416      10.180053338446013     0.12682547540681527
   130   1       16.42515516438381      11.511731609322162      2.0072981822681872
   131   1      15.265165964696699      12.732326922148324   0.0033116006163822929
   132   1       16.62884804273115      13.991809466299305      1.9443217964941597
   133   1      15.332914946353309      15.162287207355547      36.098787915342058
   134   1       16.70743684512852      16.575534668452896      1.8506292484588254
   135   1      15.453437838386725      17.790047632953961    0.094419457060371303
   136   1       16.60667534636768      19.173852987599094      1.7475637447421715
   137   1      15.312152709511057      20.270185726118662      35.984538934802195
   138   1      16.599403885440061      21.759187232959864      1.8464504725893207
   139   1      15.300648690865668      22.891075406576519    0.048803684087511227
   140   1      16.496074233372713      24.291265634070225      1.8523311138354768
   141   1      17.895892230160808    0.027514753891597063       35.94111303970211
   142   1      19.359791227392993      1.3142150111677362      1.6663777063836409
   143   1      17.741935439172352      2.6808869634899781      36.057874772858035
   144   1      19.073876985393461      3.9357949680980995      1.7428192808042009
   145   1      17.704682046232008      5.2120186907236628    0.024995133642619304
   146   1      19.186681785426501      6.4946164675864972      1.9520018260714431
   147   1      17.714609197102398      7.7118899454984122     0.22873153547179767
   148   1      19.006650654076644      8.8948038017974547      1.7509547581532043
   149   1      17.717542249889966      10.137166958818293     0.11211902580687379
   150   1      19.162095519048854      11.384849197297125      1.9427929321190625
   151   1      17.912785880327569      12.739158256872885     0.33429422789899932
   152   1       19.21299430736709      13.961883627308939       1.886228423700073
   153   1      17.971906065236876       15.25663048959216      0.2252853869940056
   154   1      19.283273630255483      16.495145734716374       1.766050271269582
   155   1      17.907959917549615      17.918209540978705      36.045622167529281
   156   1       19.07072865510392      19.231648411679725      1.7528052016129534
   157   1      17.827548185878044      20.490418532006487      36.038379445285933
   158   1      18.995352958546999       21.86268092570602      1.7533528107373388
   159   1       17.73035886664751      23.153499937023074      36.030658359472483
   160   1      19.077305645984527      24.359609795343346      1.5456411702172439
   161   1      20.539813289594466      25.320705143306579    0.011917586595507139
   162   1      21.748797704456621      1.1811105850559838      1.6651677749575249
   163   1      20.453501865366526      2.4984031321132596      35.984792274061526
   164   1      21.721003537270285      3.7622781052170304      1.7238212104727164
   165   1      20.361920859145727      5.0118965393990926   0.0073581480454663574
   166   1      21.653659656721086      6.3325686780754262      1.7417230142259648
   167   1      20.219577590411827      7.6053956721051827    0.098999953011036645
   168   1      21.648703628995669      8.9632443251556992        1.81697091418853
   169   1      20.314085872052328       10.10871169143695    0.034491397189992772
   170   1      21.787761831278093      11.518858073052289      1.8186379254617595
   171   1      20.282862231972576      12.569796306003608    0.093520059220713825
   172   1      21.607326448019631      14.008316730158747      1.9760884108797436
   173   1      20.531661589874595      15.332628069468932    0.024625208201712226
   174   1      21.749033589392791      16.597619533271871      1.9058231026460579
   175   1      20.393184538741327      17.942723274234325     0.11397841685413816
   176   1      21.649158011141033      19.104549370379832      1.7851775123759137
   177   1      20.406892815861269      20.460888615877334    0.059656572112817378
   178   1      21.723550943998827      21.647518308750644      1.7935199204810248
   179   1      20.447463538248336      22.996524387604513      36.099617274560352
   180   1      21.542301867118312      24.098940309396045      1.8005140208717181
   181   1      23.036330116292792      25.445671403209111    0.069391190571707229
   182   1      24.209468110632304      1.0649239253466489      1.7327733165749022
   183   1      23.093007396054009      2.5252215792609891      36.016925992406946
   184   1      24.251831233617224      3.7070575605927574      1.8237855889126888
   185   1      23.027227354102198      5.0058522127393497    0.078474973544484655
   186   1      24.192268798138361       6.206815645367203      1.7131180333140366
   187   1      22.887640584178904      7.6756066810056742      36.053006867514974
   188   1      24.288370670497475      8.8416097412989831      1.7241029977558806
   189   1      22.791622825371377      10.093229977723706    0.045007234653451238
   190   1       24.18900668991607      11.259341081671254      1.6725504173737376
   191   1      22.961198592147788      12.579366130071469    0.054526050690367187
   192   1      24.168250318158535      14.066750965441118      1.7461687673460917
   193   1      22.952497200683624       15.30387074486932       35.93380492498467
   194   1      24.296369034898031      16.585055685402224      1.8183204451489348
   195   1      22.983848297032484      17.816120488640077      36.092129044624841
   196   1      24.109980557654168      19.237784722199539      1.8125930367353349
   197   1      22.973040575365658      20.208587543289514      35.996278249529716
   198   1       24.25104478248738      21.686450000667801      1.8064825855083315
   199   1      22.958096416474827      22.902146558811943     0.14487424451857589
   200   1      24.396058194639291      24.179053691142016      1.7286934184174829
   201   1      25.511193585056798     0.20761019709379971      3.6464926833444529
   202   1      1.1124235002145564      1.2669703242100303       5.368456075578071
   203   1      25.463393694168804      2.8118634619769258      3.7754863235450342
   204   1      1.2372991392242529       3.875810264094731      5.3774757032787406
   205   1      1.1427407944333006       6.323570402331451      5.4584316997011832
   206   1    0.026471003461651262       7.569992266618466      3.5244985462183975
   207   1      1.3377128294748275      8.7355034845922308      5.4655693695130037
   208   1      25.526505220827467      10.223375949596996      3.6093028357437902
   209   1      1.4519381940802223      11.497328561209033      5.1005788753519248
   210   1      25.355656508645637      12.789205959161565      3.3723833065190885
   211   1       1.128936320443878      14.004929924273529      5.2982246820902708
   212   1    0.050499483929463448      15.396152617822038      3.6179216672976167
   213   1      1.2788281602382472      16.641344522854197      5.3247544005308329
   214   1      25.513730587370588      17.995374597804179      3.7083398880977363
   215   1      1.3289374934042806      19.278090570054534      5.4592099881891558
   216   1      25.422311350194303      20.433442397779547      3.4348373561026868
   217   1       1.252952509202711      21.903387308437999      5.4892638992685647
   218   1      25.475804816655813      23.067411249317729      3.6822219565289385
   219   1      1.4175478635329846      24.209880184897138       5.445678413268114
   220   1      2.5347740973886372      25.391121995004362      3.5894542581729199
   221   1      3.6865413215754508      1.1019883435511928      5.5336434122302025
   222   1      2.4406700082956738      2.5099679112387485      3.6441394973366643
   223   1      3.7638704931745313      3.6597355995810226      5.5000744872256018
   224   1      2.2195194247020762      5.1487813770910389      3.5911196892998669
   225   1      3.7881373540398249      6.1332935888687041      5.4950011111499331
   226   1       2.674353091632931      7.5935879173779055      3.5202569190749284
   227   1      3.9290167648242145      8.9333366075494709      5.4013514262277651
   228   1      2.7020394843576052      10.167722347107288      3.5781976394170325
   229   1      3.9721154702275974      11.556658995691871      5.4849662653362889
   230   1      2.5252334266506762      12.771250278059011      3.4680310093605393
   231   1      3.7022947680878611      13.959528625704142      5.3274680737638969
   232   1       2.623601769434214      15.317683560227726      3.5493969811606374
   233   1      3.6816509428491289      16.428224767864258      5.4321959698289675
   234   1      2.4118692375027027      17.969229750820951      3.5844598532708001
   235   1      3.8721293637051644        18.9576300794212      5.3064198025546228
   236   1      2.3710784912482503      20.417007793210118       3.575718086835149
   237   1      3.9127840248369319      21.668179316553481       5.289342329889914
   238   1      2.6227146704441995      23.075940299030552      3.5846229635761562
   239   1      3.9296192805915866      24.104768123233708      5.3045338604720929
   240   1      5.2003206608205357      25.502401590133328      3.6862292717047205
   241   1      6.4683835309203461      1.2425408786192678        5.56981823603856
   242   1      5.1554934327858168      2.3953863369319808      3.6904947367689878
   243   1      6.3585124607511556      3.8347687516734288      5.4973317224486298
   244   1      4.9517701827940641      4.9878320122947812      3.7532669317093506
   245   1      6.2823815625216302      6.4512457881630745      5.5263386418165314
   246   1      5.1304771554455018      7.5173955875432972      3.5311669214488108
   247   1      6.5123697234026352      8.9876695595624199      5.4591114318112792
   248   1      5.2156701116796702      10.082916815266127        3.62993668255602
   249   1       6.486635977671348      11.399090563526874      5.4547702011383166
   250   1      5.1216023326066997      12.515109491043797      3.6290916261291599
   251   1      6.2935079160710137      14.057509989942341      5.2709725227609505
   252   1        5.18171593191241      15.255270462534215      3.5502793322894135
   253   1      6.4645462548566339      16.533729779177435      5.4215622236044974
   254   1      5.1156873309541151      17.750727613171094      3.6695693632214823
   255   1      6.4080358146116918      18.928214847317953      5.3492904783482906
   256   1      5.2174075521374164      20.493369315178445       3.650901231055462
   257   1      6.4696168234825961      21.650747364670927      5.5500543910393167
   258   1      5.1032281128995702      22.889496808234963      3.4928690867301841
   259   1      6.4164297498655012      24.155508861068206      5.3385580574289904
   260   1      7.7784177959430325      25.494275462956988      3.6723406393997275
   261   1      8.9510029123697574      1.2803246501550329      5.4301653297812953
   262   1      7.6386904820709214      2.6775498653519154      3.5904992890341552
   263   1      9.0077404702151824      3.7672989096278928       5.315017821143619
   264   1      7.5127057960368093      5.1813433473324855      3.6777519655070603
   265   1      8.8882933704120006      6.4120289660016265      5.4938020894462474
   266   1      7.7366152669392205      7.6694312568260194      3.6803608115680309
   267   1      8.7931725540621315       8.843303019223427       5.556612739238167
   268   1      7.6600094253856428      10.105210972636714       3.714145406789406
   269   1      9.0687004658629728      11.658508017473043      5.6429799168687875
   270   1      7.6808367054304618       12.67201900358331       3.715290212550665
   271   1      8.9955437083718763      14.014571699793571      5.4415000124061734
   272   1      7.7077002864025248       15.07313781973849      3.6094590117499838
   273   1      9.0377822078175249      16.663750400496966      5.4713695023107309
   274   1      7.6487915922335015         17.785229954599      3.6478058933528197
   275   1      8.9684501941915205      18.955781870178107      5.4227874486363197
   276   1      7.7220124188190526       20.28569536752028      3.6617851512048483
   277   1      9.0052373411580469      21.723069458006844      5.4178317055060328
   278   1      7.7102624847134926      22.737910716085011      3.6641226533485471
   279   1      9.0288404272235585      24.154813990682818      5.3239609688932692
   280   1      10.228246906880932      25.473247947608574      3.3477179399832839
   281   1      11.479302799030128      1.3123103953037498      5.2523879065897727
   282   1      10.350593439418869      2.5214786605811788      3.5259322111148537
   283   1      11.396846907780768      3.8194933261818229      5.3413278142139022
   284   1      10.023179831685745      5.2658234479490327      3.7502594519204218
   285   1      11.413552025497342      6.3894794541943689       5.691308648112666
   286   1      10.220141493881098      7.7320179131105649      3.5998613074668797
   287   1      11.262969940319932      8.8855669624738507      5.3659714965101353
   288   1      10.181203782597127      10.336606748406092      3.6748930405392226
   289   1      11.456931444296789      11.545982601197734      5.5432061019438628
   290   1      10.249044737384985      12.686111121749343       3.573650030013368
   291   1      11.492864235929476       13.95302160568172      5.4640881021849559
   292   1      10.208786542755247      15.314601358016672      3.7977164158722934
   293   1      11.566346432930532      16.519381164279324      5.5405378046134874
   294   1      10.189453745376143      17.845222426158575      3.6346557485944855
   295   1      11.527433795762699       19.14995515474979      5.3448726622367877
   296   1      10.303519839171255      20.372871721897003      3.7056081989881982
   297   1      11.380309726554865       21.67563612140324        5.30638748886948
   298   1      10.397956236567754      22.929277500703439      3.5239637841749314
   299   1      11.482554171955091       24.22985269102108       5.094024322279366
   300   1      12.772995407084949      25.471456981796351      3.3978445922048657
   301   1      14.237485764482804      1.1189613654829795      5.2244207964678857
   302   1      12.706102931435842      2.5363613427314737      3.5295288968926459
   303   1      14.246057897158236      3.7253613740521545       5.395109916190453
   304   1      12.593084473438546      5.0774565651369379      3.8894777706253088
   305   1      13.961903195267441      6.3158850406758509      5.5673890572522113
   306   1      12.595951458501339      7.7051441858503269      3.6690230632786975
   307   1      13.913228823446168      8.9248363656595018      5.5888162444556508
   308   1      12.661038077509099      10.233089767907819      3.7326850850920454
   309   1      14.186898133976435      11.395187725827011      5.3737429245380968
   310   1      12.830126259614481      12.736338791473576      3.8042176733580666
   311   1      13.997711585305458       14.14186966595125       5.476095664374288
   312   1      12.955242110085669      15.250071249483026      3.6316171925501468
   313   1      14.155724041085946      16.595089653115192      5.4381896524330227
   314   1       12.95690915834502      17.791589715474927      3.6389843228627479
   315   1      14.068830471643452      19.059696278067729      5.3935437678333162
   316   1      12.715504580860911      20.370060018586464      3.6375556972078562
   317   1      13.897676818646671      21.526658127550537      5.5750804665200153
   318   1      12.917822484241107      22.954371717533206       3.515376551606836
   319   1      14.011184658375903      24.043577662306308      5.4678849573333927
   320   1      15.290630379656816    0.085015639092231532       3.549721917842215
   321   1      16.661389902898648      1.3638276217647862      5.3828991110615174
   322   1      15.440370922659323      2.5893109059847443      3.5905354977351176
   323   1      16.652563669018033      3.8755234032141903      5.4038494275368132
   324   1      15.178610125374306      5.2105521758495321      3.6445474648269474
   325   1      16.628160636889024       6.505786327365187      5.5471503049155606
   326   1      15.212626874276568      7.6659891052423541      3.7453912764745434
   327   1      16.481205553999793      9.0749388360091725      5.4505212687265754
   328   1      15.139898575322841      10.115385278103229      3.6300654175416893
   329   1      16.537894830627344      11.528495370586942      5.4107710578536228
   330   1      15.252774726615343      12.836904495996901        3.70916540164166
   331   1      16.664152237701131      14.228843347293957      5.4268697736189253
   332   1      15.341613956371258      15.498908843284903      3.7218258994809617
   333   1      16.667874364357235      16.637537390384558      5.4294673106002973
   334   1      15.344554447308118      17.919980262186357      3.5241199151756191
   335   1      16.591995417045226      19.221691474151321      5.3536294663098749
   336   1      15.394539227001562      20.534702486292982      3.6663219466756378
   337   1      16.545388680550452      21.609010740171289      5.5802880745402632
   338   1      15.133368754677589      22.988991428203587      3.6865773224309364
   339   1      16.482751460152812      24.245921880110519      5.4049870498310915
   340   1      18.102198063192784     0.11586372002247836       3.581854908509047
   341   1      19.202094794851501      1.5207142549262911      5.2437745912882461
   342   1      17.970041928709254      2.5352767239640972      3.4895924250447599
   343   1      19.094250745614669      3.8731532467504244      5.3470621775210185
   344   1       17.75908385233846       5.126824142959169      3.5027065729021598
   345   1      18.977313128557128      6.3512887108425149      5.2340742849870319
   346   1      17.837609371912482      7.7647779543677489       3.760200409829741
   347   1       19.19153503932894      8.8507335339963884      5.5764004251418724
   348   1      17.898766367479073       10.33197272525128      3.7138680574979319
   349   1      19.228155972016477        11.3837139741791      5.5355395654936084
   350   1       17.91398197127813      12.860036712324673      3.6616064540110154
   351   1      19.177341510523153      13.890384678722299      5.3703488385472333
   352   1      18.031089123112476      15.333109981982403       3.626281700261559
   353   1       19.31683186747993      16.516050934708488      5.3538438892594131
   354   1      17.945488057540601      17.888979364559152      3.4798740871073854
   355   1      19.121697452711761       19.13284493178806      5.3526744742003887
   356   1      17.895981683218576      20.461708454366192      3.6808127594907747
   357   1      19.225004468443483      21.722797109016561      5.3744795070706433
   358   1      17.802726142160015      23.035865393284425       3.679483171320411
   359   1      19.282882043513744      24.294315477794601      5.3222255514249701