dump/Cu_400_5/steps_21 (written by ASE) 

1995 	 atoms 
1  atom types
0.0      25.526554800834361  xlo xhi
0.0              25.5265548  ylo yhi
0.0      36.100000000000001  zlo zhi


Atoms 

     1   1     0.14907153463529615      25.372362186257948      35.963091874231516
     2   1      1.3989759307613923       1.176662328034574       1.722713097457552
     3   1      25.462580207438517      2.4809222830388671      0.1034138971758239
     4   1      1.3349538085709167      3.6554849546826191      1.8950833764420412
     5   1      25.441833238984216      5.0666683079330292     0.28115218388312557
     6   1      1.1921420504434763      6.2233291497822449      2.0115222041622016
     7   1     0.21984830116216825      7.5769924044852894     0.09740113513555558
     8   1      1.3860806116764162      8.9780085633825362      1.7489165325275622
     9   1     0.20597113643048839      10.269502390380771      36.090178599249079
    10   1       1.362251901771121      11.542032390857308      1.7715735218669593
    11   1      25.452977026771382       12.73304037832154   0.0097434394350784537
    12   1       1.216866774669445       14.00417475945099      1.8304383817814709
    13   1      25.419288505775988      15.446261201977432    0.064834446905774737
    14   1      1.2375568046109517      16.690173816926563      1.8144804721050949
    15   1      25.445637634881557      17.897419913600594    0.069456658747878861
    16   1      1.3360529126517819      19.079645760724805      1.8757701510342251
    17   1    0.019047266349480268      20.279471729766264      35.981363853479962
    18   1      1.3319902550100549      21.721660002101661       1.716049255474867
    19   1    0.060856651612999572      22.907106789319855      36.049607305750463
    20   1      1.2716386469006384      24.138778104706418      1.7733472149199434
    21   1      2.7784750007743284    0.066078909310997233      36.075432375006869
    22   1      4.0606274854420086      1.2191214241611541      1.9809296067940976
    23   1      2.5627362649568002      2.5039460267628026     0.27346148319959424
    24   1      4.0287562962340164      3.7976742090167432      1.9324752917583501
    25   1      2.5142233335842601      4.9310654897996118     0.12679256008190143
    26   1      3.6532482707400615      6.2166002671641749      1.7793258085812689
    27   1      2.6652887426384018      7.5795845522382894      36.097561327873855
    28   1      3.9766424677412564      8.9945929229921777      1.7749113552501632
    29   1      2.6300512580774931      10.227467302900745      36.084971498507265
    30   1       3.859946153367749      11.612970517865055      1.8583721885691045
    31   1      2.4375194819156643      12.768774220172627      36.050060053384833
    32   1      3.8082177239071422      14.220313103458274      1.7314395979162436
    33   1      2.3213514370281021      15.442110166928318      35.990719205760719
    34   1      3.7381234363766227      16.602055252995772      1.6586710017904802
    35   1      2.5874483748769204      17.942029594724417    0.060763616179542693
    36   1      3.7156295055958815      19.253358399116173      1.9883055383175461
    37   1       2.595410477152599       20.54964903853659      36.088391700521946
    38   1      3.8671728487631709      21.812482719910822      1.8628668846413359
    39   1      2.4904329120382904      22.991693376510511    0.013911424362868277
    40   1       3.898199647955559      24.192231146463428      1.8773163936038384
    41   1      5.2136878889128777    0.045766938594210729     0.13354350978261198
    42   1      6.5133820783081875      1.3315008301248812      1.8662680628651624
    43   1      5.2792057760005813      2.5759079148016095     0.11025841001152224
    44   1      6.4678694134522505      3.8527316950098087       1.887608445770447
    45   1      5.1756927635361132       5.095792799160451     0.11388793781098909
    46   1      6.2979559074926597      6.3281752728118805      1.9210986813517466
    47   1      5.0405739045300857      7.6030210023673304     0.16730590440364509
    48   1      6.5120265214958595      9.0512509847412534      1.8187095766414918
    49   1      5.1265748813407015      10.132023504436512      36.059694653460035
    50   1      6.4198470165631205      11.621092047065661      1.7954986767956376
    51   1      5.1116597359746372       12.76386825767276     0.03788344241561372
    52   1      6.3360971467546179      14.029327977696646      1.8107119675266854
    53   1      5.0760253639224544      15.286014576328281      36.037582243969531
    54   1      6.3889352336736422       16.47159480557848      1.5957245359595387
    55   1      5.0871112638938509      17.928164156111439     0.27254704647485845
    56   1      6.3791903044106064      19.277626852082566      1.7751491508433233
    57   1      5.1041880645797804      20.395677500334106      36.078500023658002
    58   1      6.4608393833189464      21.809094711974392      1.8513667016627675
    59   1       5.177173721374337      22.887658735318229      36.034758368022942
    60   1      6.4986667116680747      24.189143699201551      1.9502815497786845
    61   1      7.7760417621769031      25.505282592140169      36.024047312512479
    62   1      8.9689069976048454      1.1969242948459073      1.8581693382764564
    63   1      7.5984329752288735      2.5156757378864611  0.00047550163907317413
    64   1      8.9528298685343799      3.8081315594221983      1.7472942285999811
    65   1      7.6781586220900051      5.1942620588339006      35.961643147752284
    66   1      8.8692991510546104      6.4401948370829638      1.7133348711211618
    67   1      7.4431251423911675      7.6367120659215075      35.894211995038738
    68   1      9.0023985288806543      8.8817346427784436      1.7092373170697563
    69   1      7.5250625446133004      10.384877124943971     0.02444731827926036
    70   1      8.8972352227007132      11.488478817452041      1.8751423063508816
    71   1      7.3967423071878802      12.757885507159317      35.983780022429322
    72   1      8.9540272234713605      14.057192421547635      1.7183808532953682
    73   1      7.5901914391883913      15.123936270918509      36.033241555624002
    74   1      8.8591268920784128      16.529072812152744      1.7738160913679608
    75   1      7.5089099632140774      17.960855291159284    0.076453236234783506
    76   1      8.8826927074464272      19.295863802451144      1.8629186519412195
    77   1      7.6263602719998005      20.564680228125578      36.032820136757664
    78   1      9.1052759418816542      21.680333408573304      1.8193231877452491
    79   1      7.6946303649551062      23.137491687251917    0.064353392976329193
    80   1      9.0588439621520251      24.268140463664562      1.9798137452519768
    81   1       10.32969222541815    0.040068586301653053      35.948379516031899
    82   1      11.651400000280253      1.2629484260932631      1.9487002554483417
    83   1      10.287824028047044      2.5110132944956871     0.18462227612948248
    84   1      11.468964256021652      3.8941441340667589      1.8875335869081609
    85   1      10.214281772927221      5.2070644805447266      35.923971359122064
    86   1      11.378488545453923      6.4672758426254422      1.5284493010266378
    87   1      10.176690198368444      7.8136326479786851      35.936926386806441
    88   1      11.486810030727902      9.0220043362878677       1.904837112271299
    89   1       10.16301765349691      10.422919324912542      36.021443108857909
    90   1      11.461927276130945      11.534810147253737      1.7037883969406615
    91   1      10.125460645193074      12.967407699883289      35.806140958680821
    92   1      11.461073964130321      14.217228998804783      1.7902015481204674
    93   1      10.339475915921028      15.416152410154403    0.013205132914924905
    94   1      11.374560831527427      16.706368004364496      1.8964833137270269
    95   1        10.1766496587771      17.987210611743304    0.034999524573152037
    96   1       11.54784675189031      19.235542634078513      1.8218411136262138
    97   1      10.158194343978339      20.521349370652569    0.034919817765251077
    98   1      11.447456847937971      21.724112857753056      1.8927367674144779
    99   1       10.25549103724798       23.08808807770016    0.082916813701569891
   100   1      11.512600378050278      24.344921790248918      1.8993597936568452
   101   1      12.824846975471358     0.20638632465642956    0.066253108376531769
   102   1       14.22626473527497      1.4736509025520323       1.826670600660588
   103   1      12.689725840534125      2.7791677792774943      36.050896291115329
   104   1      14.021793254570294      4.1427884574196074      1.8975969069195104
   105   1      12.750422248360499      5.2193056028192224      35.991631382469187
   106   1      13.873541752607659      6.4182667965122251      1.8411822935466142
   107   1      12.669894092618375      7.8849261834430493      36.076550953467986
   108   1      13.913843254770725      9.0527387808813753       1.722559326541226
   109   1      12.685962176767854      10.374312348683596    0.035078137184223139
   110   1      13.895559576386725      11.564765468171553      1.6850212151256316
   111   1      12.666134262484519      12.866846168292291    0.035717672455598426
   112   1      14.108852712921623      14.173807962608961      1.7884701912723342
   113   1      12.845721585224071      15.461887528374341     0.11240741806021773
   114   1      13.997193610727503       16.69865242152331      1.8179981458038479
   115   1      12.867804532998299      18.015722863171785     0.02698167187920715
   116   1      14.117026206040912      19.141397655177038      1.7786580394028406
   117   1      12.605299451489918      20.644449155502361      35.990733177743252
   118   1      14.024391659324822      21.888513568467989      1.7509863561744847
   119   1       12.70207796403859      23.131256755196411     0.14367529615916494
   120   1      14.026012156840061      24.535736477926573      1.8395145428919704
   121   1      15.434207238106673     0.13354789875363915      35.991477115724848
   122   1      16.581272999016086      1.1848317545314373      1.8613751374947825
   123   1       15.33856596325308      2.6225590344348522      36.039623338008617
   124   1      16.612886204931247      3.8276831693622189      1.8132158659521218
   125   1      15.292743329281324      5.0706505653400686     0.12431538456712596
   126   1      16.410786699298928      6.5129389039101264       1.832184091761474
   127   1      15.251707590874711      7.8281790696652997    0.027527689665441814
   128   1      16.600654895051978       9.018659145403392      1.8149359702381636
   129   1      15.158230379137732      10.303411272114808      35.934358675427326
   130   1      16.419331999902198      11.559029786252816       1.641147893485573
   131   1      15.296031964130968      12.881066943762933      35.965508541924841
   132   1      16.540589848063377      14.137765073687705      1.5488379588091568
   133   1      15.355507332583519      15.335342349652928      35.959253709258967
   134   1      16.650918331110642      16.644336461054596      1.6909269754678451
   135   1      15.358810925032202      18.028801951152381      35.938325329238317
   136   1       16.68147310332218      19.170806589174443      1.7890993689697907
   137   1       15.21314836298469      20.557751305267729    0.017896834363364176
   138   1      16.609592170358244      21.741849684728205      1.8391873533701311
   139   1      15.302609464698586      23.015084677226376      35.984481506180508
   140   1       16.67021946315657        24.3485767253155       1.731839673765684
   141   1      17.832283552234816      25.486817341155824      36.037693519922307
   142   1      19.112961546921618      1.1794344584530034      1.8588187578047048
   143   1       17.85560767947652        2.64772617970951      36.054409831003539
   144   1      19.241545721692237      3.8953273778465016      1.7822552554912467
   145   1      17.790816261900368      5.2313447786823772      0.1776480427508092
   146   1      19.063322813240774      6.4288879983582676      1.8857628854407156
   147   1      17.705694855326101      7.6571334226019232      36.046366731547458
   148   1      19.057180736592436      9.0857027520228559      1.7900363347702082
   149   1      17.750450356470864      10.357973361038441     0.08152373015236665
   150   1      18.944139419151199      11.569164326373059      1.8507489353271478
   151   1      17.786361900672343      12.807176119634214      36.072856819563626
   152   1      18.987284852578135      14.125650822318997      1.7126894460058211
   153   1      17.920716159309539      15.374345559121851      35.929352779929722
   154   1      19.159242571701501      16.709158044063273      1.7553717211013697
   155   1      17.904287621962546      17.950980297639784      35.937427023828683
   156   1      19.023522035218175      19.208146977477064      1.8413847776144623
   157   1      17.871201965020592      20.540500413056108    0.046731049738923357
   158   1      19.074054037234539      21.706724048823656       1.723164629122492
   159   1       17.80194364852137      22.957090470597887      36.095553809465457
   160   1      19.245002301001527      24.058071977483092      1.8233483984695356
   161   1      20.421394167262005    0.052548793697559208    0.065785037513080763
   162   1      21.721020624587425      1.3001691087728215      1.6542758025371433
   163   1      20.379733687680325      2.6036341638155749      36.033164992909803
   164   1       21.79763088777468      3.7814510713503053      1.7164683434656802
   165   1      20.508224263542598      5.1135769936453732    0.065166873420901036
   166   1      21.692596022863295      6.5876043734708558       1.826613217690793
   167   1      20.217219132337291      7.6558338799627732      36.058346018561018
   168   1      21.598810629094206      8.9339607697340764      1.6968667853015873
   169   1      20.292127472503811      10.255264826595301       36.07759386259427
   170   1        21.5332202014967      11.626666479924756      1.6137970673905426
   171   1      20.220864971851256      12.753145588435279    0.078971548393155802
   172   1      21.765867192358211      14.124927118448101      1.7918712114392636
   173   1      20.391667923268869      15.401494784989719      36.070854388710202
   174   1      21.637697340425255      16.672741590497157      1.7368747389450057
   175   1      20.380872011751553      17.985469412772357      36.048945008052776
   176   1      21.632353843278761      19.287564986727844      1.8397853039661871
   177   1      20.486004411178257      20.407996971848522      36.064025061173162
   178   1       21.66680010529986      21.712295216120481      1.7343280996879014
   179   1      20.481024081451672      22.987453452634362       35.92608786501328
   180   1      21.755176433382228      24.293889591573148      1.9625540117176326
   181   1      23.089637675831675      25.511950245532638      36.005731563591191
   182   1      24.302983321918276       1.149249095445505      1.7900906306850075
   183   1      23.163191600369817      2.5071325004143614     0.15502258182724524
   184   1      24.368080218291187      3.7320915996151753      2.0683158806939237
   185   1      23.038778633912329      5.1639508976340167     0.19790365783638889
   186   1      24.336979921025392      6.2610786255412725       2.128080421351557
   187   1      23.039886674822153      7.7621496772985603     0.11013747665161887
   188   1      24.284613096746757       9.003221907280194      1.9540150940684287
   189   1      22.988906650843603      10.128968742099406     0.19580678548754801
   190   1      24.214757319801826      11.506107152620633      1.7549295627868458
   191   1      23.045307819189329       12.73183411741009     0.10088771593681264
   192   1      24.245576945362195      14.013109896596886      1.9400118526413035
   193   1      22.983978064756606      15.372989832288134    0.063848375306872637
   194   1      24.202006157427238      16.671249950738751      1.8218902964093104
   195   1       22.95013606731456      17.999229678950577      0.1023708659855514
   196   1       24.25528493972492      19.191102521206428      1.8149264669356862
   197   1      23.123452635853706      20.594844472926539      36.007558656306749
   198   1      24.236158732477641      21.700343721377081      1.7900774885196704
   199   1      22.942154121765203      22.939137903542477    0.054353923142798362
   200   1      24.320902645901395      24.228388319847035      1.7249538353338612
   201   1      0.1025845473057095      25.283434580468622      3.6449508588083384
   202   1      1.2884332080576453      1.1325183313817158      5.4438603188913177
   203   1     0.10905912091003137      2.3038705692990176      3.6401994059292706
   204   1      1.2814231400943235      3.6740616684663907      5.3570919137899402
   205   1      1.3138883913538348      6.2606332668476385      5.3439522229737548
   206   1      25.466493952464017      7.6115868968317244      3.7778322353566511
   207   1      1.3139830617305983        8.92621217495536      5.3239303040036043
   208   1    0.074250209479060442      10.223789357525119        3.48315763003834
   209   1      1.2370420793148813      11.532735112514338      5.3912252285777535
   210   1      25.500121756637107      12.701624869679005      3.6931305157922698
   211   1      1.3187030607821733       14.12063965995727      5.3159507324102435
   212   1   0.0019703325559768232      15.370632674516131       3.502277856511955
   213   1      1.2724007635004284      16.592917951913797      5.4217666671231743
   214   1    0.016075441172454599       17.89475326768418      3.7723669087965304
   215   1      1.3474422278450406      19.119885225807401      5.5388004632768446
   216   1      25.448299103913108      20.403751831190249      3.7816178724953939
   217   1      1.3963900446442932      21.600821098946295      5.5820550271756169
   218   1     0.12099349078727427      22.859573448991409      3.6691918385810993
   219   1      1.3208495516199545      24.087398276790594      5.5999291078297828
   220   1      2.6819581082827919      25.308096875358423      3.6849560332900584
   221   1      3.7795955934150869      1.2760068622559722       5.479073187394075
   222   1      2.7051674480265597      2.4370063579225332      3.5989288165293387
   223   1      3.7887936157075504      3.6956996239918016      5.4458028292520915
   224   1      2.5341510630444444      4.9839549443081248      3.6165872199979772
   225   1      3.7029541917356208      6.3240989678160426       5.424409855207319
   226   1      2.6626842659828358      7.6179328892863856      3.5314768300267692
   227   1      3.8454844272553408      8.9754985277300232      5.4100209770557459
   228   1      2.6392321477375682      10.352356224950938      3.7120860602686943
   229   1      3.9421975941428129      11.527814655846946      5.3649583010633357
   230   1      2.4807969470792712      12.698695714943273      3.7337639094970281
   231   1      3.7213151408537168      14.047538551249572      5.5002610582648721
   232   1      2.6248622973409588      15.396020101791123      3.4888798103850611
   233   1      3.9247996606601077      16.575712757590946      5.4045242090003791
   234   1      2.5432466447863127      17.936448406695042      3.8009702380072632
   235   1      3.9006780453684136      19.133609938702715      5.5780169776935171
   236   1      2.6160615386200794      20.461248474059314      3.6463337567903351
   237   1      3.9563379258836755       21.60063258108752      5.5342750745056124
   238   1       2.442494969727393      22.868345975455249      3.6737096733184171
   239   1       3.928045656697805      24.013168525264387      5.5284024939808045
   240   1      5.0979764381556194      25.421836169895055      3.8097927460696046
   241   1      6.3488698955410987       1.257567976561867      5.4194152082046525
   242   1      5.2469659322197444      2.4441992587192125      3.7011413732740648
   243   1      6.4788044018389961      3.9399049885539892      5.2230722888717276
   244   1      5.0225185115102331      5.1211536568289819       3.557375850728044
   245   1      6.3123241683992006      6.4085668895507144      5.4943292164697253
   246   1      5.1094700561864679      7.7921415749999792      3.6908489296876108
   247   1      6.5801396191048633      8.8047923371135077      5.5685373009972956
   248   1      5.2213432695495792      10.245442662537245      3.6759303033872639
   249   1      6.3725473806017607      11.548524893014138      5.4233636334280551
   250   1       5.119861303578757      12.765378438086589       3.614373044656602
   251   1      6.2859823762113001      14.062750135302494      5.4422623714122631
   252   1        5.18602354406113      15.142335471887755       3.557051486214744
   253   1      6.3284331214250535      16.486098866256096      5.2424365449354626
   254   1      5.0020363930369438       17.85648847829119      3.5318709407015847
   255   1      6.3208435866933232      19.085404692350028      5.4482264172598525
   256   1      5.1379805037294002      20.517560123692718      3.5852655331895331
   257   1      6.4937161677524333      21.607056432022194      5.4750616067627584
   258   1      5.1953769348084213      23.014966608265933       3.698395521598079
   259   1      6.4065900644503158      24.149914573704532      5.5542149887072085
   260   1      7.7163204124924754    0.042158572618390185      3.6086265127247099
   261   1      9.0378469065748419      1.3460731705441082      5.4529634001470413
   262   1      7.7475797800874027      2.5762683931655386      3.6655214373295451
   263   1      8.9750990279679357      3.7390808687404684      5.5983290650502671
   264   1      7.8351944368173552      5.0781813889895639      3.6269820858760018
   265   1      8.7892375942605767      6.3104557184777068      5.5873529214819992
   266   1      7.6580008116848006      7.5150664936201537      3.6621988530759833
   267   1      8.9807984575824928      8.8413185193704891      5.3381658618110253
   268   1      7.6202551508069094      10.136441919544851      3.6766145943053568
   269   1      9.1022297878951584      11.418954236687012      5.3371984718055812
   270   1      7.6476125996829376      12.680226196859955      3.5975271586231106
   271   1      8.8563873225140721       13.92483667220581      5.4105099128418539
   272   1      7.6674129358626288      15.198627603054629       3.578577857037216
   273   1      8.9099307576329512      16.474138597685158      5.3085947316312909
   274   1      7.5578221500064737      17.804989934537179      3.5693461425855832
   275   1      8.8384735149450826      19.164930956134235      5.5392501050553813
   276   1      7.7254187963825611      20.333221401585245      3.7522396329633518
   277   1      9.0173419404021242      21.850269349818781       5.424562922759776
   278   1      7.7293584020405257      22.957363171009874      3.6610033516801512
   279   1      8.8844852394715819      24.221814819590325      5.3883129810879087
   280   1      10.235053641896583    0.043360071966482311      3.7376489618734769
   281   1      11.499689047881718      1.3099393192059539      5.3761866479575158
   282   1      10.148309715554159       2.653727168834751      3.5771865554613673
   283   1      11.580631012302481      3.9380606732301264      5.3456205326717701
   284   1      10.165287062833633      5.0963865957832697      3.4432633319265067
   285   1      11.306777899235819       6.473383060537178      5.2819142819846086
   286   1      10.093550118143147      7.7237773835274224      3.4724667531597126
   287   1      11.402764066085227      8.8975691728173363      5.2622877002062234
   288   1      10.079848065664098      10.242865473828532      3.5587889544130475
   289   1      11.548115706926538       11.51973040581778      5.2785367666377994
   290   1      10.158332218741418      12.721493373845268      3.6010399001314899
   291   1      11.311402447434872      13.978775159794694       5.376884025845011
   292   1       10.18025184544774      15.380173122955144      3.6553057312671049
   293   1      11.455679746157172      16.671644375387523      5.3612896612523659
   294   1      10.159568763879392      17.921339032373663      3.5998115543828706
   295   1      11.425395704672164      19.147228508369299      5.3562762562338673
   296   1      10.315267652308361      20.615203400149714      3.7023626268636258
   297   1      11.661868520931426      21.865263509462938      5.4022416694570667
   298   1      10.335118706583931      23.120802831436411      3.6465187201284524
   299   1      11.474823333191376      24.362533503154097      5.3940337545878592
   300   1      12.769093398086692    0.083029279720822927      3.7189742602705382
   301   1      13.964419845228537       1.360796333783485      5.5646597754651435
   302   1      12.678523366706605      2.7399973917614004      3.6302680345206508
   303   1      13.912806670580247       3.889535133493784      5.4450967040897318
   304   1      12.504237303998146      5.2813112664433612      3.5812998511132834
   305   1      13.809205121244426      6.4030570363552801      5.3689455834586033
   306   1      12.587870033868315      7.7269955780454351      3.5850286604964943
   307   1      14.104183564452427      9.0335162085575771      5.4482920677029876
   308   1       12.82214172584319      10.299975616248041      3.6630884112825886
   309   1      14.160020251601489      11.560534735345335      5.3285108636334142
   310   1      12.821453748167004      12.985280663959442      3.5066244015731964
   311   1      14.050739692532652      14.164274919944164      5.5980999398376241
   312   1      12.866713309365627      15.374780433874875      3.6606040366929564
   313   1      14.003420181868606      16.600524812088747      5.5783664555735584
   314   1      12.807510838158368      17.965043688685622      3.6363485675980298
   315   1      13.996882183279027      19.154474236511852      5.3651709446866525
   316   1      12.780740926532804      20.428981552236866      3.4805827041652959
   317   1      14.141866931746275      21.684346940992889      5.4187509173492137
   318   1      12.899403903864394      23.108949545382565      3.5405246209086032
   319   1      13.990271290514645      24.199656224546892      5.4220468437214882
   320   1      15.293127254144425    0.048387482383128538      3.7754253792099903
   321   1      16.618573265894192        1.30868245076322      5.6336794825009466
   322   1      15.276101315576426      2.6155659594234795      3.6490745941201861
   323   1      16.566509332054025      3.9121943171207816      5.3391553824994231
   324   1      15.320632214574168      5.1368252432936066      3.5955454241433467
   325   1      16.339427578387621      6.5470541458855873      5.4543654328310076
   326   1      15.031841817864382      7.7111428597130942      3.5533520088999708
   327   1      16.452182756199353       8.911697861925191      5.4254465796473612
   328   1      15.271973019734075      10.298722475992358      3.3899273331737834
   329   1      16.598899994394849      11.393430704053486      5.3193043106403115
   330   1      15.383717130977594      12.860504375802426      3.5154859899675572
   331   1      16.617118195168004      13.911232931409922      5.4011527264267709
   332   1      15.287459498310794      15.390746408905756      3.6956089671511192
   333   1      16.652260018098826      16.696486630077644      5.4721925503279012
   334   1      15.252340769630326      17.922302090314847      3.7398763103045201
   335   1      16.438799416340281      19.219635835984317      5.3677381026737176
   336   1      15.273477860424089       20.36921921800301      3.6005267685967612
   337   1      16.466830280695451       21.73526508113541      5.4633714394636055
   338   1      15.421442022423999      22.945501566602633       3.539029405686994
   339   1      16.524502580594493      24.289255458074347       5.367455178412639
   340   1       17.75491751981852    0.072791273967657097      3.7244998932210893
   341   1      19.070942078900202      1.5158162430632076      5.4689919005050411
   342   1      17.736187642570307      2.7137156241717575      3.6459189026945626
   343   1      19.055245975384544      3.9415725651632467      5.4349906809838888
   344   1      17.846760959069144      5.2953783930125597      3.5159147096246217
   345   1      19.034138531046096       6.460487250135496      5.4966993696633564
   346   1      17.500634624765048      7.7138956254379671      3.5087291507799376
   347   1      19.145239032848622      8.8824485269609141      5.2229062910976225
   348   1      17.815797693090438      10.260948721283022      3.4928047964374418
   349   1       19.20676852567771      11.635196132584346      5.3213529211156763
   350   1      17.772524988709545      13.026760006146587      3.6214795269181934
   351   1      19.192952843017078       14.08344124212695      5.4168448683662236
   352   1      17.744545631687174      15.376704889544595      3.4560710146482267
   353   1      19.055909917048304      16.535581732290144      5.2805005548916997
   354   1      17.820534848684233      17.860044131171271      3.5468522146922967
   355   1      19.042486421565929      19.007147618177108       5.345246798963287
   356   1      17.656243538373879       20.39914434631444      3.8095062276310472
   357   1      19.150826330348952      21.651276770558265      5.5129460240773689
   358   1      18.105738256346715      22.936545838384244      3.6059487261237435
   359   1      19.221212733692248      24.267274163236682      5.3393781463404224