dump/Cu_400_5/steps_71 (written by ASE) 

1995 	 atoms 
1  atom types
0.0      25.526554800834361  xlo xhi
0.0              25.5265548  ylo yhi
0.0      36.100000000000001  zlo zhi


Atoms 

     1   1    0.089741945524412725   0.0062913406207629986     0.17622142715025582
     2   1      1.4122763904475417      1.3577412488621903       1.822287647180816
     3   1   0.0060891691627786119       2.521364754427879     0.20847151620406512
     4   1      1.2641505293261548      3.7646665940688657      1.9071377009958161
     5   1       25.51049729537252      5.2319880415741826      36.064283804312645
     6   1       1.078894079019894      6.2723294077406031      2.0710475210837549
     7   1       25.50072583226769      7.6917096058723091    0.099841209099429326
     8   1      1.2341450914009635      8.9670617577366478      1.7852244084230298
     9   1    0.057958348451159977      10.243168649618108       36.03180421571377
    10   1      1.0738224909531624      11.537916862327702       1.712711817529406
    11   1      25.501606046611744      13.018549606816729      36.077116543998535
    12   1      1.2093181912434048      14.032993316482967      1.7739637575170819
    13   1     0.16786367662712998      15.505251371872646    0.031477925808383142
    14   1      1.4982535523603839      16.536149720765238      1.9845708133659048
    15   1     0.01414886039011397      17.943427228131945      36.018331780479279
    16   1     0.99029799770506599      19.024467478617439      1.7446010243100898
    17   1    0.026147688994596848      20.432456482597082   0.0016219908179778018
    18   1      1.3811440686204102      21.693854246186053      1.8304643730797701
    19   1   0.0088923057611035843      22.976965902553165    0.010655761139162214
    20   1      1.3331986930037099      24.253069107671219      1.8845274425670708
    21   1      2.7385960709689998       25.34928133358915      0.0631680658450363
    22   1      3.8474362032092393      1.2957377679211277       1.683191566548079
    23   1      2.6583073533110038      2.5628948931586337      36.018813080311723
    24   1      3.7519742060446544      3.7746981608484367      1.8945486551727522
    25   1      2.4110751482125266      5.0340046630746302     0.01781728659324245
    26   1      3.6740589905466314      6.3545485673857787      1.7488183951900849
    27   1      2.5376838069430003      7.6959941719762011    0.058932733467838672
    28   1      3.6345902525752267      8.8155691644329313      1.7647580571250612
    29   1      2.6117254969662933      10.227983258159774      36.045608355947088
    30   1      3.7783878839594758      11.459030402028786      1.7014836175249017
    31   1      2.5394781648897635       12.75189555600477      36.002830128850171
    32   1      3.7226971736761025      14.055750071646472      1.6666248585127392
    33   1      2.5047176171756571      15.316655181905007      35.953038052612094
    34   1      3.8771953824826926      16.575750456776547      1.6856989088918692
    35   1      2.4751133851181861      17.729581193229009     0.02419327342958013
    36   1      3.9954653670461169      19.036662534038637      1.7075189996450497
    37   1      2.6049455490267523      20.338636669674365     0.11534356947288399
    38   1      4.0136859757320815      21.585237739935337      1.7561625525157767
    39   1      2.5270516888285042      22.780922199045182      35.968469350979404
    40   1      4.0500297706158594      24.076763680435757      1.6682556437493063
    41   1      5.2391810230764371      25.468688344806427      36.017978778813145
    42   1      6.4158299989029937      1.2027506440621831      1.6935652652327235
    43   1      5.1918704401637568      2.4730666470146181      36.000598239482372
    44   1      6.3024125196189758      3.7972646051145031      1.7383434344291693
    45   1      5.0759677723723611      5.0620288107947093    0.014514693869944043
    46   1      6.2424872872982613      6.3646963928722782      1.7793640288181327
    47   1      5.2120975920891004      7.5811936397217821     0.16052112551511752
    48   1      6.5394788236376984      8.8757776303460059      1.8496566427357388
    49   1      5.2015885255288703      10.202245331304551     0.20575797123625536
    50   1      6.5147709921968566      11.498017767022759      1.8058651139575319
    51   1      5.0589329030638863      12.781047406702445    0.032222083371368622
    52   1      6.3319240757278665      13.948762984344592       1.667445495443961
    53   1      5.2460291492647739      15.283449149357354      35.950483303021286
    54   1      6.3672513088577185      16.713070373666881      1.7390875223990194
    55   1      5.0974279996079428      17.744800594187225      35.951105701615923
    56   1      6.4003563027816996      19.244864188928283      1.4844816719698901
    57   1      4.9662694373422722       20.34378818214072      35.868166235422386
    58   1      6.3824890871889224      21.760270028121443       1.837802873838247
    59   1      5.1413673641526234      22.844839617398822       35.83814081269977
    60   1      6.4675068141053567      24.290324311717061      1.7012417624114735
    61   1      7.7910496878747617      25.374914008432956      35.922001156194604
    62   1      8.9468219418487678      1.2703696488777445       1.752001586012885
    63   1      7.6222866906172042      2.5287614684848614       0.144128094470898
    64   1      8.9224555232083009       3.753266282613307      1.7338714298357545
    65   1      7.5522026486310763      5.0352719577916751     0.12589354647991499
    66   1      8.9270618837204729       6.282477041710294      1.7594192634984764
    67   1      7.7738926451208696      7.5699569534236808      36.098736155006833
    68   1      8.9264513026598848      9.0632120353085703       1.846112260371638
    69   1       7.715116003603506      10.255297130439603      36.045140906421025
    70   1      9.0297072456469838      11.643584345045639      2.0268481343576576
    71   1      7.6938405337371014       12.75334230550739      36.098633573039287
    72   1      8.7419953056171025      14.070587257074035      1.8195562991543865
    73   1       7.702212932050001      15.267563153594971   0.0081933557651268484
    74   1      9.0161284277940705      16.710793985775922      1.7448505012324422
    75   1      7.6368359549416693      17.874251174237791       35.90814351289194
    76   1      8.7383059695110887      19.248899763190344      1.5576566471904238
    77   1      7.5446258363987901      20.435209106432833       35.88549279826416
    78   1      8.8773065799764428      21.722861526503028      1.6613103252249974
    79   1      7.6261982160065811       23.03959734454196      36.042995742495336
    80   1      8.7113181503607393      24.139474843113209      1.8065827507365264
    81   1      10.213289069209763      25.496243777364946    0.064573607267425351
    82   1      11.399502197431572      1.4267684190748362      1.8593323029419031
    83   1      10.057900594006346      2.5426218866063732    0.095326249104061719
    84   1      11.589394684181284        3.86425321219878      1.9046442796965837
    85   1      10.090933906375954      5.0460781814140576    0.046602800083019071
    86   1      11.626187557799749      6.4886378912184375      1.8794847540808302
    87   1      10.261435012632669      7.7249537918289128    0.017014779903183803
    88   1       11.48360590578665      9.0456672268685203       1.748224798107026
    89   1      10.215001179252502      10.168147457551415      36.074568819294534
    90   1      11.547283612631576      11.517262843825399       1.912240384507119
    91   1      10.226515379768731      12.788752996824373      36.027748435187604
    92   1      11.260563982109822      14.026898969437111      1.8248680516346885
    93   1      10.128468782589863      15.370093305704742      36.026550694396541
    94   1       11.40257970837243      16.648310226003627      1.7136044313043952
    95   1       10.13826375067562      17.863302730872956      35.959267122397165
    96   1      11.329466362443794      19.159104997549058      1.7230532928805709
    97   1      10.125056202826931      20.365149214772469      35.966566582337848
    98   1      11.479096185806839      21.698420626157347       1.826469550973888
    99   1      10.236204978513884      22.968091244039403      35.937620748949627
   100   1      11.367585362913847      24.394366481770419       1.797864077558269
   101   1      12.613816729627347      25.487847732867174      36.041700574332104
   102   1      14.080652451142917      1.2471835368785984      1.8021326885220226
   103   1      12.704434855624555      2.6046417512056386     0.10317063153424887
   104   1      14.249590720468035      3.8935978938383551      1.9598313934374689
   105   1       12.89669440615573      5.1362015512790391      36.038883078995092
   106   1      14.108272178277511      6.5306742751267031      2.0970742197364181
   107   1      12.841111047031831      7.6779061716005979   0.0041259447636093696
   108   1      13.948429495296871      8.9344585861967474      1.7476670180916831
   109   1      12.734600419528293      10.212028847365884    0.049658374856494374
   110   1      14.031449669246712       11.65889478872003      1.9164664902183532
   111   1      12.906555581937148      12.716105896111607    0.052473789117823189
   112   1       13.93887796774764      14.176466050835462      1.8010198261826416
   113   1      12.844658094237014       15.29532338066816      36.098879578424778
   114   1      13.977259835873459      16.791820470625208      1.9060077602455285
   115   1      12.615815463068547      17.826614766606628      35.945754258220994
   116   1      13.888984201564305       19.19835362503192       1.843756169001211
   117   1       12.70495497933809      20.270527898984728      35.938657676232502
   118   1      13.977870662184865      21.587878868708312      1.6423125804262091
   119   1      12.814416868529959      22.963536812888382    0.051557442532032503
   120   1      13.950140116846098      24.242549282115995      1.8046006327455177
   121   1      15.220737921376706    0.024046899695556428      36.016272242268606
   122   1      16.655892956522226      1.2639078116622116      1.6502405534184976
   123   1      15.147056096514808      2.5757042941840784    0.030667334901033887
   124   1      16.672914824483566      3.8130461397827138      1.5893464944573685
   125   1      15.446075871415964      5.2804610182295724    0.093584868849722933
   126   1      16.677785989851554      6.3665446086971835      2.0505867470536838
   127   1      15.264902450569528      7.6974143873323202      36.078907497345647
   128   1      16.664844645621329      9.0338982653034758      1.6999939434592553
   129   1      15.277550501652359      10.348178260463577     0.19956147800563717
   130   1      16.595786824896919      11.557454891007293      1.8373142501028608
   131   1      15.413877480261279      12.910871869016699      36.042083233706087
   132   1      16.539943689844893      14.078359971806467      1.8779502672476502
   133   1      15.392898340035474      15.359512348202987      36.043474848420267
   134   1        16.5052589395432      16.676880923488799      1.7560855924677412
   135   1      15.261597307108815      17.824366248401102     0.10631056305508084
   136   1      16.593102817664914      19.164609880458187      1.6618428366977696
   137   1      15.421828981226497      20.485368143296029      35.985027872603446
   138   1      16.688158573220111      21.787231442009517      1.6658579629756456
   139   1      15.308897698988911      23.028106649207253      0.0750342348711001
   140   1      16.518266771277322      24.424259503854408      1.8708251655819363
   141   1      17.760015422928241    0.019149993791555558      36.019389092928463
   142   1      19.325271053062234      1.6121589074092302      1.8593056277331363
   143   1      17.952872532858628      2.7072135930028698      35.958972910071523
   144   1      19.375184175433276       3.995820708796582      1.9391476456173211
   145   1      18.039236906671892       5.213120325200495    0.036027923860910964
   146   1      19.182910802357913      6.3740713212856877      1.8301554801421609
   147   1      17.962584281036222      7.6721517171104683      36.026791249277316
   148   1      19.183451346875895      8.9704098408891095      1.8734587625852333
   149   1      17.784503033363659      10.235866718377169      36.050841608904655
   150   1      19.185037559096521      11.415253468499811      1.8627044935621819
   151   1      17.825415209913764      12.619857721014835      36.053742178147473
   152   1      19.096815766599942      14.031029039135598      1.8493341621168844
   153   1      17.767114149192707      15.238463618942641    0.067564850801602572
   154   1      19.096774431581597      16.676997430238305      1.6670196361768372
   155   1      17.832805581127417      17.838551762031333      36.030600105435227
   156   1      19.164581615567634      19.115072935753414      1.7463972134705601
   157   1      17.890803275232781      20.510239993371499      35.983644897318761
   158   1      19.255579087623012      21.774193820944685      1.7129387893398886
   159   1      17.882409703383175      23.078671758288163    0.086764311837236957
   160   1      19.133352089749376      24.446446663240089      1.7012990579640461
   161   1      20.494579380509983    0.032219666032258364      36.055498191396019
   162   1      21.669418211946788      1.3453880798774236      1.8969321423571288
   163   1      20.491228066616625      2.4885827572312893      35.968378219857151
   164   1      21.979682733300116      3.7772137268651682      1.7690127936872972
   165   1      20.524144012187246      5.0409063742482623    0.094963473579150734
   166   1      21.780257148970136       6.255606547213568       1.815436410204337
   167   1      20.523490583243557      7.8394352316510441    0.078249229281084326
   168   1      21.652652048102588      9.0091385403570374      1.8548615501220422
   169   1      20.391337447880847      10.183610299107096       36.09921163866175
   170   1      21.759097328885698      11.584655032460191      1.7378949411610749
   171   1      20.253686631291753       12.66770283502173    0.072644556462660173
   172   1      21.546513673629349      14.126198323205186      1.7975879885973778
   173   1      20.433712029700942       15.37599496774904       36.08551546804852
   174   1      21.822134448455468      16.644350639698594       1.941039106989207
   175   1      20.660625227751101      17.893102092569013     0.13559387713480631
   176   1       21.67201704095535      19.257022157307137      1.8589335425861917
   177   1      20.479237263596829      20.340722696744184      36.016447840404986
   178   1      21.716645442998747      21.774713760852126      1.7935792425289272
   179   1      20.564074860105304      22.911886742780098       36.04315632925023
   180   1      21.688508755474277      24.273108517276505      1.8557559590691528
   181   1      23.011647612434583    0.036652273990038925     0.10812827189321293
   182   1      24.192933250873406       1.480840281319219      1.9398205254403711
   183   1      23.025453628085678       2.503659336298357    0.055743301634197467
   184   1       24.39951667867199       3.948813755962238       1.935254525341473
   185   1        23.1644287957896      5.1177630289020861       36.08266366591581
   186   1      24.247364469125031      6.4144514425039052      1.8585508204134038
   187   1      22.987715675672771      7.6176129188206927    0.071939195384288737
   188   1      24.260368282219222       9.061202210214935      1.8453905981281551
   189   1      22.754755341066044      10.184667789496043      36.066984787729623
   190   1      24.222705630706983      11.455067565225889      1.8193290392364463
   191   1      22.986188458701236      12.899293489248091      36.030812813527696
   192   1      24.091901459569822      14.206029222568478      1.9087950631727046
   193   1      23.125405933172424      15.349020002073571    0.075778993528024238
   194   1      24.585910454590415      16.643814038742075      1.8552811576379082
   195   1      23.073895982020119       17.71422210312458      36.036378703755929
   196   1      24.267411804212916      19.320067697136043      1.8592199389689668
   197   1      23.070587805415158      20.659966538989028    0.064270987520865214
   198   1      24.315367571044472      21.790262856362762      1.8787306193647852
   199   1       22.96845750254467      23.085553168578091      36.016194290359344
   200   1       24.20060984674906      24.310829783594539      1.8438820090732637
   201   1      25.473665765644711      25.455868830683936       3.603806383465713
   202   1      1.3274761634595076      1.2723876576791464       5.438051369184568
   203   1    0.086919317407867333      2.4801110505123054      3.7790363661536288
   204   1      1.4005850588182764      3.7987561135530274      5.4546053446514167
   205   1       1.358730590479154       6.389607630028439      5.4901525456191687
   206   1      25.415958610049156        7.77924708248998       3.668489327312304
   207   1      1.1774666129665035      8.9473581274524392      5.4620696062565237
   208   1      25.304743265327144      10.202571917857664      3.6894300482127687
   209   1      1.2807442409998073       11.57729245945513      5.4080113904482596
   210   1      25.462329409485797      12.818778031094066      3.5462687975127887
   211   1      1.3272821860113044      14.054464416255225      5.4788985866902324
   212   1     0.12260969818896059      15.214582824009138      3.6921787717578307
   213   1      1.3934961085463111      16.564710509275155      5.4970574902336047
   214   1     0.14389658432639127      17.923599180167081      3.7392356259153043
   215   1      1.3734438841040224      19.100172514425463      5.4040376297485926
   216   1      25.494735903004429      20.373070469066175       3.665796280332382
   217   1      1.2617133415638164      21.730060342171708      5.3449360830442139
   218   1     0.21005517909751262      22.920908511432543      3.6426429034798344
   219   1       1.317219076065165      24.299169450916505      5.3556033808965813
   220   1      2.6553500298497226      25.360814714545594      3.6298080797181558
   221   1      3.8477118242565789      1.0851723595472369       5.231753435080936
   222   1      2.5864045494865482      2.4572240794085309      3.6503450098163905
   223   1      3.8679023034831874      3.6563432108048053      5.4197687419153997
   224   1      2.5803673428202161      5.1031980117029416      3.6476577800871817
   225   1      3.8804115539237549      6.3302089362662342      5.3176267550814478
   226   1      2.4578188937532026        7.73097788783996      3.6262415932779093
   227   1      3.8898230210667504      8.8476805681195039       5.427613940178059
   228   1      2.3705148528194697      10.268543198499334      3.6728037647180782
   229   1      3.8144314803976291       11.52548157289041      5.3420260128095185
   230   1      2.4595157615770571      12.853538042128207      3.4986489487468253
   231   1      3.8994091580618773      14.063411732802438      5.5360841045046731
   232   1      2.5254681053073522      15.191379450878499      3.5988379828144175
   233   1       3.872667393651914      16.662755032768139      5.4407550758080117
   234   1      2.6928554567231009      17.841621554474784      3.6436952015643853
   235   1      3.8932019756431724      19.156845311196349      5.4435218623568336
   236   1      2.5866693086121324      20.360098705032723      3.5518764399721605
   237   1      3.7342542091556399      21.638268009613814      5.6734573309395824
   238   1      2.7310038236138894      22.888099711248003      3.7885629640796803
   239   1      4.0306769317571414      24.139461515185769      5.4056531494883693
   240   1      5.1461791806848867      25.504595022044434      3.4786432847994426
   241   1       6.499797760193835      1.3220488312727854      5.3507343930820772
   242   1      5.0360560492338884      2.6353333595357578      3.6320235427151615
   243   1      6.5138853558635512      3.8612324099718558      5.4703714680346067
   244   1      4.9536990757946509      5.0278418780247973      3.6028936744458848
   245   1      6.3608550901407055      6.3388741888401201      5.3916217750410746
   246   1      5.0856944524921293      7.5688534162664496      3.5934738919083875
   247   1      6.3898350218622513      8.7943280888244946      5.2212476871488578
   248   1      5.0178975572327351      10.176399105300037       3.434178169834218
   249   1      6.3635634632563214      11.207894736537627      5.4022707766088089
   250   1      4.8820203493831738      12.768143543622692      3.4961228442092422
   251   1      6.3434831745733788      14.206422168303392      5.2409106337274576
   252   1      5.0639937806921171       15.30215701220116      3.5363495063185275
   253   1      6.4091595393282681      16.785491223128997      5.4227947398521961
   254   1      5.0784400735477195       17.93268402089722      3.5324989137281824
   255   1      6.5141712148751711      19.281362773852756      5.4193579786213046
   256   1      5.1042853210512851      20.365082721032103      3.6384143645369198
   257   1      6.4309847594584681      21.741235473334289       5.354751700062538
   258   1      5.1666878938149923      23.017835948290926      3.5835615893925468
   259   1      6.4613837999241674      24.386462826904044       5.336292208894645
   260   1       7.699264458783265     0.19510702336626187      3.7051551063758961
   261   1      8.9957629182943677      1.3880468557415764      5.4250940628820965
   262   1      7.7372691095648536      2.5850549331041299      3.6300492823009951
   263   1      8.8952816667788728      3.9525349588371954      5.3855440409481341
   264   1      7.6551074258935872       5.075326896193503      3.4760875890772933
   265   1      8.8519745990096634      6.5249594983965418      5.2631606590154458
   266   1      7.7937116634736192      7.7484959990914977       3.617262088484817
   267   1      8.9423337816488839      8.9133338055822282       5.510350104441808
   268   1      7.6688358442157503      10.334573453724706      3.5767973976164171
   269   1      9.0343425279419662      11.417042625524012      5.4497966943774543
   270   1      7.5232300760335278      12.805781751478481      3.8103694557053052
   271   1      8.8049381527223698      14.207097169433203      5.4195599741828424
   272   1      7.5275891089416307      15.369365384793511      3.5637092415251792
   273   1      8.8447461497588424      16.661930099983248      5.3988043680821258
   274   1       7.687348757239282      17.941136262007337      3.4956885911734727
   275   1      8.9417030748336295      19.082451183135692       5.339160407011426
   276   1      7.6424551784299863      20.455520772706013      3.5044526901397033
   277   1      8.8607605497429205      21.549177441565451      5.3868087746440487
   278   1      7.6607082300314771      23.063773730058134      3.7221275869167103
   279   1      9.0431967981543551      24.143445196632154      5.4112722967023608
   280   1      10.166255002671015    0.047604712206851682      3.6223670127949483
   281   1      11.387763898166597      1.2183512954189251      5.3702537879528442
   282   1      10.199751700105866       2.569157206847239      3.5882322546790522
   283   1      11.506028602753224      3.7202703592349593      5.3396091475881562
   284   1      10.212487189512769      5.1138370086691118      3.5375045711144142
   285   1      11.396197490169701      6.3368767862975757      5.2611349707100477
   286   1      10.274846338937573      7.6502719201094802      3.4980190418420074
   287   1      11.570995323219442      9.1067800523749174      5.5066598225033712
   288   1      10.237852071515887       10.07866594140599      3.6594970712976447
   289   1      11.582973788714853      11.661270552292274       5.319609161011674
   290   1      10.083474722322974      12.851688878069721      3.7102234340947886
   291   1      11.353993218337827      14.128306371533373      5.4919095973473722
   292   1      10.048505710442647      15.288401101879149      3.5835600593983039
   293   1      11.317980411744511      16.697892934937645      5.4903184921660024
   294   1      10.192832387069881       17.74236471028529      3.5266627787352394
   295   1      11.292273518373479      19.239687689926246      5.4119043971514866
   296   1      10.088756114317352      20.307389903713119      3.4704698544681278
   297   1      11.284865335402333      21.719468393787661      5.5091426279415572
   298   1      10.022625322426865      22.923338051617392      3.5276412352928679
   299   1      11.467021795376985      24.258802788086616      5.2407245178527981
   300   1      12.758664454889663      25.452136597663625      3.5077880522421996
   301   1      14.052418326376374      1.3016843548801977      5.5107589441876543
   302   1      12.758319911692107      2.5413391907057776      3.6445804600626919
   303   1        14.0737347397507      3.9330555458410634      5.3166026415275827
   304   1      12.646290757102744      5.0671597223303397      3.7807040737398889
   305   1      14.219258239790088      6.3710360623245474      5.5315741645437191
   306   1      12.847031782304155      7.6760619239899031      3.7952157284619519
   307   1      14.163762536912653      8.7790756092139048      5.4683115117849317
   308   1      12.821804582508411      10.153946236105883      3.6104578240598841
   309   1      14.068428544530486      11.469513804924469      5.3928973188530351
   310   1      12.624033676001403      12.993586500687941      3.5184788077299123
   311   1      13.851148708811737      14.100940026681231      5.4060745204311935
   312   1      12.551633742323736      15.413117427527768       3.549543845738993
   313   1      13.952417247074335      16.604435295244663      5.3555674190117877
   314   1      12.700976300860606      17.902405568053165      3.5281206742692026
   315   1      13.950332657129071      19.047479245501968      5.2627361789745253
   316   1       12.74456118851873      20.393565889316044      3.5878656967834006
   317   1       14.00098355226014      21.656360262797325      5.3408573274503723
   318   1      12.790199555820287      22.849475691368298      3.4392455391689634
   319   1      13.984159464806497      24.275482329788559      5.2270437470839015
   320   1      15.347246818513476    0.054482372657672473      3.4833682881046584
   321   1      16.434140570719023      1.3252483096610415      5.3537326051066305
   322   1      15.321736939002593      2.6470932497103914       3.619409656558477
   323   1      16.719790278279977      3.8911570371892008      5.6052218764664383
   324   1      15.369746103272853      5.1535998649884984      3.8014340341111943
   325   1      16.696579798980277      6.5186622904942002      5.4505129625844306
   326   1      15.355732716947497      7.6850842329980367      3.6666223032355365
   327   1      16.657226719595592      8.9604298632912851      5.4907262804017352
   328   1       15.42094762055752      10.188208508022354      3.5660403267565459
   329   1      16.485485224066043      11.493683001857464      5.3669076034055809
   330   1      15.220025988625858      12.865329157211807      3.5286926794220093
   331   1      16.338187507882825      14.162279056898363      5.2569518135920639
   332   1      15.108141426655502      15.504505158798397      3.6016480829213733
   333   1      16.528758115941496      16.567423058532697      5.4212582773816411
   334   1      15.253293999066754      17.960483593659436      3.4409271694086008
   335   1      16.482012803738151      19.152468769157821      5.3846837593554442
   336   1      15.329731750646916      20.372202881601044      3.4845960939924336
   337   1      16.599860687344336      21.688015128182897      5.2857386506729549
   338   1      15.395456080338674      23.032194666139109      3.4099672045834035
   339   1      16.529239383202388      24.431458217914226      5.3953412712809277
   340   1      17.940197996746193     0.02989894872666082      3.5563018453553239
   341   1      19.013683913432995      1.2871198366653562      5.4092385019437019
   342   1      17.884947127128793      2.5355878196231023      3.5714333617380936
   343   1      19.303897539106714      3.7929628753206557      5.3793143103483674
   344   1      17.907556156380611      4.9877628015083326      3.5747303292822949
   345   1      19.209435729617482      6.4394395320719022      5.3484368907887445
   346   1      17.904728932766684       7.630401285844985       3.697660122559268
   347   1      19.153108963197944      8.9424561317680098      5.4574901283553086
   348   1      17.890497700889433      10.206195485699578      3.5793066152360558
   349   1      19.092890620238709      11.319832546517345       5.591956329547636
   350   1      17.890659123258523       12.75251914511904      3.5181563194076717
   351   1      18.969129764760702      13.831891873660847      5.2210070545344802
   352   1       17.60273432204373      15.463506338853412      3.6245210994845238
   353   1      19.151615957301495      16.613493119846996      5.3475290378324427
   354   1      17.821471776143067      17.911308609093872       3.601496661710156
   355   1      19.058758279809876      19.075963339998847      5.3774825199996821
   356   1      17.869163642966956      20.490612581671776      3.3781436328883263
   357   1      19.142560963908021       21.63603299855372      5.4080793438672492
   358   1       17.90334083887652      23.032129398342402      3.4937487092063639
   359   1      19.070301140566066       24.14284002034163      5.5547965646296955