dump/Fe_1050_5/steps_51 (written by ASE) 

1995 	 atoms 
1  atom types
0.0      28.699999999999999  xlo xhi
0.0      28.699999999999999  ylo yhi
0.0      28.699999999999999  zlo zhi


Atoms 

     1   1      28.688631557328424      28.643753389311058      28.608025344823847
     2   1      1.5156176642841626      1.3782946146690622      1.4839037592860898
     3   1     0.26430409973191893      2.8279135682968897    0.057233332185330811
     4   1      1.6080541808910556      4.1358073881677075      1.8386069453177925
     5   1  0.00091381261744380199      5.6399337226818353    0.038168266508773842
     6   1      1.3503168461861599       7.092437315033516      1.5844447435404949
     7   1    0.099158815221178323      8.5433155610273168      28.636702146908419
     8   1      1.4833874330373411      10.015618706722577      1.3445273829263196
     9   1     0.16212174183350564      11.466041167877012     0.05730491776388346
    10   1      1.6552840626957959      12.976345688738954      1.5976678054855018
    11   1    0.033306260340296281      14.471706197277593      28.689084188013727
    12   1      1.3211856036273293       15.71575888660373      1.6867165955203971
    13   1      28.673798730678385      17.135723309949775     0.14707270562355459
    14   1      1.3833187305021533      18.621754973972283       1.513167450869161
    15   1    0.071744655906653146      20.133832960479058         28.621410012559
    16   1      1.1751752107468405      21.636165468646286      1.5395365352724986
    17   1      28.641312914612413      23.137752914163194    0.096953404680209465
    18   1      1.5313177078765332      24.505253894661287      1.4793000514137695
    19   1       28.55970325344558      25.881124630568905      28.659840910585771
    20   1      1.4226338098207425      27.228726070767316      1.4081894149401368
    21   1      2.8889021709701761    0.021055833657453608    0.073653479258609975
    22   1      4.3884217333418869      1.1952851765228953      1.2762435114718307
    23   1      2.8996138493795165      2.7393705364152425     0.13327458469186698
    24   1      4.4300015166145021      4.1006494159937583      1.6249838078737289
    25   1      2.8872696591503404       5.755136941711033     0.14986786119635562
    26   1      4.3949660716866985      7.2311351572497182      1.5867430247331398
    27   1      2.7511237837330764      8.5451501117182254      0.1844361896618352
    28   1      4.2286861950206021      10.025799838819804      1.3459622360798336
    29   1      2.9057701048882363      11.449139847601383     0.11102599409230159
    30   1      4.3155090659156699      13.000170728568948        1.46008783483013
    31   1       2.662742251252689      14.421731795865005     0.14602207225721014
    32   1      4.1849386140679901      15.697667472973013      1.4828553355157728
    33   1      2.9801504407094042      17.389533911572506    0.038358359418293589
    34   1      4.2344686693985931      18.788139389547155      1.6301123748491699
    35   1      2.8357751214327451      20.108263319671796    0.020964177437542725
    36   1      4.2380608390448646      21.402961846717215      1.6421320939579229
    37   1      2.8518400747128805      22.896809123746738     0.13559382209552948
    38   1      4.1651270472357451      24.449511438768234      1.4034502399455178
    39   1        2.76959124817196      26.024232268769712      28.647514147488671
    40   1      4.2428558334090836      27.290420702771119      1.3860188187088274
    41   1      5.7226403742757697      28.655376260593261      28.599873633069482
    42   1      7.0721858839018719       1.445501459957075       1.409241398135167
    43   1        5.69968415895777      2.9976725979485357      28.678051890362685
    44   1      7.1415043211245388      4.1655785080397232      1.4716259722389851
    45   1      5.7005916469268936      5.8763847967863914     0.11672638584399238
    46   1      7.3213502106513539      7.1300966000861994      1.3758819862082174
    47   1      5.6108442454672387      8.6176127184034375     0.11129656575362797
    48   1      7.2366752754452159      10.064301471671312      1.4341927240153025
    49   1      5.6102843573861314      11.500116799246211     0.15642604590161691
    50   1      7.0530974459540197      12.778842091339039      1.4296710769280367
    51   1      5.5296735011411391      14.307347479716846      28.651422550122664
    52   1      7.1493117735901581      15.555753494948805      1.4095954172636995
    53   1      5.6316741178167469      17.373621053417139      28.534962102108739
    54   1      7.2080332841559986      18.523419393504824      1.5890058921513051
    55   1      5.7381823912280456      20.004093272794222     0.25028440722441025
    56   1      7.1413491296431335      21.513518400190563      1.6090772425542581
    57   1      5.5675427913971438      22.888658618637461     0.22277308755737962
    58   1      7.1807690879892743      24.045090152113378      1.4369572638475461
    59   1      5.6894362091511894      25.734383687508188     0.14451509192441567
    60   1      7.0119282838335915      27.239301808812797      1.5529279404131224
    61   1      8.4726256075010085      28.568331269209668    0.036015340090750733
    62   1      10.201776527568059      1.2082492065740891      1.5831912669644113
    63   1      8.7806272871018649      2.5954034614495183    0.057196631456554278
    64   1      10.039987033412338      4.2787774136926755      1.3897349344840915
    65   1      8.7511110626934432      5.8201057608485245     0.12920374072024296
    66   1      10.099716442997241      7.2316006904030035      1.5295840760694313
    67   1      8.7083805008356361      8.7601763385156044    0.026874224997584392
    68   1      10.160248294363337      9.8901430080839372      1.5629238294318941
    69   1      8.7588850674312528       11.39821619681687    0.013946010542724692
    70   1       9.944163130195637      12.736535113672257      1.3740279581498374
    71   1      8.4987145686505681       14.16040692169892    0.083278899292656527
    72   1      9.9747551255079614       15.53217330269992      1.4448079337132878
    73   1       8.439225820416242      17.137861758428055    0.066482585552034734
    74   1       9.945089203675149      18.452400414477921      1.5768568968748233
    75   1      8.5340168447810871      19.741395364216238    0.046709941769563446
    76   1      10.067556079902072      21.446140258649784      1.5619036534422546
    77   1      8.5621208512216782      22.800205975657025      28.589456140427501
    78   1      10.102632860739076       24.30242885080748      1.5532808695763838
    79   1      8.4468826248730391      25.742263953348623     0.26935148313590379
    80   1      10.098542505179607      27.219655299981021      1.6346740310034744
    81   1      11.563219480593478       28.40370863797131     0.16436804800306404
    82   1      13.050281265931423      1.3829900713207515      1.3051671861382828
    83   1      11.494396608759615       2.948003383966165    0.024259238471290683
    84   1      11.379436698481156      5.4517390290981522      2.8478968380653553
    85   1      11.572376993520551      5.5614317046656057     0.11622595920425738
    86   1      12.959228434615973       7.169838621127484      1.4369601871641733
    87   1      11.617528042302892      8.5096701603412441    0.092817021329938146
    88   1       14.38395403949302      11.499196923162076      2.9542922472283846
    89   1      11.508631217404238      11.329247749528104     0.11598764404409403
    90   1      13.138976470390478      12.870442287191024      1.2020722800665793
    91   1      11.320162924951369      14.302771645142434     0.16623526686742018
    92   1      12.839263437310258      15.612233387125345      1.5182505807435411
    93   1      11.493842744309564       17.09571220707657     0.27630500028719784
    94   1      12.758572741152488      18.639338653575525      1.4257872145003836
    95   1         11.416573064786      20.008790339226099    0.020341975447149708
    96   1      12.885672586236762      21.453016576149473      1.4263774121038528
    97   1      11.554925638445694      22.789326000364426    0.087598999103738459
    98   1      12.890762060590832      24.504035424272431      1.5464493078275161
    99   1      11.507564357318907      25.816977060228751     0.11239034161569644
   100   1      13.061576677001531      27.187627906119832      1.4797776392324513
   101   1       14.28058254372467      28.585803918057938      28.669462421299276
   102   1      15.754838222905567      1.4630748355927166      1.3605334785419698
   103   1      14.432107771320812      2.9649693509769808    0.047880109632796902
   104   1      15.967989921267996      4.3026519175278475      1.4299547220058797
   105   1       14.52606651399867       5.608027291368856    0.090677710493628064
   106   1       15.68441844071309      7.2745426174662642      1.3273499022259669
   107   1      14.270179350156679      8.4763908304799092      28.667072335781146
   108   1      15.897306508159758      10.151297874113096      1.3443409689289643
   109   1      14.509941119105545      11.525655718444442      28.675645985404465
   110   1      15.990302647982434      12.852065754526587      1.3552119056932852
   111   1      14.481192305327307      14.560039112354671    0.020775080338319176
   112   1      15.791267987377092      15.634404553471079      1.6884652874736503
   113   1      14.449714591405147      17.241012903313695     0.18310103483280493
   114   1      15.811243571829495      18.482464861673023       1.528999979693197
   115   1      14.236335453582941      20.311417377544352      28.558159620262515
   116   1      15.701165220164299      21.608231778345562      1.5625919950643379
   117   1      14.288217337543767      23.003814406360849      28.645882445032228
   118   1      15.822890710166826      24.340483315554355      1.5665202699492851
   119   1      14.406278420561682      25.730476860850032      28.681036256025891
   120   1        15.7323002806544      27.122914399198397      1.4752130553273552
   121   1       17.31254615659369      28.560958482107793     0.09623833247209182
   122   1      18.715259479819434      1.4201718496519444      1.3268491675800203
   123   1      17.423983890995821      2.9122547563313752    0.025730736269099438
   124   1      18.927306348887491      4.1336174685946085      1.4849213542998889
   125   1      17.496081888814729      5.8566557081181569    0.052419373459065444
   126   1      18.821592878413576      7.2453921685589373      1.4470404358867757
   127   1      17.486471049795909       8.639191454125946      28.584199291278878
   128   1       18.68525290364374      10.039484728081206      1.5589863333011857
   129   1      17.291589975427978      11.570424302284446      28.567481294944503
   130   1      18.719498400421433      12.984046711068746      1.5381296930194943
   131   1      17.580738488644222      14.356826972117291      28.601797849323873
   132   1       18.73083709016726      15.761180722572474      1.5184683452961389
   133   1      17.331821424752988      16.982497600627553     0.20471919062603103
   134   1      18.764775353372503       18.58038086188666      1.4103778777295477
   135   1      17.108081702561641      20.110848550012797    0.085610744793393659
   136   1      18.604725838864258      21.339797543558586      1.5040504199080718
   137   1       17.05447828802598      22.850215607118422   0.0065206458350644458
   138   1      18.604595475318643      24.629543944067997      1.6308320350998773
   139   1      17.296088339243695      25.670981884680405    0.049976489413404462
   140   1       18.72826626025789      27.187485013414392      1.5408976630299327
   141   1      20.093779194462943      28.632027746804116      28.667316833048773
   142   1      21.455851478374374      1.2251674918060642      1.2985520411493199
   143   1      20.123642496135194      2.7185534288202136      28.610770075578074
   144   1      21.556214357072818      4.2856412237987183      1.2788195860158105
   145   1      20.315799486485442      5.8242898155007747    0.095130153473530848
   146   1      21.756132329660581      7.2408002595083758       1.298353624704623
   147   1       19.96955311402704      8.6447903552904108      28.606709724671948
   148   1      21.566409561424756      9.9265633957322734      1.4173495097566504
   149   1      20.107646131879882      11.487611390517809      28.610824617057482
   150   1      21.432353460714147      12.866908389687813      1.6098092880421759
   151   1      20.187446816885078      14.206869980842038      28.679265146906445
   152   1       21.91444960872791      15.765410673579629      1.3281703314897306
   153   1       20.01052368091046      16.995325871515178      28.598009488359935
   154   1      21.480413249123274      18.549589873499368       1.573184118133939
   155   1      20.148047835892974       19.99957800311816       28.67319068863403
   156   1      21.573231487609441      21.597373799252747      1.3851054926680475
   157   1      20.047451127259215      23.093967225534342       0.385133992259033
   158   1      21.461686367654746      24.259967365280485      1.8934300674289273
   159   1      20.135545948903783      25.801885771272392     0.22350157761426315
   160   1      21.569974713445593      27.198756658554917      1.4487630009036241
   161   1      23.015322130251718   0.0021629103363579837    0.068133678040248877
   162   1      24.336701348495165       1.447862193539287      1.4968761966614805
   163   1      22.940284172848106       2.840117136809738    0.049104636045876705
   164   1      24.444236010447248      4.4735263680909965      1.3878473617793243
   165   1      23.256866947088689      5.6527004170785551    0.038190269609413116
   166   1      24.470556036722904      7.2887183263593522      1.4116856181849811
   167   1      23.124646426691815      8.7325539973714275      28.626843420878178
   168   1      24.447810560231972      10.135688478221677      1.3571671889531109
   169   1      22.970487527647656       11.60166282032205      28.575623400382515
   170   1      24.572348959760603      12.854553586244933      1.1996681898013308
   171   1      22.987631825713912      14.167666213622541      28.662171443936778
   172   1      24.434438716756851      15.637751984690377      1.5716214968486264
   173   1        23.0718056572174      17.300113341535337     0.10672113000908888
   174   1      24.254996514312356      18.768212349518727      1.6031159463579676
   175   1      22.801101022369721      20.125763862267657      28.690309729536636
   176   1      24.248074217402831       21.34384667955096      1.4807617824497128
   177   1      22.856191510168131      22.985513909091786    0.012678889505775713
   178   1      24.448215859159873      24.175398607619584      1.3866161952790443
   179   1      22.774068626470079      25.701637544027601      0.1693823879384127
   180   1      24.340518461314915      27.383754942167748       1.393503364314733
   181   1      25.971362116607349    0.064052936445149949      28.547931758254812
   182   1      27.261946635738944      1.1996009177649749      1.4806359323359863
   183   1      25.925033209366497      2.8045346876708215      28.655098090028197
   184   1      27.464604704135418      4.1350729870174447       1.541614997988551
   185   1      25.968415357109865      5.7275327932019913      28.668907297591293
   186   1      27.378653293974079      7.2885922469351856      1.4303836107106453
   187   1      25.706813389599454      8.6891423428815209      28.623704335234411
   188   1      27.305975440051416       9.841833805102798      1.5155803817111282
   189   1      26.025549403928544      11.326156974115076      28.621817693762367
   190   1      27.507560419804058      12.929035341168408      1.4132224238551188
   191   1      26.049266047455284      14.352507312746701     0.18958876920282827
   192   1      27.059538564871378      15.900757159158887      1.5134005975324392
   193   1      25.805213022598323      17.250474100539087    0.068305482479297658
   194   1      26.976684451166602      18.700720710525498      1.2346272203711568
   195   1      25.673648473169628      20.082620972359898      28.523329842702609
   196   1      27.246117032577505      21.551264103846862      1.4701706245297599
   197   1      25.582826552469793      22.720962915365774    0.069992349162021003
   198   1      26.954160833268016      24.368893365815509       1.536280389689433
   199   1      25.740122657952469      25.908662543871944       28.68765002910672
   200   1      27.298802784285929      27.053783320779107      1.5056464007697965
   201   1    0.088306066638269384      28.466056623174339      2.7200152631926806
   202   1      1.5203803270829781      1.3275140094560127      4.4385853711594567
   203   1      28.668850871447901      2.7122882929700598      3.1793696353090768
   204   1      1.5194730956491873      4.3081812373777346      4.5705555760566137
   205   1    0.055520144109119179      5.6791192538087714      3.2116563074586093
   206   1      1.4342739737565935      7.2557222379986213      4.4267701796840075
   207   1      28.683272930597216      8.5222223151131065      2.9565917037121099
   208   1      1.5162045076709676      9.8938496916269418       4.375946268841143
   209   1      28.613311082311714      11.408015212635888      2.8342673140259871
   210   1      1.4879177567809052      12.893382997416452      4.1575627630731038
   211   1      28.630741819043013      14.304701536747135       2.842461561756795
   212   1      1.4274896239448711      15.672337179154395      4.2599752053321547
   213   1      28.475793816463582      17.426109051110053       2.845230576434882
   214   1      1.1882989990060651       18.63723138162386      4.2024312472382794
   215   1      28.609553961735784      20.212964659826898      2.8510782344079644
   216   1       1.341846947003217      21.650691469782597      4.2968352214666528
   217   1      28.556608772355549      23.060454328400635      2.7256446946446311
   218   1      1.4275398653672959       24.50667667243707      4.2512014205484112
   219   1      28.609277637021918      25.744424563888526      2.8238918689631411
   220   1      1.4408211027553792      27.235933030546519      4.3985086820666925
   221   1      2.9552373003072754  0.00011077892621660668      2.9501936546048113
   222   1      4.1970025135469351      1.3576528158158436      4.3767409467801883
   223   1      2.9652879518414195      2.6360357259099496      2.8321788686640943
   224   1      4.4250042126049269      4.2120514597326313      4.2451217231506631
   225   1      2.8420412377383961      5.8203411737567992      3.0174966053520134
   226   1       4.342026953262959      7.3926166744860682      4.2497810942572327
   227   1      2.7854146099977464      8.5690568261043953      2.8269418698207454
   228   1      4.1155130308419254      10.157153573146656      4.5088086059439627
   229   1      2.8806085028314437      11.440104733091582      3.0150977581226073
   230   1      4.2768073061586422      12.813946816616316      4.1428491529278846
   231   1      2.8243923805567199      14.346413959670516      2.9439536269464615
   232   1      4.3074425909139462      15.678560730302634      4.4710480933030343
   233   1      2.8958615676275712      17.136796738800506       2.988884291141209
   234   1      4.3311770844544419      18.656046128612896      4.2810926819146111
   235   1      2.6847237477614745      20.085026459281689      2.8885288449528539
   236   1      4.2143935374778199      21.704896871526046      4.2427484128726745
   237   1      2.7945527489004132      23.023946476260729      2.9368444981092359
   238   1      4.1453580377954413      24.446677492889904      4.3178236895461959
   239   1      2.9581128558937042      25.921474655303442      2.7766096509093701
   240   1      4.3080357389414878      27.436500768817591       4.498901746995644
   241   1      5.6219540048438486      28.664482713118989      2.9090457835937045
   242   1      7.1945590535217754      1.2667408806225127      4.3205116270890151
   243   1      5.8364672358885086      2.9180743923495385      2.8296641926050139
   244   1      7.2669843761787121      4.2005118335939118      4.4672778949563714
   245   1      5.9628586163607711      5.6726110369228042      2.9912690365842307
   246   1      7.0928530435472661      7.0125923315998131      4.1630632562476171
   247   1      5.7561618595750703      8.7336322141446274      2.8914496968140924
   248   1      7.3484182207535333      10.249020638496999      4.1245433148952539
   249   1      5.6555588219599855      11.343058204118467      2.8351989462543092
   250   1      7.2267222796661574      12.818342753518815      4.1853312862812144
   251   1      5.6940302280014317      14.480234608123377      2.9078786228002294
   252   1      7.0894823150850854      15.701157049446181      4.3819548325109201
   253   1      5.6089334310787384      16.974294267060976      2.7342476845752008
   254   1      7.2710282233090258      18.591539971070045      4.2141886507165633
   255   1      5.8727077144320585      20.071967298911687      2.8468693154102072
   256   1      7.2634474164478977      21.525100026348046       4.408647452749558
   257   1      5.5491351488229244      23.028390568568657      2.9934147880161199
   258   1      7.3940899293343838      24.575128577798665      4.2844977992366919
   259   1       5.519450522217455      26.026102467824796      2.9363028500947777
   260   1      7.4293881141528475      27.228504009710925      4.3152427172632741
   261   1      8.6129928243525651     0.04355244196037808      2.7280813986726682
   262   1      10.052743383992748      1.2946945994612629      4.3064165320314141
   263   1      8.6063523344710706      2.8826315360121715      2.8215194695481385
   264   1      10.059157818982309      4.1583982472462049      4.3327908178273118
   265   1      8.6358671202272728      5.8824456362681072      2.9718396633164206
   266   1      10.112599617109018      7.2636654153095588      4.5127005669065543
   267   1      8.5138395082392346      8.4977905904968729      2.8256195326755331
   268   1      10.180742839703827      9.8681086699948253       4.537406380812171
   269   1      8.7023199042768002      11.267622375197247       2.765828460830198
   270   1      10.287456700343425       12.43319172173185      4.2515782766284227
   271   1       8.630597246338402      14.234059162283085      3.0639106217874987
   272   1      10.132632905175765       15.63507679256985      4.3849459125229462
   273   1      8.4964968004529577      16.914368012440899       2.918664264350431
   274   1      10.008470846835761      18.540653866464435      4.3940269578592801
   275   1      8.6226238090900509      20.186862026652243      2.7956628937792392
   276   1      10.033610539304092       21.50961179719819      4.4752096480131565
   277   1      8.6333848291295485      23.083758873305268      3.0048366339546448
   278   1       10.14174639445204      24.413647746441328      4.3434110091250506
   279   1      8.6467478525641148      25.747875646587083      2.7772044308259289
   280   1      9.9143198294808634      27.353529756677805      4.3140610705753275
   281   1       11.68362566509605    0.056321935670564718      2.8309124807582164
   282   1      12.778440819462093       1.518308200869023      4.3431230526486724
   283   1      11.559841224898491      2.9264117406954417      2.8800534080499243
   284   1       12.93048855616326      4.2826070830831426      4.2226154915027747
   285   1        12.9424523006741      7.0556765098767915      4.3599322293870424
   286   1      14.430251141166421      8.4909663479406365      2.8841898284135468
   287   1      11.470132053496634      8.4993284903609041      2.8296195991693125
   288   1      12.882322199304392      10.027725986389859      4.1149465155258298
   289   1      11.801674271752937      11.368591176984964      2.7065087524312501
   290   1      13.128905520992742      12.827735847959975      4.3366570202967543
   291   1      11.413858462530058        14.1812347133498      2.7079649461485369
   292   1      12.796683026740533      15.619679283490139      4.3848537502473732
   293   1      11.331784835443056      17.096274754923929      2.9844773850522204
   294   1      12.851522604799531      18.601533035847499      4.2691319388190596
   295   1      11.409685602443075      20.172462006239996      2.9848115565885043
   296   1      13.015272958968094      21.587682562497758      4.4764215964579739
   297   1      11.543980565285162      22.788272665095889      2.9691483469651065
   298   1      12.881806573581429      24.465198145811335      4.3512423433500924
   299   1      11.460859210574927      26.039005083230371         3.0371140708316
   300   1      12.991941038879503      27.435777257195504      4.3045572361822479
   301   1      14.530886479245783        28.5016427812694      2.7362536972403841
   302   1      15.927351732395401       1.485503846677626      4.2999600767317041
   303   1      14.236054028920615         2.9199940135414      2.9401029518513551
   304   1      15.742842097714206      4.2660988899905661      4.2142957075277376
   305   1      14.453721949041169      5.7832976878268125      2.8089076165004125
   306   1      15.756675235274113      7.1768714791117825      4.2302568157492049
   307   1      13.073326908456322      10.138986534275617      1.3679802975158857
   308   1      17.119021554475424      11.490204684393504      2.8022264856528394
   309   1      16.101821641261736       9.868460490705715      4.2430167065200495
   310   1      15.758653912636703      12.939162325424933      4.3246487469016888
   311   1      14.296278127147325      14.394858601335297      2.9245694837412421
   312   1      15.749648828329711      15.739079159330327      4.3939227960598659
   313   1      14.092469329003478       16.94649181066751      2.8638530560490931
   314   1      15.675119818651201      18.573634806517852       4.310437835987381
   315   1      14.352242421194484      20.128270998499488       2.972828154932496
   316   1      15.947192665066385      21.494334087359928      4.5091947483106312
   317   1      14.374536358678363       22.90467259607529      2.8692041535702391
   318   1      15.875854600445154      24.201878522374333      4.4050792157625871
   319   1      14.417982585995318      25.773691248077281      2.8401092874460128
   320   1      15.801243301672839      27.030234908644459      4.4162015325093318
   321   1      17.263734687931098     0.08290529769168424      2.8799291196160226
   322   1      18.735420301601227      1.3293576937209202      4.3732612661326851
   323   1      17.259786102575042      2.9613335226189488      2.6858054628925845
   324   1      18.750498836769392      4.1615146413343016      4.3254951861822404
   325   1       17.31292800604891      5.7130785575948444      2.7803269923731024
   326   1      18.823162804655848      7.2463512099338248      4.2319288605950431
   327   1      17.297636026917989      8.4520111729763876      2.8088928923162477
   328   1      18.743107398251592      10.027379014883545       4.222700105546096
   329   1      18.695860966928048      12.848584845916406      4.3316123897274705
   330   1      17.154419093332958      14.273506081308772      2.7061471473719285
   331   1      18.826827105354354      15.889886821688368        4.25878236732221
   332   1      17.412098973333677      17.217858537528915      2.9434911466434266
   333   1       18.78965536248089      18.596216523463998      4.2471212376479199
   334   1      17.019543913170953      19.908512722049917      2.9795335170290951
   335   1      18.556693831829836      21.223438882540467      4.2424061734425687
   336   1      17.186433508741771      23.030397572923199      2.9144716443135943
   337   1      18.669064053245311      24.328032261649653      4.3227884355120079
   338   1       17.31879364477663      25.885420903638106      2.9288573750699483
   339   1      18.599277211007266      27.403493390532681      4.3232954022304995
   340   1      19.997638024366299    0.088343577745195218      2.8462691470571144
   341   1      21.531950773700462       1.469408599507257      4.4441430720857005
   342   1      20.272520510969709      2.8846495849143827      2.8932125380472833
   343   1      21.532429387099334      4.4330071071193098      4.4133135489135134
   344   1      20.400359564449086       5.885345743808637      2.8941710820619031
   345   1      21.754349551907204       7.353824676967843      4.1912844680918546
   346   1      20.119153312489683      8.6467930347514255      2.7053398317192641
   347   1      21.602927140536519      10.225706030935838      4.1841173894904884
   348   1      19.979583169502629      11.480414921166101      2.6849965947579664
   349   1      21.633643507644294      12.949731317697479      4.0496371409804395
   350   1      20.108489094911342      14.264508701790289      2.8359494504564511
   351   1       21.75357157268558      15.561392929282555      4.2794937299001585
   352   1      20.274728283010198      16.930520773225492      2.6928923149771085
   353   1      21.568804203440585      18.698238748038634       4.192791449106565
   354   1      20.224477544011954      20.029181041958264      2.7368965952847235
   355   1      21.439541244162736      21.775098995399841      4.2625602073676374
   356   1      19.913229896635727      22.781270488235673      2.9030297906733824
   357   1      21.595267881041885      24.186936120620803      4.6073062235306788
   358   1      20.246371900829093      25.929782766345824      2.9407424950688728
   359   1      21.601550387148396      27.301193974018016       4.474958996447036