dump/Fe_1050_5/steps_21 (written by ASE) 

1995 	 atoms 
1  atom types
0.0      28.699999999999999  xlo xhi
0.0      28.699999999999999  ylo yhi
0.0      28.699999999999999  zlo zhi


Atoms 

     1   1    0.066330848961376837     0.30369850626125261    0.068663672927300412
     2   1      1.3717155190862971      1.5831467627503129      1.5910897202553866
     3   1     0.13972101389489558      2.8471584957413514      28.636983727577221
     4   1      1.3922755481059548      4.2828323577028993      1.3532464130841604
     5   1    0.012644620015864612      5.6437538475210056       28.55002497462965
     6   1       1.340585179487447      7.2815045897647792      1.2049967902875325
     7   1      0.2425079862142433      8.8454617486591989       28.68086587561514
     8   1      1.4434640416375371      10.091971630568782      1.6261948811866211
     9   1    0.039579782329202118      11.590171613873288   0.0087254317758834084
    10   1       1.267134824118739      12.964245918192624      1.5454168377930049
    11   1      28.661103340982638       14.54313739961823      28.638177560368039
    12   1      1.2175775779400169       15.76603457440868      1.4124922204890022
    13   1      28.436631248500206      17.198934925027867     0.10370013791133489
    14   1      1.2893898697322701      18.483156475243216      1.5593895545061407
    15   1      28.686655908792034      20.272357536496727      28.697718261955508
    16   1       1.602427450427707      21.427331065655618      1.5200909824561886
    17   1     0.19336839945546291      22.864774673310134      28.659342572703821
    18   1      1.4056583409427306      24.465050420789581      1.6468232918500338
    19   1     0.14343054929894722      25.866910508672113      28.638613508284557
    20   1      1.3986739262058925      27.308318502245779      1.4173087490747081
    21   1      2.9446612613619894      28.467051985140813      28.584580024881674
    22   1      4.0363322890442346      1.5221507994140431      1.4665985211951107
    23   1      2.9608219649637948      3.1614085609029225      28.670562384590454
    24   1      4.3207615634597465       4.689673062195757      1.4709645229209636
    25   1      2.8247476606055653      5.8824421075301538     0.15367592065181265
    26   1      4.3050509424924526      7.4803466763562154       1.243440647824422
    27   1      2.7367874581305869      8.7861269597476284       28.68633038051064
    28   1      4.2890959508790996      10.248988136971686      1.4405583022090116
    29   1      2.8738332994949003      11.593550343945296    0.024182713983634595
    30   1      4.4336415007773358      12.954471809690355      1.4541163656779523
    31   1      2.8821667071532082      14.435431315736379     0.16283975853390301
    32   1       4.410434813579525      15.829162412570151      1.5373810248866318
    33   1      2.8016486322045115      17.176781760840811     0.16402779338078505
    34   1      4.4175907058640327      18.579633886158202      1.4718951020505298
    35   1      2.8145248512567607      20.002044617016502    0.088856561911677651
    36   1       4.393411311335055      21.582056102873903      1.4293892945962279
    37   1      2.8711331985404196      23.008459620842942     0.05913421597638268
    38   1      4.2434378131859818      24.165441239254484      1.5150466692508517
    39   1      2.7387128123380542      25.963103093100393    0.022966794089438726
    40   1      4.2181481517196318      27.291391380339409      1.4457999307643246
    41   1      5.5918840802255332     0.12999644145379533     0.10995254206582103
    42   1      7.1754454184411269      1.5575604912291736       1.618615688748672
    43   1      5.8062778989590935      2.8822311462887282   0.0080992916526838651
    44   1      6.9856579364454303      4.2662000200892702      1.3324497555792401
    45   1      5.6413907238798986      5.8531439477257914    0.013178693969632614
    46   1      7.0906719909666549      7.3850809811268148      1.5583997175542668
    47   1      5.7523956918423718      8.8710920200484935      28.517943733333244
    48   1      7.1743731809182147      9.8603531912895708      1.5531164078417856
    49   1      5.7568950302829451      11.487453086917155      28.622095892438185
    50   1      7.1632309591439167      13.104608999449228      1.5063940147141242
    51   1      5.8420623495576569      14.385234956966098    0.036248912544499357
    52   1      7.0543969956250638      15.844780047104898      1.4913979633774381
    53   1      5.9658468991899509      17.111160294819722      28.620292990117338
    54   1      7.3468073263633986      18.705865702905612      1.6169119959650855
    55   1      5.6235776406332807      19.981428922335041    0.016083149298822246
    56   1      7.1954392738688133       21.57469933650318      1.4138637862797174
    57   1      5.7563199722783676      22.961413016706221    0.012327641467368257
    58   1       7.192032044737191      24.288081229234791      1.5831563148745991
    59   1      5.6222762927383085      25.579326723225815      0.1335260615210927
    60   1      7.1114580292836775      27.130465637554451      1.5250028424967794
    61   1      8.5377292368751512       28.63813707093674      28.686369477133859
    62   1       9.979483544782326      1.4067330123017199      1.4378504599975586
    63   1       8.305072989881193      2.9267305118460518       28.52221981554931
    64   1      9.8395474708766386      4.2553477729027129      1.3259299818188413
    65   1      8.4109027128152682      5.8276116878131576     0.17724863392817267
    66   1      9.9487308429190815      7.1603285207286405      1.3755914108127609
    67   1      8.5030929727303572      8.4938711984388036    0.027461848552161432
    68   1      10.010834646352112      10.183907076137041      1.6010311414429457
    69   1      8.4344416099629402      11.634796653763578     0.14696968220953283
    70   1      9.9748053341554179      12.677650916289476      1.7480754195113937
    71   1      8.8545716509824359      14.408922882305987    0.047169375327030277
    72   1      10.022421156143411      15.829041742722287      1.5844892108750279
    73   1      8.5955557761514552      17.214312358389304     0.15899981404519375
    74   1      10.009411894864808      18.535635630946643       1.613694013313999
    75   1      8.7660682871974149        19.9046858748811     0.11761003311621607
    76   1      10.205140216023446      21.498541700798857      1.6162388818029056
    77   1      8.6367983740640177      22.874297420434527      28.646582618965571
    78   1      9.9348631574958741      24.378580988725361      1.4993003268780729
    79   1      8.4831264921146694      25.924964063764616    0.079952652358224491
    80   1      9.9897195247827089       27.21160033416777      1.5015035041121556
    81   1      11.639510029483182    0.028097687753449927     0.16716422806628087
    82   1      12.913689741304109      1.5389446160330973       1.591765632693442
    83   1      11.243383373721791      2.8588619309249683     0.14747898291549297
    84   1      12.731606056659986      4.2244138746899997      1.6169409470840954
    85   1      11.331189687243093      5.6927577398960914     0.10281860430519607
    86   1      12.870892480862274      7.0721588629059706      1.3046484846340041
    87   1      11.538970201719513      8.7756715916290489      28.619206749653248
    88   1      14.228948582339939      11.506825778574775      2.7166293834670325
    89   1      11.487265813012138      11.439123230680371     0.12416039437100602
    90   1      12.817538409178749      13.046417808573583      1.5347647334866803
    91   1      11.313577980585174      14.580111475687898     0.24994698758790709
    92   1      13.000805214404661      15.644309631733123      1.7120247650151093
    93   1      11.618298865462723      17.345255931304017     0.12450077177617216
    94   1      12.976946222644482      18.737973961607203       1.486464173815887
    95   1      11.532603993088502       20.18299235336627     0.13504897358202481
    96   1      12.986027792288658      21.751552437540948      1.3626018165199743
    97   1      11.319871974058431      22.876213089182873    0.055058793691875912
    98   1      12.899599938746585      24.316074975797338      1.2320640735036597
    99   1      11.258559646319789      25.698856651058705     0.15652826968845368
   100   1      12.862041178978158      27.145157130971594      1.4631115091226887
   101   1      14.370254038790767        28.6495416800059     0.22720905294718255
   102   1      15.668237986006941      1.6093716129233719      1.5000183742684834
   103   1      14.156002712732091       3.203227864207439    0.031615449873572773
   104   1      15.675751744986899      4.2728926525131339       1.532415074169819
   105   1      14.343354690119336       5.585627237471809     0.13923689901608879
   106   1      15.746195316092198      6.9379822289679591      1.3391446911113358
   107   1      14.304587527793416      8.5923558242934863      28.640459171650651
   108   1      15.897918673253521      9.9995931854909106      1.3209326134568422
   109   1      14.161294395975833      11.419601559479064     0.15146681319122299
   110   1      15.687482490900884      12.809100302932924      1.2484620354603166
   111   1      14.384225808991458      14.335619571411428     0.10627683589716523
   112   1      15.916649323374619      15.929650392400537      1.3858741032561617
   113   1      14.271029141236157       17.17696322362826    0.023532559203420067
   114   1      15.872507046808412      18.521823376305164      1.3703243851273106
   115   1      14.379499947337713      20.110050792292217     0.03151134757479198
   116   1      15.768560218662364      21.495441874739456      1.4564944505008728
   117   1      14.355917751970086      23.121111304018932     0.11875044201423174
   118   1      15.820410428403472      24.422264472915867      1.4017978545418495
   119   1      14.432000781700758      25.841179551295252     0.07364842787710571
   120   1      15.939710118719338      27.319395842443939      1.3766338595385823
   121   1      17.294549906869157  0.00087376528088044128    0.097152545446385824
   122   1      18.492939461916304       1.507710085227097      1.5345857897044757
   123   1      17.334129605249466      2.8899762158333444      28.646108367414829
   124   1      18.502754496143325       4.362609707068378      1.4671874942912484
   125   1      17.269605564379535      5.7353858503206228      28.610007588117188
   126   1      18.725560511443934      7.0517930602209873      1.4991674060870759
   127   1      17.343642664281639      8.3954053707482768     0.11142537821700683
   128   1      18.699300660477071       9.759756046192658      1.6210446192896819
   129   1      17.332993516448628      11.288302358353867    0.090341599512384976
   130   1      18.803201632782518       12.75563288626164      1.3917324822397064
   131   1      17.304722427941538      14.252003892137022    0.044303747039362046
   132   1      18.827350466151241      15.668005584266533      1.4867389530497925
   133   1      17.440340196589425      17.066386263776696      28.684618136361109
   134   1      18.689129027943494      18.787710913134585       1.418595177121176
   135   1      17.095519775135276      20.150552670028034     0.16408684699672452
   136   1       18.58629382386238      21.722181428340356      1.3381685283347575
   137   1      17.107396614142811      23.202970261144756      28.656733299882177
   138   1      18.652345370274926       24.51845127933435      1.3831377747981377
   139   1      17.469051455160571      25.801677904862064      28.638838237011342
   140   1      18.950152603357665      27.278094941819049      1.4147648102752106
   141   1      20.156761551892188      0.1115549758500493    0.071713265518997135
   142   1      21.720927045482291      1.5581527130748334       1.488482717614932
   143   1      20.087287818614996      2.9022271889328257    0.016716719785188159
   144   1      21.444429135845628      4.2753257331424894      1.4564705071134652
   145   1      20.028932425042715      5.6994436713356409     0.24635857162442112
   146   1       21.57881034692031      7.2209593347594563      1.5551908771758338
   147   1       20.05002676983294      8.5334998244440747     0.13601740690648975
   148   1      21.600513775424023      9.9423015308793392      1.2883067220014472
   149   1      20.055030165793546      11.513315825678326      28.588128561313397
   150   1      21.648077582654381      13.012181266708106      1.5741527069901375
   151   1       20.19047581136919      14.414436671668794     0.17455261103219763
   152   1        21.4883644729175      15.923275148885773      1.5140808484568882
   153   1       19.94535683500591      17.244767748311379      28.605803671798569
   154   1      21.456096811628335      18.512108365306954      1.2710611246498955
   155   1      20.307680316201392      20.059364506602211      28.563624847831761
   156   1      21.723331308369875      21.366306760037826      1.2314507811930868
   157   1      20.305980420557947      22.994631337094702      28.651994423620863
   158   1      21.590905575139342      24.312264760363647      1.5145161064615427
   159   1      20.584759114879635      25.745076461904482      28.676848543384281
   160   1       21.64349240035456      27.261839941628523      1.3132626205954814
   161   1      23.033564684804329    0.042590958631546917      0.0826810230064325
   162   1      24.536886679239618      1.4182058839383098      1.3287300670571993
   163   1      23.210551061953364      3.0723861874638549     0.12641624160391968
   164   1      24.430004955860031      4.7139794019720176      1.4131351065066142
   165   1      22.893877814542893      5.8778015932204601      28.585441264198625
   166   1      24.393797471875565      7.1174066623196719      1.3955475930990013
   167   1       23.00896108813054      8.4420487015598713      28.691756415735533
   168   1      24.480980078173289      10.049883869079789      1.2413577493216514
   169   1      23.070977763141684      11.449749788631822    0.041742329817998275
   170   1      24.289212403062507      12.894418180100844      1.4994943448234732
   171   1      22.988460847525172      14.535631594147693      28.681613551794349
   172   1      24.374501257691737      15.829039581879194      1.3249415595375225
   173   1      23.013161927021741      17.229660446418752      28.589259625686815
   174   1      24.540953324451543       18.61816007950258      1.2809775384437105
   175   1       23.03501427444932      19.827836820791287      28.667915638645908
   176   1      24.485295489088244      21.525540330983542      1.2491685814799895
   177   1      23.108138432676448      22.947607844351126      28.633338668260038
   178   1      24.430710333649337      24.630889654900539      1.4480739808580438
   179   1      23.155151760738651      25.707597605141796      28.643822758223067
   180   1      24.580183035022035      27.248408453808555       1.338634188486491
   181   1      25.945070045320648    0.075572470221972513      28.500491638508709
   182   1      27.233906823856724      1.3888446151784692      1.4330161121598843
   183   1      25.749838496021347      3.0930890878697364      28.547794145970503
   184   1      27.381741537128299      4.2912445729984707      1.3559412995622091
   185   1      25.889742664563215      5.8653064612608317      28.555233074802061
   186   1      27.186690922145303      7.0301339407760652      1.1807844128150933
   187   1      25.731149159961699      8.4121335480291748      28.487256868900019
   188   1      27.392009612133705      10.262240341882549      1.3568538313366043
   189   1      25.795521687590274      11.600814641939742     0.13886618604805093
   190   1      27.260831845600869      12.915537351260738      1.6054469409172736
   191   1       25.82361611371913      14.382522042089805      0.0646779569995828
   192   1       27.23868380497197      15.717710316505144      1.6078400241082595
   193   1      25.797980202376174      17.186003211507071      28.667420346649752
   194   1      27.313854744194238       18.73122025568431      1.4359400255276449
   195   1      25.912392574314595      20.175084841728694      28.692753168110286
   196   1      27.206688782221494      21.639376597564468      1.5606518102234526
   197   1      25.888723644705415      23.030051839954343      28.693563047679177
   198   1      27.483713832182566      24.255559624629363      1.4520264595256538
   199   1      26.077192401107332      25.839868828140006      28.516387064335945
   200   1      27.177085733661464      27.403764079159291      1.3898834722919333
   201   1      28.585220222589967     0.12048017191879139      2.9070742713504831
   202   1       1.690845762887317      1.7065009036249776      4.2594732054361231
   203   1      28.562782018792589      2.9384929564932234      2.9554486004000631
   204   1      1.1922573576006705      4.4065842532114035      4.2588799664283465
   205   1      28.634285370228813      5.6776323265013922      2.8426492991932162
   206   1      1.3597261651275967      7.3413232592526318      4.3084441646712985
   207   1      28.607818926970001      8.5295480662021426       2.763580933367177
   208   1      1.3487735547598394      9.9766784054738942      4.3429162423454004
   209   1     0.11990840312587443      11.365769034910706      3.0757147543426306
   210   1      1.4473923688351547       13.05411897919493      4.4217906568265599
   211   1      0.1184576496781584      14.286504709209504       3.019747572285735
   212   1      1.4696847551976611      15.826162211258847      4.4407470324586731
   213   1      28.678064750058471      17.225643597454432      3.0047526873782981
   214   1      1.5972442865083047      18.543967806906391      4.4298767599376614
   215   1     0.19917197267506179      20.230265887761743      3.0460341132590321
   216   1      1.5916012649506803      21.633520134161692      4.3968563215387224
   217   1    0.093774068232541252      22.791371524413368      2.7840604557118791
   218   1      1.2738666379190144      24.434797518238227      4.1694046940061762
   219   1      28.499256936232573      25.966725380830034      2.9346212078433203
   220   1      1.4662645448957283      27.264394518488004      4.3187506531959263
   221   1      2.8339450451276211   0.0064137826457114962      3.0236609368691645
   222   1      4.3432520192570809      1.3735630729780046      4.1786078248756811
   223   1      2.8757586772435615      3.0938760092361703      2.6443531309946939
   224   1      4.0680871643240391      4.4567927437701957      4.0433341691941092
   225   1      2.7578183597554689      5.9938817324154918       2.778266917140821
   226   1      4.2860034889282241      7.0652449285548675      4.2373156175021363
   227   1      2.8725321955571319      8.7011461682314746      2.7522135802987018
   228   1      4.1702223005099128      9.8848717832765853      4.3760378171272256
   229   1       2.940542922560855      11.544865162900404       3.008840870355082
   230   1       4.312756665118596      12.950348279180707      4.5092700754832249
   231   1      2.9723188187532572       14.39143023207771      3.0514160758681221
   232   1      4.3085244181422384      15.550483965443256      4.6495931996624575
   233   1      3.0094137985459204      17.258826696019671      2.9149931645842235
   234   1      4.2253601560121412      18.563090043314762      4.4527499555399004
   235   1      2.7792376548688491      19.997625985763737      3.0157523881336705
   236   1      4.3307615115735887      21.557267849775325      4.3371659653268217
   237   1      2.9576011284874344       22.79066007021704      3.0445128567066173
   238   1      4.4853121874271968      24.364191562148942      4.3374559094366205
   239   1      2.9537666352183027      25.728546415953954      3.0082887771879183
   240   1      4.1173200698197734      27.259341656623231      4.3328914276608277
   241   1      5.6085860341865672      28.656433440074551      2.7323547819295979
   242   1      7.0254439127489752      1.4718984721995063       4.219865457425743
   243   1      5.4847734808482445      2.8295057019603838      2.8369097453581258
   244   1      6.8766190732347958      4.1821828033907105      4.2924181517469009
   245   1      5.7675336059843394      5.8073289442685221      2.8887144847142441
   246   1      7.1646440603256432      7.2521163710143712      4.3599061911240868
   247   1      5.6033412256781165      8.6864840489439281      2.8293241795189368
   248   1      7.0696875871080307      9.8301696157459002      4.5510296651048989
   249   1      5.9614041746986208      11.359807849526041      3.3009756381515865
   250   1      7.2396932917538175       12.95862032062335       4.305723509334201
   251   1      5.6412806450193953      14.338857525853715      3.0412756341718392
   252   1      7.0593001037004033      15.659011986676974       4.356720237977056
   253   1      5.7540894386280153       17.24007373823402      3.0183833584691033
   254   1      7.0934584408734871      18.558184429477958      4.5123388316838593
   255   1      5.5832950847772942      19.976507762565017      2.9365234780718295
   256   1      6.9297398701603132      21.462367626034485      4.2899592595482572
   257   1      5.8914817115162412       22.85528179509798      2.8252494083938688
   258   1      7.3434313332655439      24.387345315324424      4.1762140671668027
   259   1      5.7114492972358928      25.799651200469434      2.8462946946061618
   260   1      7.1374351995164469      27.283286018593241      4.2869335303365368
   261   1       8.418776141324976      28.663681449278275      2.7538662733725108
   262   1      9.9870930174686698      1.3799728803698943       4.376912197679883
   263   1      8.5526898782156913       2.930891299945364      2.8031918866142287
   264   1      9.8508512220602746      4.4365857027227147      4.3713734062319185
   265   1      8.4900287301419883       5.671360405881166      2.8515025107850307
   266   1      9.9529191712908869      7.2803605146861123      4.3283866744006083
   267   1      8.6511824866775786       8.686991898331403      2.8883231985469116
   268   1      10.199447578067693      9.8818519161899694       4.410225837538948
   269   1      8.5841649149612334      11.301821046191629      3.1794444770045796
   270   1      10.037770898689461      12.764506354827484      4.4700558641910009
   271   1      8.6768008790386624      14.424401874577937      2.9069549102296457
   272   1      10.049888760749893      15.611164783327887      4.3586074937909798
   273   1      8.5157527785530629      17.196148943915386      3.2256376839560326
   274   1      10.002621726639898      18.633248888878239      4.3326340065260602
   275   1      8.7103263923677545      20.181149859551457      3.0067158007480161
   276   1      9.8682021766697492      21.510284575953072      4.3627481209114611
   277   1      8.4283612655527946      22.744687734769141      2.9974676594978038
   278   1      9.9761176537459821      24.353839272859997      4.1930040256343499
   279   1      8.6486358763787567      25.948704477814971      2.9201763462109169
   280   1      10.034226380631258      27.308259952522249      4.1980258699823905
   281   1      11.404505936232288      28.658353634330439      2.7509687871525093
   282   1      12.679630146274581      1.3632093312188212      4.4107207414708753
   283   1      11.273997679746145      2.9377017297709949      3.0077532029408562
   284   1      12.834061421677411      4.1941327241882895      4.4553841884396173
   285   1      11.422130462681805      5.7327794110834009      2.9752100478064341
   286   1      12.792791618067689      7.4645822736814367      4.1725901070239999
   287   1      11.441800200256996      8.8180627724825253      2.5756183085114905
   288   1      13.096275509874722      9.9849255656337448       4.390772707389349
   289   1      11.661232637697767      11.209519112403351      2.8691067209066881
   290   1       12.94399254349179      12.824446212836142      4.1609160222297197
   291   1      11.393579111363962      14.208999188866413      2.9786518367269217
   292   1      12.806574439134412      15.920446961890665      4.3790857032681147
   293   1      11.518211878581246      17.338166156349835      3.0483249817599058
   294   1      13.307389554127216      18.763085385005002      4.2650696248174773
   295   1       11.56076545599843      20.185581387771105      2.9126111574596618
   296   1      12.840733134326102      21.556130136560569       4.468525889042092
   297   1      11.719489839757946      22.960919403216504      2.7996774391459094
   298   1      12.958102408895822      24.528291781987207      4.2770119694694735
   299   1      11.413344525974777      25.866277642294076      2.7749224552340257
   300   1      12.952153936041066      27.407042278801583      4.2963771130579786
   301   1      14.296347872157174     0.12246447336799529      2.6976978143830026
   302   1      15.692673063844669      1.4954456559212312      4.4925852883520259
   303   1      14.154222664301605      3.0610552256301005       3.064934829660344
   304   1       15.71535115596714      4.4206053669477301      4.2436794768071984
   305   1      14.228386950142127      5.8048489080252947      2.8232180012903645
   306   1       16.02565540564899      7.1863854689426914       4.395866527261159
   307   1      14.422939623081028      8.7227090953024007      2.6907413299160572
   308   1      17.191027233674586      11.313566681169448      2.8276647303518967
   309   1      15.772796565062107      10.027760960245875      4.4777849400173064
   310   1       15.82219209144313      12.765032010206882      4.1072994576993302
   311   1       14.47405120589284      14.508440408021752       2.979760555136854
   312   1      16.046616925359558      15.605698260893647      4.3019324875468703
   313   1      14.545481752665953      17.053673502612433      2.9101940736580598
   314   1      15.933520643631709      18.569625958063749       4.317030959825833
   315   1       14.30997850245957      20.430829455042893      2.9481005787837531
   316   1      15.797252145981291      21.539119852594972      4.2693091714096081
   317   1      14.396021745287168      23.160323171293783      3.0907579548497441
   318   1      15.575882151111836      24.581699120829473      4.4083522787758893
   319   1      14.491402018224132      25.967865150510512      2.6721429637698639
   320   1      15.626288002158315      27.570833567723124      4.2860486936354825
   321   1      16.972205849361192     0.12330099446935501      2.7023059877140567
   322   1      18.432170874679279      1.2662400712973174       4.189475490514134
   323   1      16.936922147464767      2.8422491370705081      2.9661370248477015
   324   1      18.549088242839517      4.2147812237485027      4.0480781903067093
   325   1      17.079016842580231      5.7738308415868804      2.7254226118546501
   326   1      18.721607914965944      6.8585657223742231       4.313485627898249
   327   1      17.189988910340897      8.4231922511906152      2.8335627701266377
   328   1      18.766585254658899      9.8404769921600472      4.1588454730275561
   329   1      18.724253747176242      12.802178294873636      4.2417161017599465
   330   1      17.303642518868365      14.403275886039442      2.8250613145050005
   331   1      18.690101172145873      15.751863043585823      4.3457927606213236
   332   1      17.332147126713888       17.17542716738042       2.750163958927601
   333   1      18.626870700597145       18.59638179234328      4.2850041795429794
   334   1      17.382591996466012      20.214691052536885      2.7022343998841603
   335   1      18.722081605890502      21.519541463686991      4.0541722208503819
   336   1      17.170877380354934      23.148731242800139      2.8775657687298088
   337   1      18.622208775220848      24.589387677327327      4.2525749804394533
   338   1      17.088777216202573      25.747708346150372      2.7215376776192777
   339   1      18.593930981905434      27.165108223339235      4.1093576519334052
   340   1      20.098890181761661      28.697074349695345      2.5647834913331971
   341   1      21.593662914418086      1.1846051787022578      4.2134502048243876
   342   1      20.114520729959107      2.6854171228750583      2.9181085485611256
   343   1      21.503177384257238      4.2465414663022392      4.2609880442750612
   344   1      20.041237657812513       5.589619846827766      2.8540291413574765
   345   1      21.461791892471147      7.0706025350699351      4.4173501430242821
   346   1      20.197010632850947      8.5145764303393783      3.0162842967677705
   347   1      21.681328634155946      9.9381039001287022      4.1742936696703339
   348   1      20.379610481014307      11.272013998645669      2.6509140870086871
   349   1      21.543567015662727      12.955195864564145      4.2156339945227366
   350   1      20.113103414688958      14.380424385642549      2.9889660316584212
   351   1      21.658759173875886      16.094483943105082       4.321839920047724
   352   1      20.200820774584241      17.387257151768662      2.8115308423943821
   353   1      21.550972927460968      18.841712636913691      4.3028683848450342
   354   1      20.101030756402601      20.249364138199752      2.6970307455267171
   355   1       21.72304192608696      21.645454767982422      4.3218282197237379
   356   1      20.017525221479875      22.916630053394911       2.629273174734736
   357   1      21.486744024252879      24.402604355413001      4.2584490109016881
   358   1      20.326085728313892      25.800878226594754      2.8084626673104127
   359   1      21.678965363805748      27.183826701346739      4.1930982435925666