dump/Fe_1050_5/steps_81 (written by ASE) 

1995 	 atoms 
1  atom types
0.0      28.699999999999999  xlo xhi
0.0      28.699999999999999  ylo yhi
0.0      28.699999999999999  zlo zhi


Atoms 

     1   1       0.218547960337516      28.506604804475487   0.0071446958725232433
     2   1      1.4211476592258341      1.4271312552396469      1.5481077421163838
     3   1      28.669855051464641      2.8369870092969238      28.680030638192214
     4   1      1.3773949759559738      4.3362756628377381      1.1575492447902425
     5   1      28.553148179130289       5.935675958384234    0.097023189773710716
     6   1      1.3392392301563738      7.1451470386626248      1.5758023232222158
     7   1      28.618418867987344      8.7997403477872336    0.081513025905235209
     8   1      1.4778558582416066      10.089895032628235      1.6062930819572103
     9   1     0.27853528560816654      11.536925339368892     0.15996494280320797
    10   1      1.4748365751070192      13.032691335367247      1.4970317180588717
    11   1       28.62778431757474      14.247372053772352      28.643282289573307
    12   1      1.4677177708634084      15.947576896430006      1.3577928340979049
    13   1   0.0068481189515875208      17.242340519183376     0.10265561739762462
    14   1      1.4756477751572339      18.657452713916182      1.2057818396154389
    15   1      28.657984333114371      20.066431082778575      28.677696042294116
    16   1       1.551087353829532      21.271475454187218      1.3138524342181552
    17   1      28.697979793708388      22.910484356356406     0.25041625650134147
    18   1      1.4074990954306374      24.456401636724724      1.6150516947814715
    19   1     0.12773467167503777      25.650722116166175      28.660339582847261
    20   1      1.7351682541696074      27.100186612647672      1.3144754728360233
    21   1      3.0114071151322994      28.633131601232179      28.476501682675817
    22   1      4.1462037800479301      1.4613940799909193      1.3218000423628713
    23   1      2.8161460891336798      2.8786668705352843      28.685628129939236
    24   1      4.4090052073348041      4.3486816598340434      1.3396352632619708
    25   1      2.9619048546648825      6.0744705661918168     0.23382779473637361
    26   1      4.4982247137815694      7.2057494922185175      1.5124398735089584
    27   1      2.7740363297873851      8.6546726912355787    0.051912812448449704
    28   1      4.4329353647430629       10.02303758923051      1.5558797301523777
    29   1      2.5971838086198438      11.584788742681921    0.072903076706120479
    30   1      4.1958558123089835       13.01523785823761      1.1645255932091783
    31   1      2.8839718453275895      14.608960891344926      28.511220161297178
    32   1      4.3639828266102949      15.865940199773856      1.4018423796314212
    33   1      2.7532282209469505      17.151851032076365      28.599776130066232
    34   1      4.2282792321334881      18.654369606862375      1.3132099804742203
    35   1      3.0216442526577523       20.11808962105836      28.613760936826687
    36   1      4.2740816286128211      21.370104255991819      1.4529140216505196
    37   1      2.8696997965259032      22.927409736554047     0.10144337369114283
    38   1      4.2338294336913291      24.327214584512543      1.5880490697823928
    39   1      2.8936210072932185      25.512549827497043      28.504728113254448
    40   1      4.2693109269396192      27.227107873554068       1.494693598874959
    41   1      5.6848821436783457      28.621238300855598     0.13586459021730651
    42   1      7.2948591837271692      1.3744324312991114      1.4365510554009446
    43   1      5.6936214271852306      2.8780572381212002     0.01864559497165599
    44   1      7.1744622652850989      4.3101608743073134      1.4296203674943513
    45   1      5.8205558234395864      5.6615223830602197     0.02708526859744325
    46   1      7.4095421792285086      7.1390272490385485      1.5995582908799177
    47   1      5.7541344197217201      8.5733881312219022     0.19289438033114273
    48   1      7.4263857751480984      10.159104202530136      1.5024365469423047
    49   1      5.7390059660157391       11.28895354262313     0.19377178698879335
    50   1       7.249909495242318      12.825962100444059      1.4925138244847065
    51   1      5.8026718056955495      14.237889623225294      28.672804384630926
    52   1      7.1991703184946729      15.973465306351866      1.4802789278354005
    53   1      5.8814920938901691       17.43714956869708     0.03831709807412826
    54   1      7.2533384976584161      18.763955015539274      1.6102686880350923
    55   1      5.6614498176591566      20.090651705563548       28.55545461882507
    56   1      7.2311305757294972       21.48009461608428      1.3633351721314164
    57   1      5.7176970429265159      22.695165808056565      28.645115738781222
    58   1      7.2128593287303557      24.150692174696459      1.5109196082445808
    59   1      5.6578998354639181       25.74296845963427      28.644850380730052
    60   1      7.0367094529655061      27.259867541388136      1.3369231248925884
    61   1      8.5105404931012139      28.562963347010253      28.592339197036551
    62   1       10.05142626290972      1.3995684831182758      1.1635467205397834
    63   1      8.5710741374087451      2.7892009523902659      28.590752846706128
    64   1      9.9657302844519098      4.2291219853171729      1.3300167662107349
    65   1      8.7361569645769883      5.9067003687173942     0.12915776666143297
    66   1      11.457027296787256      5.6851716766966316      2.8195571509636137
    67   1      8.5418408644728174      8.6398319098378682        28.6934547517906
    68   1       10.16548644851304      9.9710010523872583      1.5789325145425894
    69   1      8.7102778623066648      11.403182616067017      28.616622869031648
    70   1      10.156273125518608      12.881767124755569      1.5723574699728833
    71   1      8.7032625269455899      14.304347028816707     0.13877602469209491
    72   1      10.081731951270163      15.858775366881336       1.535360118707116
    73   1      8.7839684948787671      17.104291237031624      28.547955511924375
    74   1      10.207854479491791      18.758467192631425      1.3610928565313201
    75   1      8.4994207444650556      20.105429449294963    0.046222315106365368
    76   1      10.108533745030273      21.411636802252573      1.2595147634924488
    77   1      8.6189951903430977      23.045639715187786    0.033788052752606802
    78   1      9.9963434887257439      24.540008849047023      1.5660575368664109
    79   1      8.5895801104093241      25.733820437640709      28.671251858364329
    80   1      10.043292662078263       27.09265118458114      1.4292703544369023
    81   1      11.473404224594123     0.02731916359323525      28.487722444256168
    82   1      13.004291419055056      1.3500534605588308      1.3081846957712746
    83   1      11.479063226544731      2.7242804208151141      28.400116902184465
    84   1      12.851158975990694      4.2005094818208581      1.2085729801509504
    85   1      11.614663591414082      5.7209412807979945     0.02033358506021159
    86   1      11.561297317328272      8.4506686615857447        28.6630597569571
    87   1      10.047427416495625      7.3252183536718718      1.4328641787205025
    88   1      14.144976911916123      11.334851664701816      2.8843156843089703
    89   1      11.252174741689766       11.53786554765121      28.471398973947462
    90   1      12.775562162947859      12.852142620565429      1.2230009046392174
    91   1      11.257454991200866      14.230737468195263      28.592498091504769
    92   1      12.835410451791709      15.767250195879553      1.3371065232422537
    93   1      11.249935668349449      17.179816995910127      28.510943750032329
    94   1      12.779456042342863       18.56454780837305      1.2979235192188645
    95   1      11.737157519868534      20.150780426982294      28.699383702114037
    96   1      12.769346188490134      21.850758978526976      1.4982651159116118
    97   1      11.432484456910879      23.005718416745005       28.66432562829128
    98   1      12.751229119480914      24.385750507815661      1.5887604939347626
    99   1      11.533770546372434      25.792407991867453    0.068233346601357381
   100   1      12.880893185103474      27.357707140021002      1.4287137453972714
   101   1      14.285838222468298      28.427465068922249       28.63845388218779
   102   1      15.792993963067037      1.5063784577493375      1.4017751061887911
   103   1      14.107325291489996      2.8369817704015996      28.681256963370846
   104   1      15.777560612800746      4.3700311621667316      1.3146231909699631
   105   1       14.24796593221957      5.9370568775483052    0.098444795968248233
   106   1       15.82348446146225      7.1639002901307522       1.455080625810091
   107   1       14.44096268748731      8.5964825775284819    0.082928576189738049
   108   1      15.589705260685873       10.03676451594165      1.3831176928772364
   109   1      14.391588442130256      11.327948256055766      28.567638912313743
   110   1      15.714381579164016      12.834964453565146      1.4587162009445236
   111   1      14.484404246731415      14.400036541420526      28.695238011381395
   112   1      15.609290481221162      16.015738914784304      1.4455178405046136
   113   1       14.24006947824615      17.301208344443204      28.454433361840884
   114   1      15.486394089963293      18.569293026141619      1.4022907185603242
   115   1      14.260164595573846      20.117786400255572     0.14439271795212108
   116   1      15.743809728791447      21.573470655453381      1.4392196803156929
   117   1      14.315906851273771      23.051808282079932    0.052118155246444184
   118   1      15.607308161186477      24.627903571405831       1.364976522766074
   119   1      14.244260434858907      26.080238109983387      28.538849431168352
   120   1      15.537678619120122      27.350397469950043      1.6061558236031934
   121   1      17.091049843713403      28.558674623956424    0.077639249769913363
   122   1      18.506914634280683      1.4808477728222684      1.5965876056076582
   123   1      17.202464797444328      2.9490358180053269    0.021014451403254947
   124   1      18.576310354647045      4.2894986970773186      1.2435672110714435
   125   1      17.426520502034538      5.7788595434918273      28.632064521783082
   126   1       18.63771788547832      7.2097695018135841      1.5586122420532442
   127   1      17.306409475602692      8.7420091445761727    0.070034497655046754
   128   1      18.416478756846129      9.8860082924712067      1.6463657505768423
   129   1       17.24391338272018      11.579909463332255      28.608039294661097
   130   1      18.592456885111254      12.832254679759057       1.490926658152671
   131   1      17.164751856974569      14.443551853161635     0.05141029388274785
   132   1      18.581648868982704      15.860562279991443      1.4694294944916011
   133   1      17.123962867899284      17.229193894821023      28.655465265272483
   134   1      18.404905097438562      18.714927871590852      1.4524254353550883
   135   1      17.166621164192136      20.116809985707356      28.499772409531623
   136   1      18.539396412360372      21.641689404725444      1.5641042739236122
   137   1      17.082052728003074      23.077853943335729      28.670397344520751
   138   1      18.526113544675511      24.648338757848595      1.5161857853280354
   139   1      17.165122359752267      26.061858733827023      0.1298273906129338
   140   1       18.55972107540406      27.246117872356876       1.697320927126351
   141   1      19.834868452865212    0.048555817910164535     0.12530491954485115
   142   1      21.406423039356952      1.2445988929116638      1.3922633253241645
   143   1      20.218426248716092      2.8583052773936273     0.10511033954929863
   144   1      21.543592289817489      4.1901092388335455      1.4781944413708514
   145   1      20.146873593778945      5.6800517311380796    0.086165159816926074
   146   1      21.658640674949943      7.2081580773632901      1.5716713879363726
   147   1      20.203481927913451      8.6799507751477876     0.17560809931633234
   148   1      21.619017006200558      10.138681917403579       1.594109451837413
   149   1        19.9339104441773      11.385379789712118     0.10700631465794005
   150   1      21.367714174858897      12.863261950768788      1.4206847925960568
   151   1      19.923339474555721      14.379242837733003     0.19579208225892444
   152   1      21.414295442025452      15.902402545092896      1.4155917027556471
   153   1      19.935295044733252      17.315314486149724      0.2226655117013138
   154   1      21.518171894809175      18.808448232594465      1.4638769399110292
   155   1      19.986109066233659      20.170884158888011     0.11973885097348796
   156   1      21.459795479175778      21.679117314583713      1.3529416279390944
   157   1      19.997602336835335      22.943219028200261     0.20250574497269999
   158   1      21.398321264795513      24.393218586624855      1.3121633719172894
   159   1      19.903683044066604      25.860899243178448    0.071122534008509208
   160   1      21.467611292144259      27.245706597183762         1.3155422221913
   161   1      22.917645706298021      28.594952647639662       28.65139071619484
   162   1      24.439085822227877      1.3960883601313083      1.3480039390330496
   163   1      22.837941717376541      2.8956514847823454    0.010212256565682748
   164   1      24.377366323030092      4.1929403366193636      1.4259470844629942
   165   1      23.043933766740523      5.7093934841304073     0.13239158934584344
   166   1      24.424861761129584      7.1121177642744913      1.7015210692537952
   167   1      22.910761919363004      8.6813126746125207     0.11066905291311276
   168   1      24.390166585774288       10.05493379920334       1.763462756946877
   169   1      22.879486103449768      11.544857588268716    0.028713167773105539
   170   1      24.346959809304558       13.06593434943332      1.5215645318809718
   171   1      22.974428185290069      14.316877941910835      28.666171941738444
   172   1      24.396880782721357      15.786150033680562      1.2321168299082834
   173   1       22.94130923140786      17.215305370220616       28.64932127763111
   174   1      24.482569346036996      18.794379481956003      1.3089512927702813
   175   1      22.848214419809942       20.05194262390253     0.15976331507586108
   176   1      24.227992793504324      21.665687743789924      1.5773177876825442
   177   1      23.013703094094389      23.136272794961556      28.585286149716328
   178   1      24.339486852157119      24.531995304064175      1.1930826014440759
   179   1       22.79471600682368       25.65305497627428      28.667900231361003
   180   1      24.322257154267749      27.179025426747586      1.5191025253835053
   181   1      25.721727077212019      28.602317918398388     0.21729560392728897
   182   1      27.426734314478072      1.4270651661456555      1.2494334251341235
   183   1      25.934060899490621       3.102444838788522    0.039688852902395357
   184   1      27.304147093454421       4.215279098418808       1.617984251720612
   185   1      26.134250595365589      5.6086406645384406     0.24394656847501897
   186   1      27.283563993102455      7.3486597663686437      1.3395276516617969
   187   1      25.842521503459491        8.83970484751835     0.23123892625532097
   188   1      27.387839813631537      10.155201208116733      1.5828709964765486
   189   1      25.736538028133442      11.452926458170968    0.026608206143737326
   190   1      27.343374247451656      13.032391461103709      1.4639359732355401
   191   1      25.926738818478054      14.288850019236808      28.688520416584058
   192   1       27.29700808275814      15.737818873402146       1.409593299545201
   193   1      25.877979742426291      17.286245570381759    0.075465255099163561
   194   1      27.172690894196052      18.764680614682526      1.5431133402739081
   195   1      25.594436703508805      20.331698879869521    0.064839249616852654
   196   1      27.439750440808236      21.475475781856805      1.4373447918881415
   197   1      25.719052621612647      22.870227345882952      28.636715320563415
   198   1      27.275257625351266       24.33266504657901      1.4711446515999569
   199   1      25.725033115249946      25.694013286387186      28.482031922482136
   200   1      27.286655411671223      27.181535468640977      1.3405073345723062
   201   1    0.095102994803268795      28.380737634885069      2.8574842849195314
   202   1      1.4411371045777617      1.1885222697174653      4.2826238532137424
   203   1    0.053677680605835811      2.8974887624012289      2.9977664001918436
   204   1        1.47916303421747      4.3586784748226366      4.2276981479169846
   205   1       28.54716524341994      5.7814001143741081      2.9076526682234589
   206   1      1.6083634782444272      7.0562653307692589       4.368945554601761
   207   1     0.10885877297735158      8.4580613271949989      3.1406880637558152
   208   1      1.5683798137036664      10.349999785256053      4.2391311539882981
   209   1      28.620917932744394      11.712112277631512      2.8929394554137247
   210   1      1.6448218605974032      13.139764535098534      4.3358788316841483
   211   1     0.23975024666675723      14.551261743218369      2.8509930657224682
   212   1       1.339952926925994      15.965194319926541      4.4076512985331409
   213   1   0.0059708971387761852      17.325178369798603      2.7319379312890293
   214   1      1.2789588893569777      18.654852867014881      4.2322069719857458
   215   1     0.17186710099883962      20.041559617993371      2.8916994831444094
   216   1      1.4554860853629752      21.437437412105904      4.4026740639283286
   217   1      0.1956404507471364      22.734039994235989      2.7943425368184647
   218   1      1.3180048651492384      24.240194347025042      4.2749717137627155
   219   1    0.041245966606324645      26.016947676115738      2.9237432135247694
   220   1      1.4615590072798827      26.998901548991434      4.4216727250230363
   221   1      2.9109529278926751      28.471034533215544      3.0419609522534854
   222   1      4.3455193321296903      1.4981052864633393      4.3063462567884887
   223   1      2.8788262578431194      2.9696634475090962       2.768525016631509
   224   1      4.3639576141292258      4.0959590270245894      4.0841379931444708
   225   1      3.0135149557269019      5.9423343326173157      2.7596656535618878
   226   1      4.3381320615608692      7.3905528146363082      4.2929556825458342
   227   1       2.924905602745731      8.6093615725128601      3.1241142152720287
   228   1      4.2783437937013264      10.222704384629385      4.3632088387868739
   229   1      2.9905873520453348      11.604981863498899      2.9033165451036109
   230   1      4.4300473446004665      12.921391538825871      4.3219075925127042
   231   1      2.9771593591410066      14.437369793405402      2.9194730694083759
   232   1      4.0579495880490732      15.779205793529965      4.6061615834764726
   233   1      2.7242082688612994      17.413024901308088       2.803373764238891
   234   1      4.3368215707700646      18.391646504522111      4.3792090311464245
   235   1      2.9437209560305635      19.985647782400626      2.8235546729826293
   236   1      4.3226380126241741      21.311416640211281      4.3640482572883394
   237   1      2.8125474243734976      22.709838879978371      2.7265939047322827
   238   1      4.1926715646045496      24.202997963971036      4.0977475380904558
   239   1      2.9521094664339942      25.815231178225723       2.899233364370394
   240   1      4.3793637675535972      27.179734073910687      4.3556493333847168
   241   1      5.7046599111397027      28.660009922794945       2.787683814560785
   242   1      7.2239316325429188      1.3846014229940358      4.3727695253307894
   243   1      5.7734403210547871      2.7632240232499616      2.7527159936419707
   244   1      7.1687409878513275      4.1851790365284884      4.1789659741763572
   245   1      5.7511780008251705      5.7684484254012398      2.8405192246083404
   246   1      7.3584829405715482      7.1777440733628071      4.1952711860324712
   247   1      5.8553287752301202       8.604014689491251      2.9352081801862653
   248   1      7.0165240399322863      10.234737211071588      4.1425420488793199
   249   1      5.7095567573432513      11.531109575633449      2.6845801279481059
   250   1      7.1296037593968444       12.78682429925183      4.3008117553578344
   251   1      5.7016007909405078      14.363531122614233      2.7812054073278323
   252   1      7.0252405935242948      15.575636797129214      4.3975474610125049
   253   1      5.6739718217097259      17.247663609402892      2.8344132519010476
   254   1      7.0999524753913654      18.442376952708642      4.3451062850733271
   255   1       5.737924135883552      19.950547905825474      2.8970597273952263
   256   1       7.188417572496733      21.415642382866416      4.2672500327219023
   257   1      5.6498581471169143      22.720834057536248      2.7254369256031397
   258   1      7.1735115638410081      24.146615093911436      4.3366304475394921
   259   1      5.6648188214510036      25.770752613886064      2.8775161950027797
   260   1      7.1570883302419714        27.3472530985423      4.0905098432170108
   261   1      8.6255088709093126     0.05283187988374051       2.750456577026239
   262   1      10.016366142797938       1.482768789114334      4.1487740063207257
   263   1       8.634302075246735      2.9797896226273255      2.8242048732333949
   264   1      10.305067615877064      4.1795032237633043      4.3444983657172411
   265   1       8.746097071800687        5.51437357768559      2.7635135914903239
   266   1      10.079335946289548      7.1681278186401292      4.3496580693151357
   267   1      8.6702466230954158      8.6910905856744503      3.0156021815507046
   268   1      10.182157526618846      10.056507973460763      4.4374258109729192
   269   1      8.6113188643827332      11.427605777315032      3.0097704074859979
   270   1      10.216734735633745      12.839108415537519      4.2498899268180814
   271   1      8.5166336780577279      14.473797239462829      2.8028473918532435
   272   1      10.078990760631324      15.609233346217133      4.0550676383327637
   273   1      8.4970559966612402      17.247461847355368      3.0085398790775888
   274   1      10.157914200321644      18.597730673621115      4.3182426844286743
   275   1      8.6203144521670474      19.982943176125616      2.9648129235064293
   276   1      10.242039849684268      21.513155517365018      4.3132065675414459
   277   1      8.8202299814794021      22.743619142495934      2.7211194148531472
   278   1       10.10028350839413      24.398776452936506      4.4296785694068239
   279   1      8.6257919960025511      25.784741919151021      2.7813986762065839
   280   1      10.125861806212271      27.385252389767128      4.2458438162292067
   281   1      11.542365700169979      28.676681145134982      2.5374750070614707
   282   1      12.815088629133724       1.303892707476042      4.3241241287637928
   283   1      11.556343410822805      3.0167616058215607      2.6423149758375315
   284   1      12.943334417335004        4.55727502250177        4.24827941334821
   285   1      13.002136790972759      7.1184219613806015      4.4353688673519338
   286   1       14.33490325812741      8.6159649878484359      2.8088987852520737
   287   1      11.712357544620986        8.70122157261528      3.1111017930494471
   288   1      13.064420767596092      9.9664280058076162      4.5935437477884262
   289   1       11.64846038218017      11.274390266897855      2.8944540237231062
   290   1       12.92628360183803       12.86059500746504       4.251023760624105
   291   1      11.711499429024252      14.405251740168881      2.7288918739968135
   292   1      13.028136892034622       15.76275859602042       4.471376101334771
   293   1       11.50494490184918      17.175249487745472      2.8703048749970534
   294   1      12.811036857829919      18.594367510791773      4.3819229432947404
   295   1      11.597870330540054      20.286524020457097      2.8839321673739891
   296   1      12.942936759482684      21.580368879405945      4.0963371962951429
   297   1      11.483478320106354      22.987456160712139      2.9640152972054201
   298   1      12.984262504063796      24.390225231326593       4.482804333288569
   299   1      11.478056667347314      25.989725940745359       2.873395219219645
   300   1      12.951383561955154      27.364981468980258      4.4314488868619826
   301   1      14.393064052918263     0.13229497886203515      3.0173944868365576
   302   1      15.836351824981033      1.4422221674782241      4.4914716622450479
   303   1       14.26140156151733      2.7389709163239551      2.8122184630426319
   304   1       15.80638405176734      4.3301579668362677      4.2403940259072828
   305   1      14.224774389159226       5.840017797131793      2.6631393777364569
   306   1      15.783754872071666      7.1102164805409487       4.374320466404102
   307   1      12.889606284414857      10.031962029305648      1.0454713756781882
   308   1      17.027460639828835      11.556360612434199       2.961008897461149
   309   1      15.582444986737313      10.008802123722475      4.4081337434459051
   310   1      15.584210382432715      12.794202385591483      4.2379196834639163
   311   1      14.125409202199167      14.057170396038492      2.7480246054691722
   312   1       15.74293550707575      15.804779930228204      4.3789688709866486
   313   1      14.168058090632961      17.092416492576596      2.9199602021862012
   314   1      15.603466248533541      18.715182202326922        4.18479447429287
   315   1      14.300387182311184      20.097700711013111      2.8276740123903767
   316   1      15.617072802224611      21.458319318238505      4.1788401680747178
   317   1      14.274582175403975       23.10935850329199      2.9468327898817814
   318   1      15.499425765140384         24.297142970968      4.4919921231555708
   319   1      14.175944728223671      25.695130795214652      2.8889640073864715
   320   1      15.667527795377042      27.174493976266881      4.4043731759617142
   321   1        17.0334595141078       28.66938554144895       3.044871572548967
   322   1      18.611654393009111      1.5259110311287487      4.3667656474281031
   323   1      17.133958324872761      2.9087101262999786      2.8575344414501047
   324   1      18.799836578014755      4.1869497983852106       4.340490586737987
   325   1      17.086438750276326       5.671611079187425       2.920907658420933
   326   1      18.781754618959997      7.1679020323722726      4.5256501323302887
   327   1      17.019864016446213      8.4435843959226862      3.0229473545296295
   328   1      18.762835841320239      10.029480825703237      4.3601270588395256
   329   1      18.542063243348295      12.941128755077846      4.3365650363143065
   330   1      16.952567088315277      14.537001090326811      2.8181679841737033
   331   1      18.493691174944715      15.798211854757913      4.3036952645580993
   332   1      17.115331238451528      17.347051344865509      3.0069839098768374
   333   1      18.615014611137354       18.78071464827481      4.1932035059287802
   334   1      16.912456005279157       20.22549282538516      2.7421729816913745
   335   1      18.524574638289394      21.515331242066928      4.2560802573498213
   336   1      17.063372371930345      23.162566232149569      2.7989764150444216
   337   1      18.584813308868579      24.492935115726084       4.383668814510929
   338   1      16.920475703315727      25.889487681711739      2.7662064990303281
   339   1      18.687703285292621      27.096590904641417      4.4178954315737018
   340   1      20.033852496612663      28.444760049599441      2.9625641835660534
   341   1      21.327497181384405      1.3513069102493427      4.4237631308000092
   342   1      20.125448011800618      2.9076671481926426      2.8226449183998152
   343   1      21.515440136523292      4.4483767268774468      4.2689497470802031
   344   1      20.068985701650039      5.7642618902971323      2.8653741477446597
   345   1      21.428662086785376      6.9760906974469057      4.1770130590232544
   346   1      20.061493212417773      8.6812981603119983      2.9945187838968748
   347   1      21.557150769043755      10.157932493056613      4.3810037661310846
   348   1      20.138187565436645      11.480431881365295      3.0521583098233309
   349   1      21.502330566291445      13.005999762938339      4.2139440926937457
   350   1      19.913684027128138      14.425722517599256      2.9740984740409915
   351   1      21.285444442804543      15.727536469743713      4.3275405206422368
   352   1      19.922726363898953      17.238954548875537      2.9372551963942786
   353   1      21.247797998611468      18.527840975951673      4.2801985875123885
   354   1      19.929227726252616      20.162166429518802      2.7670372712229194
   355   1      21.435134882216211      21.598315665849622      4.1695716769059974
   356   1      19.966788433025982      23.170868338925708      2.9175909632877728
   357   1      21.718125902100866       24.51394372864987      4.2832283313339516
   358   1      20.027674635586777      25.785468603580657      2.6950716927692713
   359   1      21.483205077466138       27.20137938928448      4.5937723378887236