dump/Fe_1050_5/steps_1 (written by ASE) 

1995 	 atoms 
1  atom types
0.0      28.699999999999999  xlo xhi
0.0      28.699999999999999  ylo yhi
0.0      28.699999999999999  zlo zhi


Atoms 

     1   1    0.085511477153605714      28.644867240185022      28.648892851676326
     2   1      1.3123989238865983      1.6002619438749099      1.4832662838301409
     3   1      28.527361502437973      2.9883123670515022      28.695298156700048
     4   1      1.4566470166093373      4.3021534477858605      1.3468023950602286
     5   1      28.695152561565468      5.7324511875852959      28.666256009069826
     6   1      1.4317381807212102      7.2162179378777944       1.417834067833031
     7   1      28.692427832122736      8.6699585708587641    0.010190893410197081
     8   1      1.0536177239451052      10.090467750165377      1.5603804826827277
     9   1        0.10581119978257      11.638414166794924      28.638489563454147
    10   1      1.4919267342367908      13.235643380164534      1.4052961989060793
    11   1       28.68974954844683      14.357243932176258      28.563857430645189
    12   1      1.4300345791952171      15.770723437758633      1.5262038192982113
    13   1      28.614367173708747      17.360725091949387     0.16874123829811655
    14   1      1.5296173005491032      18.652102688378946      1.5186657941897581
    15   1     0.11326383131945603      20.122721251350239     0.01864781464651059
    16   1      1.5190102692237824      21.473613535505265      1.6004408059204007
    17   1      28.611768528820946      22.952293645574638     0.29924520006521715
    18   1      1.5520977272512033      24.541729269831759       1.501391553585109
    19   1      28.658649270240009      26.107365954156418    0.059931619486053578
    20   1      1.4896825811872423      27.443955424394378      1.3494129140852691
    21   1      2.8116203250690779    0.086106959524272497    0.017130066188246917
    22   1      4.2835962721481931      1.3256558883562874       1.558229429282074
    23   1       2.985722021107069      2.8608970530828057    0.078684870086272021
    24   1      4.2565993122460224       4.021020114759783      1.5256922935239685
    25   1       2.805023168039054      5.6812625260906646     0.11990559079054035
    26   1      4.2336328098356866       7.151666556076937        1.74211552393599
    27   1      3.0132363073295245      8.4935663222971609    0.084763381703021515
    28   1      4.5387494964364921      10.091170709519107      1.6638288555899963
    29   1      2.6394559077503681      11.341982236900972     0.16665421516671591
    30   1      4.1985134017401826      12.764071519474474      1.5302136849242176
    31   1      2.9680892371975891      14.451517029644791   0.0087567657919293985
    32   1       4.495319914936978      15.817811308287089       1.383582544615036
    33   1      2.6712570777092308      17.119556720397828    0.016279288636644646
    34   1      4.4823944950155603      18.735608986297297      1.3399559457222936
    35   1      2.8191366601404648       20.12650297629899    0.054711767735773131
    36   1      4.1968383325740719      21.565549492930469       1.436168884490201
    37   1      2.7323595611860383      23.011878069970187      28.688174304469886
    38   1      4.4556291479188381      24.515321281707578       1.264896360591512
    39   1      2.7506590008112553      25.817165750419417   0.0069847342509888289
    40   1      4.3138258686992472      27.344162134326641      1.3841983880401929
    41   1      5.6408456748208753    0.045647061391788916      28.597049378559234
    42   1      7.1359924854227641      1.4687095373151906        1.39236815048921
    43   1      5.6960193246230642      2.9281206263491169     0.12925753367790097
    44   1      7.1312279022827303      4.2784001417313533      1.3464539694098794
    45   1      5.6583649848680686      5.7514260209984709    0.013044646369689859
    46   1      7.1729947333213708      6.9929066995675839       1.466188181568157
    47   1      5.7166006985917202      8.4410995579911763     0.17162084352395376
    48   1      7.2253208719662823      10.445172472426965      1.4922653303748701
    49   1      5.6285547975244326      11.537015442529327     0.11905280261246397
    50   1      7.0528537818993531      12.947288685035197       1.378150532671816
    51   1      5.4888751259175512      13.996586038394954      28.674652041240851
    52   1       7.123978154345938      15.596324685720983      1.5248339084580715
    53   1      5.9086739383464355      17.228962932724734      28.677129480802709
    54   1      7.1792820439613472      18.713409704158142      1.3366436287252206
    55   1      5.7713114970895365      20.341972695861578   0.0088526590443507181
    56   1        7.11579021302106       21.60522827562291       1.395405154541127
    57   1      5.8424662382981092      22.924227397434883      28.678543777268406
    58   1      7.2569171639800016       24.63791458754978      1.5265349071343293
    59   1      5.6644094496687947      25.873553804493795      28.619302887732417
    60   1      7.1438545369792754      27.455106725433158      1.2631023798679037
    61   1      8.7069307809424306      28.633184971087914       28.64771595905917
    62   1      10.262181702046652      1.4250048364596979      1.3967248268203307
    63   1      8.7654572332380347      2.8219166566973746    0.054280867207080384
    64   1      10.214994633846164       4.142764993185529       1.448282579985072
    65   1      8.7268711648973536      5.6843823443893085     0.20235910132198551
    66   1      10.303759002645455      7.3621098457841105       1.181172459091419
    67   1      8.4065201122695292      8.5246856225035934     0.16252956189727003
    68   1      10.236802186734643       9.939819623723233      1.4155030092801897
    69   1      8.5964414733996488      11.407930441801401      28.581856083417879
    70   1      10.141998961872998      13.020601188247422      1.3358544748806584
    71   1      8.4983640816468231      14.348837967270637       28.52249802775275
    72   1       10.10831018521411      15.636229671009627      1.3275177777953322
    73   1      8.3547328669609033       17.14967951480023      28.679055506093977
    74   1      9.9390641991937247      18.522766186083167      1.5207648180424707
    75   1      8.8340085697356958      20.120672266791992     0.34561110695412822
    76   1      10.077324348525096      21.766312380820718      1.4118290161923708
    77   1      8.8048352627404007      23.102673699832739    0.027202239979123976
    78   1       10.32276449183388      24.528879429572392      1.3683912986747597
    79   1      8.7010356112156604      25.740509931500217      28.596941466912469
    80   1      10.156818243194571      27.073850936080994      1.4662893715394589
    81   1      11.485044733768142    0.015007633057441055      28.646535295220009
    82   1      12.970526815559786      1.4641958959129848       1.410501899408974
    83   1      11.577416094451854      2.9340563206411767      28.664134887961499
    84   1      12.944615009198978       4.575733365334643      1.3927485585188157
    85   1      11.376866177582947      5.6929276461843425      28.516475925433486
    86   1      13.035639502605104      7.2574558817900359      1.2593500351665159
    87   1      11.476454678604142       8.831710945278644      28.432736765719856
    88   1      12.980387274022583       9.996601116807625      1.4099156185799422
    89   1      11.410663228346234      11.513635326507927      28.587637918858949
    90   1      13.090488309681884      13.058981181990269      1.4362628885939095
    91   1      11.390552316919083      14.373659181386612      28.555688237680901
    92   1      12.980761556843285      15.684726961053849      1.4538503373750027
    93   1      11.384003968042908      17.244006201558399       28.67495441821351
    94   1      12.915507490861193      18.594313097997656      1.5624743457681558
    95   1      11.382547246252512      20.132097577517353     0.15752506917168596
    96   1      12.992362165751986      21.482439617984635      1.5291883714344066
    97   1      11.676797780471327      22.782892797535307     0.11020377821043893
    98   1      12.882614029459983      24.499352958054143       1.274150884258108
    99   1      11.418574010731209      25.743860134054334      28.447195130050474
   100   1       13.02235750331773      27.200116114822581       1.251057289738037
   101   1      14.384834905136222   0.0026086069028696565      28.635040522608808
   102   1      15.513039243912282      1.3531579057031999      1.6354791400716855
   103   1      14.267277817204445      2.8408664405710504    0.081043958352995452
   104   1      15.729127327445331      4.1891086945293452      1.5258748562315314
   105   1      14.666235960337943      5.7436961445433061    0.064316328624204167
   106   1      15.803968872182127      7.0546463635975734       1.453856359632391
   107   1      14.501859066136319      8.4677978698044551      28.652697007431431
   108   1      15.635404175508786      10.076967549996057       1.295504378259831
   109   1      14.112709176652482      11.439929734979284      28.424772621548072
   110   1      15.787503507307916      12.619227960734296      1.2413441050761309
   111   1      14.258234238659485      14.204547810476891      28.330068063789316
   112   1      15.771055200951208      15.586952926779718      1.3022658152858062
   113   1      14.365693979032626      17.086416797524155      28.587893562681153
   114   1      15.752755891567658      18.549420794024076      1.4875383226616019
   115   1      14.451008767452819      20.141662489174731     0.00849274742047329
   116   1      15.736700823303508      21.705577264891836      1.4313137577720896
   117   1        14.3655537295803      22.973722126434375      28.648066264213359
   118   1      15.892569428562732      24.476943311740339      1.2776294004470854
   119   1       14.57295898048036      25.830901897798793      28.579303227481404
   120   1      15.810283090396117      27.276256754348687      1.3049363285988176
   121   1       17.19856793992723   0.0082609639536258255    0.013827633257665168
   122   1      18.765833423017501      1.3596005666321629      1.2874118206078726
   123   1      17.026958825808698      2.7113830476916521    0.044703572191872418
   124   1      18.680523206900098      4.2706513575794309      1.5314719695086405
   125   1       17.14656733070569      5.6310469201704185    0.024798828463656244
   126   1      18.529961597419039      6.9807443788941361      1.4777804060347777
   127   1       17.24612751663766      8.6715529774821061       28.60916079811858
   128   1      18.428692179838286      10.155196864403297      1.4988516773685983
   129   1      17.226544072785202      11.358531483884871      28.605628946354592
   130   1      18.646546312141439      12.823419066634481      1.3396110910078627
   131   1      16.947555577274045      14.099487270160623      28.549781817948798
   132   1      18.633869576398446      15.763436041794268      1.4592464860065193
   133   1      17.252110227629956      17.086920913259299    0.001690807288741778
   134   1      18.583650452318278       18.60223630761876      1.5379532580527782
   135   1      17.177283880025239      20.083134490253922    0.096152811898821272
   136   1      18.691395409922674      21.704999891089951      1.4590067540092937
   137   1      17.249337545988126       22.97093789440784      28.583911545632375
   138   1      18.679531503541298      24.405501001250052      1.2815801697991451
   139   1      17.273453798391873      25.822221087580782      28.497776503086399
   140   1      18.699432563965594      27.329863101212847      1.3623776671919703
   141   1      20.277445483378294     0.10688508862456442      28.587504891106438
   142   1      21.450390638062387      1.3670997618702363      1.4985742557429385
   143   1      20.263001426913313       3.020968386972533    0.045471656553627254
   144   1      21.418446506219933       4.404812682820034      1.4998697564205945
   145   1      20.088943026560091      5.8282060593398128      28.613871080080404
   146   1      21.505132214668116      7.2745597792517884      1.4063680014537239
   147   1      19.827653209487636      8.7279742819657375      0.1314754577726944
   148   1       21.79457050101626      9.8826378870665597      1.3813634132111914
   149   1      20.231694453776242      11.392532441332367      28.690314826737804
   150   1      21.514157610304341      12.967136452824731      1.5154999159061617
   151   1      20.298966682588166      14.246982173266961      28.678123367550612
   152   1      21.456866992294728       15.63431218413419      1.4359349340951211
   153   1      20.080248161722881      17.156542401155193     0.20975729986470223
   154   1      21.486532377352493      18.541707224863046      1.7351140970755743
   155   1      20.117000013112669      20.035274211909112     0.18160354101240717
   156   1      21.515940387767301      21.617489208522027      1.3676500821459743
   157   1      20.154765694335335      22.945620812786188      28.497435247795494
   158   1      21.417366935249174      24.335112720596189      1.3087850720666561
   159   1      20.151518093173301      25.853943255699804      28.573064956313974
   160   1      21.626180710306866       27.11727104135576      1.4621284550452063
   161   1      23.010815575648351     0.10667286518201022      28.553839068150612
   162   1      24.235640460426065      1.5507622399220276      1.4635365212443392
   163   1      22.817977945707433      2.8879894545467226    0.037762844540225098
   164   1      24.168042045119122      4.4948161401494264       1.264719978306162
   165   1      22.927611190774808      5.8935004740248678      28.620383964153355
   166   1      24.529510418309624      7.1514755113300428      1.3273866163975305
   167   1      23.259571248006878      8.5918143683575376      28.459063786213676
   168   1      24.496050606367604      9.9708573091188555      1.7120723623262732
   169   1      23.098479209669392      11.447918682296045    0.053089582135885445
   170   1      24.482047164133323      13.100072746493881      1.4949403177702261
   171   1      23.094035255900486      14.311589764261941     0.10295133447291401
   172   1      24.493998124596676      15.695241915171641      1.5372284121754198
   173   1      22.906247266214919       17.25183776244123     0.27068355240496655
   174   1      24.447157330952738      18.491549606894903      1.6277279478925379
   175   1      22.982315116112957      19.776734133694461      0.2012864904582897
   176   1      24.330600693179949      21.586527020999569       1.296360017936774
   177   1      23.134045612529349      23.033850726411256      28.545652190569399
   178   1      24.441425977357675      24.372187709676616       1.307774235687817
   179   1      23.115688872837687      25.709949562085367      28.674145882518673
   180   1      24.427876270205395      27.405191372236537      1.3115375077235971
   181   1      25.928145188993664     0.18466097128043665    0.057150967218080877
   182   1      27.162817243152311      1.6043384743181268      1.7506466069466795
   183   1      25.891605958812594      2.8382209939403427      28.518273936054868
   184   1      27.168413715802334       4.381671514735558      1.7277971248438926
   185   1      25.841115252082197      5.6376692331924501      28.677431550061172
   186   1      27.385113852286324      7.3399522316791099      1.3340529687383764
   187   1      25.947736093896005        8.72074487178695      28.656933049831711
   188   1      27.242480310496049      10.063558128164177      1.6457693927838601
   189   1      25.933422451654639      11.586966157076814    0.053372493984773062
   190   1      27.214645454615223       12.85620521347872      1.4235129178228914
   191   1      25.808805284657218      14.169069079440611      28.561334570095674
   192   1      27.332155646476217      15.666081048760642      1.4758150867821305
   193   1      25.800979262372078      17.193303346922796     0.17406358754928997
   194   1      27.300580562696368      18.835536168903072      1.6141751901543662
   195   1      25.642393101395133      19.980945641476715    0.095603174268660496
   196   1      27.293355233577884      21.454812157122589      1.4995005406950994
   197   1      25.861929343099614      22.989849675507926      28.505224729436847
   198   1      27.174354849985473      24.410094246960583      1.5286181403396419
   199   1      25.817803955381443      25.905741827299959       28.61578191045669
   200   1      27.285731983516747      27.307055429950964      1.4867556852501826
   201   1    0.031397980390138143      28.678991685631704      2.7151995316043331
   202   1       1.440707635611205      1.4099534130033822      4.3765973098207445
   203   1    0.053889976916775884      2.9675715499547999      3.0147311634370073
   204   1      1.4072208001543691      4.3048650372132125      4.4771516777426967
   205   1      28.660036488336516       5.779519177107038      2.7230129722864365
   206   1      1.3881340807656335      7.0413209377442687      4.3641807737581892
   207   1      28.543714362568739      8.3970210799954046      3.0710972130501943
   208   1      1.2806810767848786      10.239759129681218      4.3136434965888677
   209   1      28.573979206241248      11.523674948454385      3.0283345342025632
   210   1      1.5520032075415902      13.117962402321979      4.2431303447954818
   211   1    0.080214215013201001      14.271460885518312      2.8934760427182948
   212   1      1.4051997585518285       15.79336773125415       4.309433141558916
   213   1    0.099842093911400961      17.265076096912097      3.1005802784440015
   214   1      1.5169871108652748      18.832923775715411      4.1888334892863508
   215   1      28.681745425694093      20.036742148954254      2.8513220004907787
   216   1      1.5677094731472394      21.504074867683812      4.2724329964220908
   217   1    0.061504366478472398      22.988228261690395      2.8407355967917067
   218   1      1.5141649647092452      24.466821773548123      4.3032329828070024
   219   1      28.656038405955599      25.997796962100711      2.8224069053434393
   220   1      1.2772339143650135      27.352847599373739        4.47215056895475
   221   1      2.7584077169172354    0.071813442719906279      2.8365760027315678
   222   1       4.256432541073333      1.3669885019304508      4.3737166667139231
   223   1      2.9892490095205133      2.7688892927333417      2.8133649071742397
   224   1      4.4469661177044379      4.0848669797426584      4.1985591589427029
   225   1      2.7499543742942358      5.7482522953349324      2.8344793149414844
   226   1       4.125995767374123      7.2712678417538621      4.2342410987672396
   227   1      2.5323563075872237      8.7624317913919807      2.9432276771683448
   228   1       4.159561981342911      9.9176568591320784      4.2920336776757333
   229   1      2.8263047236575973      11.472138065179708      2.9183955338157541
   230   1      4.2734855693345386      13.042841742409918        4.47518753570293
   231   1      3.0170712451861954      14.461216243489552      2.8813805074131724
   232   1      4.2248502719838514      15.925503243433884       4.478883887006087
   233   1      2.8471104277499419      17.137738132622392      3.0570811917513496
   234   1      4.3411733812758175      18.607663353408398      4.3096719890469011
   235   1      3.1034669422192329      20.234205015595514      2.8697840449874095
   236   1      4.4949303417102024      21.657673318904909      4.4316358105856626
   237   1      2.7825892093007067       23.08412771648613      2.9496180664878708
   238   1      4.2127543413922828      24.619460182885579      4.4732639888226347
   239   1      2.8643150182566846      25.885017996893207       2.802125155468707
   240   1      4.1086842866684767      27.341026111659289      4.4639947442053014
   241   1      5.7244070111775773      28.650393053965317      2.7428931910799057
   242   1      7.3219677034346384      1.1611121928075137      4.1544111805468367
   243   1      5.8777525595965203      2.6760169146385686      2.9728848114940689
   244   1      7.2322898666361279      4.2942267630935405      4.2930932138863049
   245   1      5.8850140483063615      5.5443554479383437      2.9842242001244719
   246   1      7.1820588088364952      7.3493221477546626      4.3146686102608065
   247   1      5.7390526349883055      8.5830506705611178      2.8846570417911752
   248   1      7.1658353527610288      9.9300149898505428       4.374381597880034
   249   1      5.6186991576023058      11.601229139436848      2.9592178907909155
   250   1      7.2740391571746379      13.014980618247655      4.2143711873151073
   251   1      5.6187915302574858      14.221483888933365       2.948973324458648
   252   1      7.2239095206372754      15.666392703645942      4.1946861795567543
   253   1      5.6275203184556934      17.258619545959764      2.8291499165149747
   254   1       7.104366916560199       18.65464625154392      4.1296500098209092
   255   1      5.8666553951025797      20.259586607889819      2.9210211890822677
   256   1      7.3951140880529396      21.609047067120404      4.3681874793701008
   257   1      5.8130383051256453      23.137151257191185      2.8778687049794973
   258   1      7.3141194134054119      24.442228363445921      4.1527262637631397
   259   1      5.6276668684212847      25.729995351010299      2.7730978352417202
   260   1       7.050434184221646      27.261757522756355      4.0668206459317773
   261   1      8.5554996372877561      28.533309155018461      2.7711975469204284
   262   1      9.9625917454939756      1.2719291647557054      4.3105921427604903
   263   1      8.5558808244769331      2.8030438651562117      2.7416335884629004
   264   1      10.224615432791863       4.473107896250375      4.1072293875404648
   265   1       8.848991743062431      5.8214739528489856      2.7564989634645043
   266   1      10.049811329924786      7.3156001718833279      4.3624778119163041
   267   1      8.7003108157356959      8.4512756985077164      2.7874582329365118
   268   1      10.146520191124514      9.9902373249677456      4.2861847462792282
   269   1      8.8677391713503759       11.48909948822528      2.8527340694916576
   270   1      10.151270469828127      13.055730251598188      3.9598263528053685
   271   1      8.6476816692027949      14.397446418198912      2.7196621157309662
   272   1      10.187052697482482      15.801031665621323      4.5927292545720393
   273   1      8.6848955767789633      16.981712022805645      2.8967300468067592
   274   1      9.9720072857178135      18.643349939382983       4.382858962380638
   275   1      8.7284871530072543      19.992851494768061      3.0495782401876097
   276   1      10.208688181383073      21.437999699300239      4.2185801717616078
   277   1      8.7257800099610137      22.927538921783928      2.9277948900536552
   278   1      10.452183244418853      24.389330825234456      4.3379615332566281
   279   1      8.6157799030848956      25.763720782594586       2.878995096049763
   280   1      9.9618812270819852      27.100721395564861      4.2759778729817812
   281   1      11.550369073218175      28.621417411980918      2.7933083646922685
   282   1      12.884646725599454      1.3246210234045401      4.2797657386736523
   283   1      11.520127660957055      2.9772871808971413       2.775758915725385
   284   1      13.095030617483578      4.2848615077658296      4.3702188216186721
   285   1      11.654915985386696      5.7616538698325792      2.8632656381985147
   286   1       13.13994975341225      7.3162495794730082      4.2999625149953928
   287   1      11.567218038532538      8.3498281760366222      2.8523481906134043
   288   1      13.077379339311525      10.122122910075785      4.1106378695626367
   289   1      11.371311195975812      11.457254823419586      2.7824444356492553
   290   1      12.822863178735098      12.955818556609355      4.3440858590707139
   291   1      11.616510222869605       14.42722281664533      2.8498077895963889
   292   1      12.926412704026072      15.873109505672016      4.4860483961950068
   293   1      11.382392437831793      17.416454900601412      3.0890726041152443
   294   1      12.944284890310431      18.976379639579037      4.2891350558894041
   295   1      11.551766988439731      20.047557466881383      2.7641700508329667
   296   1      12.909185471994007      21.415082210023392      4.5154279975646379
   297   1      11.546844455352035       22.81983579387947      2.8553510661908925
   298   1      12.908843329945784      24.572031593913053      4.2843903724356789
   299   1      11.644184139309754      26.006724218240571      2.9887682778125773
   300   1      12.808207595229149      27.360714972332318      4.5237338904852775
   301   1      14.208491941660272       28.64596331502786      3.0066694000373375
   302   1      15.963718453630987      1.4900400164834544       4.492064413661466
   303   1      14.276773698075036      2.7072863076863189      2.9391271525226768
   304   1      16.075504664785637       4.179891652519518      4.4181608352504131
   305   1      14.475163408046555      5.6344134159331238      2.9432085282388192
   306   1      15.820988792769052      7.3500086858246307      4.3319943254938682
   307   1      14.564348141949557      8.6296056145037277       2.779160315771172
   308   1      15.878326807436634      10.097599830579922       4.206504742518927
   309   1      14.209321257454187      11.616547814652836      2.9011559669275835
   310   1      16.050576363602413      12.716996401520433      4.3150516273035793
   311   1      14.381765808275169      14.203619408445725      2.9910309497165004
   312   1      15.781996463597332      15.598963507420249      4.3191713473542874
   313   1      14.306535249779502      17.352950840556026      3.0139242745569494
   314   1       15.64418866055474      18.862131966989494      4.0888763462171251
   315   1      14.252333164319294      20.264163933295343      2.7938423669000603
   316   1      15.675045607239669      21.541187884423298      4.0158973963883291
   317   1      14.192007677615011       23.24854084453743      2.8177281870327526
   318   1      15.718356325781263      24.447530893145455      4.3070058851277251
   319   1      14.453227909597839      25.805964176139259      2.8096861458713422
   320   1      15.650144010292037      27.287674499307432      4.2792802041844213
   321   1      17.139851292256768       28.53940447771409      2.8674971060544641
   322   1      18.616842789118735      1.3338899242813218      4.1544776733420834
   323   1      17.378302201504933      2.8517746518231544      2.8216134805102775
   324   1      18.879634169485634      4.1936563843528702      4.0635427599631795
   325   1      17.182639327384123      5.6904093853223667      2.8633847279088389
   326   1      18.731507959338423      7.4715607874232983      4.3039278289105258
   327   1      17.342525187044714      8.4921300944947493      2.6809954237630906
   328   1      18.537535497562487      10.124462432967171      4.2245049449773537
   329   1      18.582961273755469      12.763860572453881      4.2918438450244336
   330   1      17.216166639733281      14.202281338607175         2.7968338852187
   331   1      18.383945007661978      15.621223490321288      4.3491361340767742
   332   1      16.999654117207836      17.035234583891409      2.8273919411202306
   333   1      18.609539539616247      18.700193796274839      4.2069853183460273
   334   1      17.138768902927499      20.208193355535123      2.7871441921882694
   335   1      18.680699739490141      21.615629303910424      4.1442991923776811
   336   1       17.23669330679467      23.115527262295256      2.8754455483045041
   337   1      18.668370780388255      24.574213713883545      4.3064224014554098
   338   1      17.290556032974418      25.978563618846945      2.9975977457174046
   339   1      18.807786246396994      27.254899359824595      4.2704361139636609
   340   1      20.219450762177392      28.623786906222154      2.9609202110627244
   341   1      21.585255729103192      1.3509944550353441      4.4896917762504138
   342   1      20.221579430568493      2.8361896769883383      2.7833543297629713
   343   1      21.494393033547773      4.4210909603079234      4.2990022455795369
   344   1       20.10396774968315        5.83781156616321      2.8632412064170589
   345   1      21.628824938998285      7.4328807608736041      4.2393384704809911
   346   1      20.197797391204009      8.6919228009762719      2.7335569859367044
   347   1      21.533918851067014      9.9844753745140036      4.3631592112625821
   348   1      20.172851968077516      11.392488136851322      2.8152367552741913
   349   1      21.601130579483101      12.921280143890504      4.2836252502441337
   350   1      19.839032576305826      14.260676849294544      2.8607378935029359
   351   1       21.35987990194613      15.602896889435121      4.3732377961108106
   352   1      19.886488897100769      17.164549194625792      2.8480824229103399
   353   1      21.361305827588556      18.779280932997704      4.3012648542305829
   354   1      20.040749258995032      20.149098632879561       2.625259110335957
   355   1      21.329126469284734      21.656464237754257      4.2757987413888339
   356   1      20.079447304102278      23.112266975022326      2.7278958599671119
   357   1      21.510670766126445      24.349992077100648      4.4055065864831162
   358   1      20.111327575622315      25.718725347925716      2.8219191078654942
   359   1      21.598406830063549      27.329711751820135      4.5373753971993214