dump/Mg_900_20/steps_61 (written by ASE) 

3980 	 atoms 
1  atom types
0.0      32.100000000000001  xlo xhi
0.0      55.598830921999998  ylo yhi
0.0      52.130399999999995  zlo zhi


Atoms 

     1   1      30.462536984612857     0.62088168484011241      2.1781196007973525
     2   1      3.3383661683495545      55.321687481983894      52.036685597027073
     3   1      1.9626972885921767      1.1030115882740543      2.4475646598976897
     4   1      0.1287339674452033      3.9204153204938463      2.3970548465585333
     5   1    0.028809844366904914      5.4295348419030391      51.904845216770504
     6   1      1.9331129385543759      8.2201247990796791      52.054173312961758
     7   1      1.9260190656675289      6.5419037547303365      2.3092807817767498
     8   1     0.24603091496441126      9.2255679581536612      2.7372885812898935
     9   1      31.898527127227858      11.178007790915002      51.990866042180691
    10   1      1.3650228011196699      13.981205969087764      51.810894904816664
    11   1      1.5959829565797459      11.935022092346868       2.806157180487538
    12   1      31.962521634768216      14.921197103779045      2.5628628400477789
    13   1      31.812242753266169       16.71618863532775      52.056192867636867
    14   1      1.3055287438480412      19.239331113126934      52.018471688952388
    15   1      1.5303057541835552      17.223040422904308      2.7590922950899288
    16   1      31.826899847760671      20.171342758163028      2.6396762842909087
    17   1      31.792120395624469      22.400918648421662    0.047917902249857695
    18   1      1.5088293960679964       25.12081081156089    0.038947605355935964
    19   1      1.6482770595931495      23.089200653162816      2.2338682809548653
    20   1       32.03609328714051      25.931006687999364       2.461014461616466
    21   1      31.806487585848483      28.111787108025698      52.075585694171949
    22   1      1.4845622980751167      30.522488333691449     0.11846458957638555
    23   1      1.5688873170712923      29.173386441677557      2.8576006299107379
    24   1      31.910390863138982      31.685254790677313       2.715659578099737
    25   1    0.021162802982319828      33.408988723228276      51.937477874009453
    26   1      1.3721308994987738      36.409801630732616      51.884391488166699
    27   1       3.163895349279167      37.332413877036551      2.4950516504649434
    28   1    0.057339703265702223       36.87283728664049      2.4900726571355878
    29   1      1.5861215995452265      40.106702272410459      49.482575582937095
    30   1      31.781588255956173      44.676372975293937     0.14494821877321637
    31   1     0.15096437443112562      39.004968914927645     0.08071727434236263
    32   1      28.725084551538544      44.923920348772924      5.7158926652884929
    33   1      2.8819202060376981      44.592673445428744     0.18361076215036035
    34   1      1.3843341869163233      47.360193438501945       52.05868555103487
    35   1      6.4825578328632032      44.578346865694073     0.41106772563202698
    36   1      31.838753594469843      48.312699196860756      2.7668145119772332
    37   1       31.97973902627195      50.138611786344249      51.795057047835478
    38   1      1.6147977695141742      52.607237273922017      51.524644278253447
    39   1      2.8524806816213908       48.27526383641657       3.186694117351323
    40   1    0.085925314665715957      53.643021119234774      2.1475370684011938
    41   1       1.634779410736136      2.9315453093250454      52.045601460609795
    42   1      4.6289807029712247      2.7791633203551758      51.987925767824279
    43   1      4.9455071166219815      0.8001653544600934      2.2744948671011169
    44   1      3.3246746115851198      5.6257129223963567       5.099882992343086
    45   1      3.2089006791495014      5.5575976202157999      51.705239547289537
    46   1      5.0058732439135554      8.4069342975070374      52.003647331380542
    47   1      4.9286207993400648      6.7657484025887884      2.4175901906218651
    48   1      3.2182484675587646       9.097284054971789      2.7946720440024007
    49   1      3.0487062192209948      10.989612804915529     0.19641506195792718
    50   1      4.4236315369933692      14.128888825757585      51.927836314847845
    51   1      4.5571542512687184      12.030623739922623      2.4979253811702304
    52   1      2.7982559354714018      14.493811235352762      2.2859330742826174
    53   1      3.0712358265113759      17.004181492654574      52.065788579698875
    54   1      4.4990942199683994      19.546247019270943      51.806833962637164
    55   1      4.5706215094801763      17.561969390953923      2.6537367897948858
    56   1      2.8048814273111722      20.233702859329554      2.4189383913012392
    57   1       2.845650494793512      22.189602431254222       51.76396428608799
    58   1      4.6685753891261177      24.843968461174725      52.105529935386656
    59   1      4.3502870152191377      23.125413189473573      3.1048298764654274
    60   1      3.1143020989081185       26.14094393205341      2.5259420415558012
    61   1      2.9025003812850745      28.022966460076162     0.23926658898999906
    62   1      4.4817388191801388       30.60657567095949     0.06076726206505205
    63   1      4.4501813121220088      28.903414063788329      2.3533564998085175
    64   1      2.6739655927067369      32.036653743680233       2.342933208598025
    65   1      3.1730704916860146      33.672422615110712      51.933361893140443
    66   1       7.533831966981368      36.489621882339598     0.20399342088567571
    67   1      4.3228333552489087      34.576089548427689      2.3429745938365429
    68   1      1.3889940849244937      40.136801870249982      2.9396690625605721
    69   1      1.5948402850603351      41.873023660800563     0.27501185452217436
    70   1      4.6759750727016627       42.06804710300743     0.32869707093109851
    71   1      8.4087752279437549      47.139393311509473      5.3066062771735982
    72   1      3.0645244204994944      43.086747570668464      2.8886668759967784
    73   1      8.0363688437613536      45.619132146218654      2.7293558681687782
    74   1      4.5602815512987549      47.402592510737385      52.087384464937223
    75   1      6.2161726263094019      42.498847501198078      3.0996438090229552
    76   1      1.6553227143048312      46.810001433579373      5.9336403788726262
    77   1      3.2574417425430591      50.163749858226403      51.852127425655198
    78   1      4.9974346441615776      52.843080217934414      51.924009476706601
    79   1      5.1148425063574638      51.006618444711371       2.744103079298482
    80   1      3.1805571517988751      53.943833033642079      2.4804276957753517
    81   1      6.5850133212376543     0.13616812039337506      51.897603717861031
    82   1      8.2709217226228358       3.015707531370925      0.0299821092974904
    83   1       8.201025315680706       1.049353670270736      2.2749813996254451
    84   1      3.5682776306298281      3.9254426572494645      2.4914161070883876
    85   1      6.4226866871577677      5.4778096278458763      52.015002147170257
    86   1       7.915247098947888      8.3545485914374886     0.14908800112600701
    87   1      7.9436577408752784       6.550774753248092      2.8124088350858987
    88   1      6.1617564064361101      9.4386689262059331      3.0016440152836323
    89   1      6.2337094305633149      11.033051912478323      52.094871936955379
    90   1      7.7032191281813587      13.770243766684477      52.075703022581209
    91   1       7.905749154267788      12.299864274695151      2.7140796428662739
    92   1       6.138038018398114       14.64515509503024      2.6838566995291355
    93   1      6.4049349543826768       16.45918094847184     0.17546086694676258
    94   1       8.005781672046151      19.441206507837219       51.89930116700743
    95   1      7.9501934499280376      17.338954078420148      2.5109315785839028
    96   1      5.6620998060332965       20.29264579465698      2.6603656113515957
    97   1      5.6790303830504429      22.317153887431196       51.98656547001525
    98   1      7.9342700749548145      24.866716241108559    0.033970075982794883
    99   1      7.4821760682070346      23.273812494589531      2.7433994511302653
   100   1      6.3065943257685459      25.849976164301847      2.5938765914235895
   101   1      5.9619635598340732      27.657692911724922     0.10026293162202686
   102   1      7.9422256354606953      30.885658843732379      52.058544810823726
   103   1      7.8215445449592789      28.859275039148262      2.5357232452297893
   104   1      6.1863761879463253      31.450906280521775      2.4782425291817889
   105   1      5.9688215798557422      33.751110602609138      51.989074567369698
   106   1      11.583250146593841      34.581019789027479       49.54190354923162
   107   1      7.3981455966155281      34.665421452877197       2.456306064452173
   108   1      6.1686855315558669      37.434219260709291      2.7427099881401649
   109   1      6.2388805374702745      39.025686014409082      5.2945698210151217
   110   1      8.1488745220104661       39.95856560859027       2.593752950001349
   111   1      7.7578247017187314      33.872514803114861      49.501586124629199
   112   1      9.8441095952972333      42.779532629861514      2.6668856711797368
   113   1      8.1573458040048337      42.258419395942489      0.3837179743547095
   114   1      11.383347293619478      47.154493843961816      5.4703584698005168
   115   1      9.5688562248602853      48.211819700645115      2.4907936096716616
   116   1      7.9793599072581456      51.170043902335898      2.5793350720888886
   117   1      5.9785790858869516      50.038674980378566      0.2364537848142422
   118   1      7.9248734069662978      52.636448043181773       51.90546543727266
   119   1      9.2400884685350277      49.988606356847455      51.940927435601736
   120   1      6.4823745262080639      53.875968888686181      2.5086846473057651
   121   1      9.6727659225317861       55.51882951288907      51.987817430919009
   122   1      9.7890734834500304      3.9291815291170802      2.8154878883508703
   123   1      11.347662322797753       1.154218168684557      2.4024039580088212
   124   1      11.873807073911099      3.0096577207856443      5.2974992243956116
   125   1      9.8587416935623811      5.8380805114525369     0.23034094588085124
   126   1      11.544813476727379       2.713715976287645    0.065875190319494056
   127   1      11.165552080549082      7.0133032108536391       2.433550294258473
   128   1      9.3180729016185424      9.5035432606924779      2.7571117353551831
   129   1      9.3143598200911466      11.077508412908156      52.045416102789467
   130   1      11.187390861250369      14.190416407765683      52.110035252573383
   131   1      10.933317465413516      12.227872113532058        2.55718444571436
   132   1      9.3908856197225923       15.06269546621723      2.5366966773683512
   133   1      9.4752836814889854      16.844485138736406      52.088852424254078
   134   1      9.6759087896892222      20.284279332969618      49.508644720686917
   135   1      11.378610990189962      19.635034635050307      51.971342531721405
   136   1      9.2971513171662252      20.428241341203904      2.4617462205824596
   137   1      9.6074649484692465      22.525771106402495      51.997400896627013
   138   1       11.25743484927205      24.925867835756854    0.098629104158640984
   139   1      10.957764974373632      23.378568910158148      2.5472415427704838
   140   1      9.2069030942061048      26.301093053752062      2.6050630335062994
   141   1      9.3460734195582038      27.799752513654258     0.15865960564288845
   142   1      11.261445265130499      30.819920133337082     0.13544110884169111
   143   1      11.138505096564542      28.907479873740762      2.7782653523854393
   144   1       9.351949256546364      31.661032319875744      2.5927995651203299
   145   1      9.6095151530391796       33.22671987444857      51.776558667232742
   146   1      12.706276423331635      38.772862786197734     0.01860885239896087
   147   1      14.798469460166638      34.041701647449869      2.9112969720182424
   148   1      11.048555677739355      39.966561547310476      49.058309853621822
   149   1      9.8911334428291031      36.966757657982448      49.548395777762664
   150   1      8.1225450573037996       41.65781287920808      5.1599015921194189
   151   1      13.236472635916027      42.764480723293609      2.4902340378835652
   152   1      11.275650126066596      41.821809305940349      51.984559389854105
   153   1      11.679838153259768      47.039826782806664       51.96797005671025
   154   1       10.04337073041888      44.560524483971783      52.097803010494253
   155   1      11.445530050885177      45.403160454847921      2.5783367393718684
   156   1      13.216282592600249        49.7656560140842      51.813651220034032
   157   1       11.47939151492788      52.760974096469454       51.74702526800521
   158   1      12.955236290673591      49.798028280865125      5.0261311110954372
   159   1      9.3222173366580119      53.700931377797623      2.7261530721851353
   160   1      14.449559637924091      1.0965373633624271      49.574831222888726
   161   1      14.421538928057201      2.7221424596662738    0.010528824456218156
   162   1      14.758576074813805      1.0501999593049276      2.6783950357765818
   163   1      12.987100835316474      3.8825303619189331      2.7892725546065136
   164   1      13.080607213047205       55.28795707676305       0.155345268341781
   165   1      12.783668066966284        5.66721993441368     0.30754479203067664
   166   1       14.39784950802869      6.7143161895406482      3.0259295139533124
   167   1      12.989267169513491      9.6667855073410216      2.8039246309729386
   168   1      12.645590743364803      11.119849484166618     0.18640496197964307
   169   1       14.18309717619475      14.155032905995421     0.15794893079451713
   170   1      14.102732448926204      12.795101025412288      2.6060166457708909
   171   1      12.595488993724524      15.007487887192539      2.6427672097318471
   172   1      12.752456179102539      17.272111993808828      52.006778089623502
   173   1      14.301202477436831      19.571704596537934      52.125797751985274
   174   1      14.212827000113183      17.672375709508479      2.9237090233810155
   175   1      12.584384694031165      20.540396216357721       2.434845571400944
   176   1      12.748791286402238      22.305661518613597      51.944165724047075
   177   1      14.126158046786067      25.332401270045153     0.15332612431666859
   178   1      13.778330079011852      23.387852665246658      2.5694798709717963
   179   1      12.387124644561375      26.085147231600267      2.7058518109430447
   180   1       12.09392102033828      27.835023503903692      0.2842358543809636
   181   1      14.177747090937617       30.58328066863789     0.13880300067866147
   182   1      14.366348601408582      29.033722461075119      2.4091143483239104
   183   1      12.690212280836867      31.567995017291121      2.5394968869821457
   184   1      12.987216618872303      33.707072196807111      0.3561205144406176
   185   1      15.984657695270741       37.17155860898189      49.724428439429843
   186   1      12.446143530715121      36.844021494264169      2.7461973240632975
   187   1      14.293719254166289      36.247976150817493      5.2184249387330706
   188   1      6.5422242409743561      39.353777103704971       52.02769306084393
   189   1      14.739899081826614      41.990260312017824      5.1793443644456811
   190   1      11.356693621994769      41.713227412212184      5.3607617439388857
   191   1      9.5942018545103416      36.964477162172479      2.5393182512305423
   192   1      12.991566895397126      39.201886119221129      5.2829912007704625
   193   1      14.690526436821431      47.212657390440036      51.957898356908927
   194   1      13.258100715617026      44.501892607141599      51.918355322797275
   195   1      6.7174796969903481      48.608180671083296      2.6115909694161377
   196   1      14.199134083886532      51.035813610661783      2.4790079506893994
   197   1        14.5314411657075      52.708612516118428      0.1037324999728382
   198   1      13.377561299137083      48.346133748259469      2.3016291954590629
   199   1      13.004619185152217      53.839277491598708      2.6830652081899999
   200   1      15.990406034078635     0.34057450593386529    0.076733744051790106
   201   1      17.611403843108832      2.9553603786603362      51.849250046239789
   202   1      17.798497281315193     0.97364670494573791      2.6103223840363361
   203   1      16.269645791931588      3.6134464593684688      2.7124463163318566
   204   1      15.972808630351429       5.531623435838509     0.34407164427222375
   205   1      17.281167011570293      8.3359972509880098     0.17301320260399136
   206   1      17.513133185751478      6.7210252439469595      2.6617470353092729
   207   1      14.251855565674081      8.3481425752100353      0.4981805202723692
   208   1      16.137216238963589       9.413821278957867      2.6256079244378649
   209   1      17.914232679265201      14.172111445493899     0.17376383790317584
   210   1      17.336861645194386      12.088739687566832      2.4508932174344804
   211   1      16.294676610448821      15.277278110801092      2.6873103259368918
   212   1       15.80059769527478      16.777303699939985     0.14510637494986919
   213   1      17.317877722661368      20.132889570185554      51.910645008009041
   214   1      17.280350689369456      17.887881985990166      2.5715358677714746
   215   1      15.643758482594347      20.756434181181689      2.5464247420282811
   216   1      15.653832106144483      22.832978816296421    0.059630727672639529
   217   1      15.913471792312345      25.966184926265104      49.692095286943989
   218   1      17.442889527097623      25.537018495993433      5.2399879790789647
   219   1      15.813645059012917      25.749277675561554      2.2621105994779205
   220   1      16.273362169600738      27.649656577290983      52.129013239643186
   221   1      17.584591477327656      30.845806709769093    0.081539587033761102
   222   1      17.527937266848692      28.298110522202837      2.8096800219818667
   223   1      16.194832411105878      31.369670285546899      2.9875231274369121
   224   1      15.890496147276441      33.383875448567032       52.07922495468646
   225   1      14.326401333502094      36.302116360412363     0.31009599064453253
   226   1      17.616760714907901       34.56105122330456      2.7954070719769222
   227   1      15.964883967235847      37.207972115703917      2.5551052308810203
   228   1       14.04486009868814      39.952197214921455      2.4838604321833815
   229   1      16.048344163998671      42.349697560828773      2.4127224457559096
   230   1      17.793350152219649      39.917158892149757      3.0570099937401327
   231   1      16.228840832434248      44.673802986531264      5.5506338000217204
   232   1        16.3146908469419      44.411588176184914   0.0076464452987955144
   233   1        17.5667851918327      47.377079528588752    0.069121743574229386
   234   1      17.225739888006835      45.586874262980999      2.5452614748733944
   235   1      16.076170447550119      48.419379273880651      2.3856986930153181
   236   1      16.010496355868646      50.172367290831232      52.108538942311462
   237   1      17.279853107783804      53.225575459951727     0.23538735907659944
   238   1       17.80433235675596      51.376783804657457      2.5613565374492282
   239   1      15.999089643419603      53.646810244050883      2.7857299169799363
   240   1      19.294825436146912     0.19180265028469165       52.06970996895771
   241   1      21.030030709135481      3.4903804540109697      52.039460946955543
   242   1      20.980924673933341      1.2753857283028074      2.6454359127761697
   243   1      18.987701574922454      3.6543789174618619      2.0370660851386626
   244   1      19.198646811341046       5.948035425647709      52.032724930801621
   245   1      20.872658777827713      8.4063889062141719     0.36361513136542489
   246   1      20.764082472797138      6.3383736632039076      2.4960132953785656
   247   1      19.440191126222821      9.3442297339309981      2.6491684856546538
   248   1      19.228756548660463      11.722129879743076     0.20762633521338414
   249   1      21.046108056586128      13.888366122240759      52.001464749668287
   250   1      21.045505099058886      12.349243496182538      2.7362195628153181
   251   1      19.411683934479576      14.789359175353241      2.3709897518322895
   252   1      18.824762427477062      16.899176493587195      52.081212365804063
   253   1      20.481296318418114      19.423446473362596      52.086337109585479
   254   1      20.336709720272186      17.708988369376918      2.6135448057108528
   255   1      18.727932097474017      20.624021073073656      2.2771525534715007
   256   1      19.106092328731073      22.273490343686497      51.722917888595084
   257   1      20.769881597351674      25.320826958974553      0.2315052218217985
   258   1      20.808904946265212      23.156423285402887      2.4123398567539884
   259   1      19.004410528372972      27.927437955920617     0.24731155322660681
   260   1      18.931880696300453      25.757878194518462      2.8110690940094498
   261   1      18.929186561143393      33.975333550077814     0.10091183015202754
   262   1       20.57596458541315      30.682292212234831     0.16068770671508828
   263   1      18.999847032283533      31.429806632860902      2.5240449573726762
   264   1       17.47422993719962      36.350150385230869    0.024473705819466899
   265   1      21.099369340212949      36.144834074630346      51.898045300510645
   266   1      20.696259897701982      34.347093521093292      2.5933258206367777
   267   1      19.164633789335031      37.325687280158277      2.5898935379231856
   268   1       18.85283457921766      38.805492314632538     0.17225546295349004
   269   1      20.667470552125021       41.74289249848777       52.10591942150063
   270   1      20.894226879426157      39.792980728843951      2.5781734633696356
   271   1      18.786428689204648      42.742886884234657      2.5878884240814606
   272   1      19.410879385526243      44.562347083183468     0.14628704326279177
   273   1      20.309209930053548      47.269266486553249      51.878891238016877
   274   1      20.784664007736676      45.291794878272725      2.6164779311542867
   275   1      19.099163939823374      48.522264370058615      2.5986167311141584
   276   1      19.285132377902595      50.578548044586746     0.21383280112114963
   277   1      20.535128519965308      51.076787879986504      49.092921306006652
   278   1      20.740287503888144      51.898652027401027      2.6378855294538162
   279   1      19.199122521609912      54.131709089920335      2.8667328836242136
   280   1      22.516922342410847     0.94548838655100331      51.898409718005027
   281   1      24.223234254412386       2.991669291225739      52.024828396423715
   282   1      23.932736182516059      1.0602085649754918      2.4165156234416845
   283   1      22.484851821026837      4.2136064444276009       2.690453703221388
   284   1      22.929520171709044      6.1290144228385959     0.23186582240494433
   285   1      24.096379647958344      8.6449068502464694    0.075020607768009728
   286   1      24.489542354662088      6.7702981267406459      2.8273314980875077
   287   1      22.840791270247585      9.3424110979524819      2.8585102840123007
   288   1      22.334638836985754      11.357760958152948     0.24370200143939125
   289   1      24.101181982199641      14.176292408737098      51.873265731539639
   290   1      24.073630665259945      12.513811796543211       2.365925012576692
   291   1      22.363969172235425      14.725839767019476      2.5642672793573671
   292   1       22.25688888280634      16.868652883054772      51.735507468356147
   293   1      23.869655345002506      19.429642911975304      51.947674228828483
   294   1      23.680732593237465      17.566760574273768      2.6593459449029284
   295   1      22.139522313229129      20.234610996459807      2.2896702811407565
   296   1      22.156458555423988      21.745850661235387      51.774961404786687
   297   1      23.587889902675865      25.038986521710601      51.887178913157335
   298   1      24.064784460631927      23.109085790896799       2.518541067761118
   299   1      20.765970349391068      25.365932836572689      5.1497214840987722
   300   1      22.496370910048366      27.995482749719159     0.24061907307639338
   301   1      22.596524350189323      31.749079559800908      2.6392516615565675
   302   1      22.258248639804737      26.004920644513994      2.5515736552723425
   303   1      20.933420046236471      28.977374584741629      2.8488721030883144
   304   1      23.812896896138337      30.365016657475721      52.071678561742232
   305   1      22.356999514776522       33.40079276873557    0.029034335955251955
   306   1      24.137942017313033      34.574905612427145      2.7039245375146703
   307   1      25.664614824728051      37.428060441772807      2.4972848447278606
   308   1      22.378917516425453      38.965173568608932      52.101289934187967
   309   1      24.268756440178148       41.53540694129174     0.21513601924092499
   310   1      24.031310286781217      40.255710854430333       2.467367235640014
   311   1      22.367596453089096      42.650492026034698      2.7962158412316889
   312   1      22.715362452392014      44.121490101009435    0.025841926778770615
   313   1       23.89486935004199      47.189630013073696      52.035072808953714
   314   1      24.388537319902468      45.871634302724637      2.5875053167680213
   315   1      22.087889929532611      48.513576049118818      2.2003253401565042
   316   1      22.342251486824743       50.25441542081311      52.127850568233008
   317   1      23.957118062796916      53.206078972588756    0.083310832897266263
   318   1      23.751016526896748      51.400190594907329      2.2128735813357312
   319   1       22.70395072317033      54.057532040440563      3.0506336861657677
   320   1      27.161280134581652      2.7297559998470273      51.997638547551489
   321   1      30.650517748918102      2.8207102289851718       51.88910431793866
   322   1      27.380989195619271     0.80197137913771188      2.1438442723218887
   323   1      25.819149502491374      3.9251561170590392      2.4238400167877128
   324   1      25.728342470737037       5.688617570547466      52.077242539994963
   325   1      27.305980302826427      8.4623945408758203      52.046037636085501
   326   1      27.379828300320451      6.8620500606386754      2.1684233569473665
   327   1      25.546495498923136      9.6819153674935787      2.4481732601166648
   328   1      25.343694210392954      11.349443911976547      51.905375239495278
   329   1       27.17398830656786      13.924718821254197    0.019789683342076373
   330   1       27.62876454210426       12.31460596052561      2.9494299913504602
   331   1      25.446216914952966      15.228256493065802      2.6391867843478418
   332   1      25.175056000581769      16.864317130902574    0.094046463237313194
   333   1      27.009737052555629      19.202314460768548      52.055721678229084
   334   1      26.940009741826287      17.711046243867912      2.8000654183169305
   335   1      25.349191132926954       20.07601675479264      2.7656898171648101
   336   1      25.842624515377313      22.113519472192262     0.13349762235474436
   337   1      25.636639184634753      27.981916374437521      51.947978369312523
   338   1      27.120735280593294      23.338208243541054      2.6808176011262503
   339   1      25.369885112418974      26.265851580569358      2.3128982661255884
   340   1      24.261374465659799      28.983222887326892      2.6502426998915771
   341   1      27.048485361684374      31.011349842649334      52.097022050697262
   342   1      27.437876290846898      28.886739779714734      2.6292835214126682
   343   1      24.036012273224909      30.891570968524224      5.1848289533067167
   344   1       25.18008309379233      33.490555272493609     0.11053806443306959
   345   1      23.956503927135859      36.602133729242205       52.06638393927409
   346   1      27.012407614902195      34.595492380398731       2.307629905837814
   347   1      26.882757643055729      36.246781403840991      52.106758844025045
   348   1      25.705739542271367      39.212751686715293     0.18844758337789277
   349   1      27.213955139779433      41.950934722036052      0.1656517951274096
   350   1      27.305279757966563      40.089409280141645      2.5568356066942313
   351   1      25.413834451334186      43.016373320404021      2.9378969203196981
   352   1      25.575220716607756       44.40154888868463     0.26554941215462974
   353   1       27.02257208649479      47.460114874909827    0.090208242351579898
   354   1      27.330004096023043      45.163962915009975      2.7100183081542308
   355   1      25.651916855817497      48.438137166486406      2.6189191818484545
   356   1      25.358534204083838      49.907703509578262      51.554487008108985
   357   1      27.290099201084359      52.886149582447757      51.729777826232869
   358   1      27.514217891740238      51.346953682601715      2.4213659089806052
   359   1        25.7544717759632      53.793421350072258      2.3403299902505887