dump/Mg_900_20/steps_51 (written by ASE) 

3980 	 atoms 
1  atom types
0.0      32.100000000000001  xlo xhi
0.0      55.598830921999998  ylo yhi
0.0      52.130399999999995  zlo zhi


Atoms 

     1   1      30.615239958197453      0.9566624768554729      2.6287488147563969
     2   1      3.5106288501846237    0.072481188991260784     0.25598116722158859
     3   1      1.7375672166450398      0.7826854761057328      2.4744817746439609
     4   1      0.1328578183729977       3.570202540492692      2.4125301036470832
     5   1    0.034166714344931987      5.6986871879385212      51.927349532567256
     6   1      1.9350350883054406       8.637639127420158      52.038649892118642
     7   1      1.7705110700335016      6.8434487962349841      2.2115982424083889
     8   1     0.31852500944040746      9.3052330559360694      2.4216632329476271
     9   1      31.832264706089198      11.029959047562116       52.09246047112677
    10   1      1.2798819439611557      13.677076025204922      52.036433480031071
    11   1      1.5874304224401039      12.225063994403984      2.3992067864186222
    12   1    0.028274630844931516      14.744684613241809      2.2240231489408875
    13   1      31.750930823344614      16.876914339059926      52.030312011068204
    14   1      1.8537638072559659      19.591433787458115      51.821987739307751
    15   1       1.246187467301026      17.407222901508231      2.6116870963474579
    16   1      32.066441199308223      20.480876729867799       2.646761630840349
    17   1      31.804320653373797      22.424763070487785      52.033784633883819
    18   1      1.5664910114179547      25.293673451076511      0.4255278350988918
    19   1      1.9843909451553259      23.081211404884616      2.6322510056891577
    20   1      31.991136282331091       25.93246872574743      2.7825558960267824
    21   1    0.063557859383450183      28.136680971275279      52.035619550964341
    22   1       1.672761917836652      30.516623962012968      51.906582076417365
    23   1      1.6151950982509593      28.621823678882414      2.6479989973214928
    24   1     0.21904659735237336      31.276127659849099       2.271088014502364
    25   1    0.054226890229227456      33.318036375094501      51.966180435125452
    26   1      1.6300803786837428      35.883910436495434      52.092549824235853
    27   1      1.8922714037345616      34.292784700421201      2.5315309331172142
    28   1     0.38713671079537265      37.267066420452444      2.4040109719902514
    29   1      1.4851806912109435      40.308495798442507       49.39684798861628
    30   1     0.94945479268869248      44.109875792344191      51.950959786248227
    31   1     0.34676376881251847      38.769808839179333       51.82839171589869
    32   1      28.915050920976366      44.304193082676981      5.2651827992705336
    33   1       3.788570940340362      45.003502161765311      0.1203165696939842
    34   1      1.5213618532826119      47.230274896777296   0.0024592995341662562
    35   1      7.0273515269293831      44.271151558184144     0.26079790918826268
    36   1      31.872232950946877      48.472772010817991      2.8360571823159804
    37   1    0.052557150487650042      49.889756382243895       52.09943299545855
    38   1       1.606409461879768      52.931689457104845     0.14183659458201409
    39   1      1.4709538321067317      51.170732986946277        2.46325519907916
    40   1      31.886291904425157      53.712298893188361      2.3664648421403522
    41   1      1.6560955409182525      2.7836860838343749       52.11447459468053
    42   1      4.6787540965386141      3.1050155261930041     0.07334767177620316
    43   1      5.5310896971964771       1.260245103746352      2.3529631113462814
    44   1      3.2339614221300299      5.8458244848394525       4.955073090356457
    45   1      3.0407118147210341      5.7619573069741614     0.03403392948243119
    46   1      5.4011302035048088      8.8313766048206013    0.031906468059260437
    47   1      4.6917008734578234      6.6991617533971421      2.3540443357380885
    48   1       3.545292594235367      9.5909263678172927       2.442709911312384
    49   1      3.0239756270879585      11.378510169216277      52.092311690716159
    50   1      4.4863116225581354      14.095937700474442    0.098807781413807111
    51   1      5.1200462358143835      12.297628237461355      2.2326560419438497
    52   1      3.3291711698722062      15.128135263044557      2.4972907082749876
    53   1      2.7938222773705239      16.444109272278734      51.823998213850402
    54   1      5.1341745123724198      19.737507866201497      51.780425331502727
    55   1      4.6250862932240295      17.654905304643421      2.0557928428333589
    56   1      3.0398434386144118      20.294010668312687      2.5620922300378384
    57   1      2.9274496342766074      22.558084955990793      52.040997800694633
    58   1       4.890768682330612      25.247914999329044     0.35113051476135776
    59   1      4.7093093020389816      23.424076883907492       3.030319856722961
    60   1      3.3923687880966029      26.105215694932678      2.8350857921491093
    61   1      3.0575254163857655      28.125143134662078      52.071134209060766
    62   1      4.7683686948806105      30.610206371072714      51.916357206549129
    63   1      4.5606472177128268      28.727784851797605      2.4953718105297269
    64   1      3.0187873474574562      31.604034487705992      2.3555565205879287
    65   1      3.3844085755813373       33.31650846140549      51.880969246011048
    66   1      8.7064854822552231      36.230922477083233      51.947016214986093
    67   1      4.6805310439971528      34.121459146964696      2.7503601396365118
    68   1      3.4270253632559844       37.17848906301861       2.325274672584194
    69   1      3.2705323750798891      38.888940481263802      51.713880127373862
    70   1       4.508726295711174      41.729693787983614     0.39005669722084513
    71   1      8.4165729818363442      47.307787372755335      5.5023237077627707
    72   1      3.6582150958165927      43.126982129510203      2.6169489468285123
    73   1       7.897927709807564      45.455729054352624      3.1107024251133182
    74   1       4.757842811812389      48.116602237952115     0.37262009581774658
    75   1      6.7746255928261423       42.89107226320246      2.5304910693154454
    76   1      3.6715454619347541      48.612421255345026      2.8919112653116241
    77   1      3.0088106984159784      50.480645182379313      51.991884508013044
    78   1      4.7728365692161203      52.829018253909574      51.753656502561725
    79   1      5.3149248511451832      51.347238100881043       2.587781317368909
    80   1      3.1497782304697162      53.679627418306467      2.8051585995610804
    81   1      6.7755025413120569      55.336115299722216    0.058166013290688379
    82   1      8.3170640935073266      2.9882312954063144   0.0022518261322473357
    83   1      8.8348464602648296      0.6578214157525839      2.4849975773887447
    84   1       3.061640664370977      3.9498063173744189      2.3959663166034417
    85   1       6.754022773771708      6.0652455040083781      52.041238671164727
    86   1      8.2705779748722268       8.820563411617151     0.27860364621043837
    87   1       8.238797200997336      6.5988694426330374      2.5340343663822402
    88   1      6.7584101738787341      9.3886179847680733      2.7831568980951049
    89   1      6.5540984845301828      11.743651852289425      51.654344102997541
    90   1      7.8205352916317228      14.153883721684196       0.215249931251565
    91   1      8.0594645578146977      12.049779010793186      2.5307738755048246
    92   1      6.5998543575397983      15.116145711465158      2.6882705804663729
    93   1      6.4107091453105554      16.496481570240352      52.045351054481522
    94   1      7.9916203634120375      19.548656056347653      51.959890422589076
    95   1      7.8271700041391252      17.800015386229052      2.4728222523093994
    96   1       6.137192945955313      20.400712328803149       2.003352466000305
    97   1      6.4712631602868154      22.447854948023036      51.966068122228741
    98   1      8.2321949507897987      25.359386745616195      51.914619986408589
    99   1      7.6695882006271034      23.394393624806408      2.1330382751314167
   100   1      6.3701157682294554      25.963556044564253      2.5897243360740307
   101   1      6.5807084520182135      27.807853510235333    0.031541198612838085
   102   1      8.2882237399932457      30.879437727893851    0.082399330331483694
   103   1      8.4338374900235848      28.826864251046345      2.5726328498502018
   104   1      5.9091089034486126      31.533996618536538      2.0717044882196789
   105   1      6.6703172008101399      33.843241968764112      51.570629364793696
   106   1      11.257770079427361       34.28742481719334      49.528244995012393
   107   1      8.3486890511558833      34.320378255157323      2.5213642020448259
   108   1      7.1089863730438934      36.949101753340699      2.6874093286744927
   109   1       6.462062585869246      38.946091144482878      5.2981064566268659
   110   1      8.1495727854515501      40.248198835964871      2.7182910568050458
   111   1       8.268286301069443      34.603601254560608       49.47915550387679
   112   1      9.8830972811813886      42.647622002441217      2.7421644626912069
   113   1      8.4143895538621472      41.764393577529198    0.084814166091684892
   114   1      11.287199003386936      47.047736884438777      5.5207616630316467
   115   1      9.6595030547119922      47.940166100350503      2.5560920817973618
   116   1      8.4693145954683011      50.947118799234438      2.5385038228824301
   117   1      6.7453625176016478      50.490640926588483      52.082186559150436
   118   1      8.4734977268419556      52.805011663999665    0.084014963256805603
   119   1      9.8832907273186148      50.135011415875276      51.730311677289329
   120   1      6.9548020987293757      53.586273217658203      2.5592704710196674
   121   1      10.002987643877683    0.064346806923124028      52.039360121439344
   122   1      9.9050774833672737      3.5978353519054482      2.8463656010666329
   123   1      11.689438388960244      0.6876697493364482      2.7679738571314512
   124   1      10.937612130542817      2.5385176322291754      5.2587291960148796
   125   1       9.889514781106687      5.5993098937023529    0.052767717980074347
   126   1      11.539031949122116      2.7728148313503422      51.883857856445559
   127   1      11.197338608955953       6.634304569337691      2.8519116093616392
   128   1      10.020573160194859      9.5567916525182923      2.8996856852937389
   129   1      9.7913055227545396      11.387021200487755      52.059206634966287
   130   1       11.18087765463258      13.958954382366842      52.079990693948488
   131   1      11.017885502414696      12.370740403813432      2.9741981516009433
   132   1      9.6479279078410549      15.250536711718839      2.7184436334640187
   133   1      9.4401529988359201      16.761616123446242    0.013884548542672204
   134   1      8.9497278116981374      20.524910088435316      49.315503933660565
   135   1      11.276933756220219      19.808540361313785      51.931895474655903
   136   1      9.1634972987733114      20.572042511906854      2.3047774454383423
   137   1      9.5267036974515911      22.246791578791967      51.798138598645295
   138   1      11.090547415642101      25.443327785412219       51.81185982553064
   139   1      10.828812948690333      23.096760944189619      2.6221106884009879
   140   1      9.8347475616928879      26.181309327744771      2.8028716990371505
   141   1      9.7683464612221709      27.762909405250632    0.073871596627329172
   142   1      11.051375749779952      30.325164297213185     0.30615521121553385
   143   1      11.557999622409916      28.887565655312976      2.8730922089284063
   144   1      9.9490998852408854       31.78679265447904      2.9192317217593775
   145   1      9.9544436461423444      33.402437030862643      52.112508469458497
   146   1      13.144256633749039      39.139625429615563     0.39496012789001667
   147   1      14.385370642868725      34.385275113493321      2.3719084157093664
   148   1      11.541201750053265      39.877199482135232      49.908843074327358
   149   1      9.9799439342230762      37.368886022604642      49.738437101565189
   150   1      8.3447052408397493      42.585776260353839      5.2841912946349945
   151   1      12.620689417056797       42.55842198692244      2.6003771961326136
   152   1      11.310439389687007      41.853783886289506    0.069874939666296737
   153   1      11.251430915216574      47.207963711919312      51.970811743255027
   154   1      9.7679981328142471      44.489639955410226     0.34056419461354992
   155   1      11.322716303664567      45.365356229283144      2.8747269365740031
   156   1      12.914833765211524      50.100788578423092      0.1069070424615402
   157   1      11.586642920819314       52.89942479091313      52.075149679827021
   158   1      12.738442692689567      49.534944756651321      4.8204040360537235
   159   1      10.072691496407948      53.354615830216595       2.564471086002857
   160   1      14.339117110221174     0.77212707593975827      49.713339836678188
   161   1      14.537035096028553      3.1681290272537952     0.20307891399658556
   162   1      14.580525086812676      1.0525551060843401      2.6626157989673112
   163   1      12.763512021865839      4.0195968524759413      2.2959843714562207
   164   1      13.189271560585819      55.461304496330911     0.11513620535534286
   165   1      12.977361909715425      5.8322631567607441     0.15455339193161136
   166   1      14.548554482953577      6.6464141873833009      2.7094734566240213
   167   1      13.102648905092463      9.5450887755865246       2.435398813780278
   168   1      12.730814007562982      11.252453586676028      52.006002355476411
   169   1      14.365409062660955      13.919806912607488      51.960768461795368
   170   1      14.353795231454901      12.417189512357654      2.5304674101397535
   171   1      12.819408220126132      15.025611249168678      2.6826281308015316
   172   1      12.689944206156548      16.704096799074215      0.1690561933087531
   173   1      14.549499396693774      19.257189150130134      52.055625259234873
   174   1       14.45847468626269      17.688550014808886      2.4399867848304742
   175   1      12.798558891498732      20.729306131552196       2.023435618580895
   176   1      12.546561936872562      23.315671667445237      52.107105047708281
   177   1      14.612285945479385      25.221114912376127      51.895690756754938
   178   1       14.25174604739102      23.234206606097597      2.3449450414474144
   179   1      12.793940478864116      25.879485655361197      2.1587987241538298
   180   1      13.001669374644441      27.804153311635773       52.08058339421099
   181   1      14.394778910246202      30.865013448374356      52.050310484087916
   182   1      14.440835899832633       28.66787518520756      2.5303316587213383
   183   1      13.000766025023418      31.559024541842071      2.7292240434033626
   184   1       13.05595974676584      33.248841357930928       51.99700007035964
   185   1       15.93831609297858      37.156171295287002      49.712114882271955
   186   1      13.298517324108161      36.972893403313087      2.7748579111152898
   187   1      14.858386571841493      36.541486047687997       5.199710991646433
   188   1      6.2497997347339274      39.025535151907988      0.3575302627331719
   189   1       16.10498591147056      42.224007067226239      3.0273011720511613
   190   1      11.541293337227279      41.896508904671663      5.0916291523191752
   191   1       10.24101745423869      37.524056647159249      3.0961138876479932
   192   1      12.780074379706551      38.842819132743195      4.9829066191347104
   193   1      14.396555199968226       47.55805128597315    0.053947348941011095
   194   1      12.775794873809829      44.581762259456141     0.27586961821319111
   195   1       6.496113845439015      48.576970689249784      2.9939794221716203
   196   1      14.588513740327814      50.731131908058778       2.567712561297093
   197   1      14.866584769546584      52.872312820313205     0.11640527102789762
   198   1      12.663133993716627      47.762843227889206      2.5761040233037069
   199   1       13.10517919937814      53.544092610874195       2.614904554277758
   200   1      16.244917519747151     0.11584210447717153     0.01399577259465358
   201   1      17.777717184827647      2.9867753798743366    0.038739400986386431
   202   1      17.997181288111662      1.3246989684615944      2.5340032773755663
   203   1      16.195030974347205      3.9003557869623893      2.5789752998345761
   204   1      16.090653949403283      5.8215833247984978     0.19095602669712294
   205   1      17.429246070561479      8.6623856926253158      51.895836803957728
   206   1      17.936785516097508      6.5214170324405574      2.4787516592072922
   207   1      14.497024926414079      8.5198892499411301      51.958097101103675
   208   1      16.237602089281125      9.4379314323141195      2.7112879938258727
   209   1      17.523635530218176      13.757724632732707      52.126307602873666
   210   1      17.809392158203174      12.012499093624552      2.3933954695645019
   211   1      15.869576508499261      15.088872235674621      2.5686344010293327
   212   1      15.758962330653429      16.576567496502562      52.118357128533482
   213   1      17.562374915776324      19.398106833388063     0.24837199456311163
   214   1      17.735571892100733      17.887118181765867      2.3837604354259998
   215   1      15.908277806084067      20.487609345236844      2.6027307602252798
   216   1      16.076856381181674      21.918468327870116      52.027625455204202
   217   1      16.372491179343573      26.218623472281511      49.267154023884146
   218   1      17.574529800923745       24.74766048384344      5.3774015172777077
   219   1      16.102577755542942      25.955734476364398       2.672779138499954
   220   1      16.082709189071963      27.809315241895995      52.118013931378243
   221   1      17.791366477440462      30.419009459978803      52.127632074293061
   222   1      17.475602235147811      28.827075622671448      2.5105594916070078
   223   1      16.116679453662339      31.600572183545911      2.4863988057758259
   224   1      16.479197768652178      33.105681977473658      52.064340374136535
   225   1      14.879467631469012      36.274134467296328     0.22787428753935968
   226   1      17.640638741392937      34.414208612994472      2.8586688376227465
   227   1      16.515985235501923      37.161499188261857      2.6774972223988334
   228   1      14.333890763345606      39.842641008791595      2.6635800655690196
   229   1      17.628991032097144      41.720830129596997      51.960127650237062
   230   1      18.189100261030532      39.658234834019915      2.6051363507900045
   231   1      16.413985353768688      44.249517904645707      5.4329091394257079
   232   1      15.985109469250418      44.666006252775858    0.036237656121579594
   233   1      17.695778636256101      47.275715680865375     0.40401976608142787
   234   1      17.530154142975704      45.031519215277171      2.6368993189890575
   235   1      15.831289902451097      47.880053477974869      2.5343029410992211
   236   1      15.904668196483982      50.339111814298739   0.0099419331959382604
   237   1      17.766449802648424      52.943814222258389      52.126456777165096
   238   1      17.831922741091876      50.726511837730719      2.5942332602983984
   239   1      15.975453085565288      54.065580315564311       2.367887650441638
   240   1      19.412573756443837     0.21270089232447073      51.898784866437076
   241   1       21.15734214175507      3.0072373125914598      52.095760197150163
   242   1      21.262158954867594       1.144225098702834      2.5453448162362826
   243   1      19.539844396149931      4.1110593352843345      2.6927496046725161
   244   1      19.401362693133603      5.8027059981976041    0.004651718980367152
   245   1      20.793711782624531      8.8152509375596235      51.902313430370576
   246   1      20.950299222019037      6.9758163009714451      2.4972382769431829
   247   1      19.378716649875308       9.550502941870727       2.318475347372261
   248   1      19.385014383606038      11.524151045052934      51.947242000801992
   249   1      20.780139383091708      13.957701373633851      52.056449024239797
   250   1      20.856834114058412       12.32757757819866      2.3812232628232493
   251   1      19.360567106025517      15.196440514504619      2.5443399791294063
   252   1      19.068183221241274      16.384404062070537      52.027331517360068
   253   1      20.480054001461816      19.182341298064575      51.797042807614496
   254   1      20.933181917634553      17.721767045351125      2.4360095390077028
   255   1       19.13704584737971      20.681568588219935      2.5933929642137876
   256   1        19.1471590486982      22.093608160068431       51.88552604050772
   257   1      20.642706686146589      24.889980375394344      51.889654731055806
   258   1      21.078839031288233      23.369300040848156      2.4435218522204001
   259   1      19.035973230153175      27.488473094951857         51.719386141902
   260   1       19.30959685700731      26.001584707492928      2.5379625408185631
   261   1      19.529199260693382      33.736369456586011      51.960317871758654
   262   1      20.911620378526351      30.811234070529142      51.999158317851425
   263   1      19.477511289924212      31.742072366308285      2.4429215090529812
   264   1      18.194978821928125      36.169758972324871      52.026817203499384
   265   1       21.39803782041642      36.237600339339274      51.997881029385674
   266   1      21.161763185765921      34.366011861555933      2.2522689897194579
   267   1      19.659661401469389       36.94994070863418      2.4676534183512868
   268   1      19.177299519037682      39.061793492144744      51.986385209511496
   269   1      20.753683667398509      41.512542430855753    0.010568040059443144
   270   1      21.541786821858967      39.425419545896133      2.5917575981909007
   271   1      19.278884260225929      42.631613144269565       2.557254699907181
   272   1        18.9870089405123      44.688591531567155    0.043845031147771996
   273   1      20.970618350900946      47.263655092550017    0.099983061239220711
   274   1      20.757743350991777      45.302166706739797      2.7164794052297574
   275   1      19.268044683867473      48.280476353733022      2.6329160161057619
   276   1      19.118077960521145      50.393794159528831     0.14419486824143493
   277   1      20.820260008853314      51.236975260027009      49.788476998973742
   278   1      20.745952062757272      51.048572528344017      2.6788745345820941
   279   1      18.966323554686237      53.852087325489428      2.5565644196530979
   280   1      22.421513545436447     0.12954370362335041     0.30618154838736716
   281   1      24.492064575069321      2.7355239468909951     0.19617489685281381
   282   1      24.198171278841336      1.0308787874112362      2.9872820000750027
   283   1      22.648291417704218      3.8944526690858718      2.5119866045975248
   284   1      22.513209505729108      5.8884020327885089     0.14069850315707419
   285   1      24.163652325644755       8.330277669415624       51.98186932939862
   286   1      23.842764559911188      6.4942621349467515       2.457416004016415
   287   1      22.545964919698996      9.8531393760057089      2.4811245265574065
   288   1      22.785703800242704       11.18552063908753    0.039193828843190372
   289   1      24.177895363671254      14.113985571964099      51.906845154629721
   290   1      24.428995354103975      12.045763682825367      2.6032328171382657
   291   1      22.643566794701098      14.869335756602894      2.2553141439205158
   292   1      22.613658315863177      16.783038187245818      52.086228632858301
   293   1      23.946703719129896       19.34511949555225     0.12623009481505765
   294   1      24.425157770784327      17.293119996842961      2.5232310766843016
   295   1      22.371611539112411      20.147184646372985      2.6342704654092195
   296   1      22.185722014132871      22.128613267112272      51.921927634688309
   297   1       23.48909194376073      24.762125026092225     0.16308757961447373
   298   1      24.035330895993443      22.490710239036375      2.3929164130626157
   299   1      20.543876516725607      25.177517909134465      5.2603473656950577
   300   1      21.985369068513474      27.846299367367074      51.825993333835342
   301   1      22.439402197204217      31.623655258120873      2.3849224821343644
   302   1      22.352711019719443      26.377109524198872      2.3079235921299399
   303   1      20.502680567991984      28.947892071585596      2.3286795201632402
   304   1      24.743949984444431      30.616974010180719      52.074400314422469
   305   1      22.935206259286918      33.533288401847827      51.946537765296739
   306   1      24.466096462426886       33.93286394243863      2.4267940782445265
   307   1       26.25003517088852      37.069143235457041      2.8398297870600855
   308   1      22.738137127412735      38.876740958368885      52.088980634481807
   309   1      24.273968991753861      41.541753187258898    0.089279323556568604
   310   1       24.66156779291677      39.571821652471463      2.7148845231549159
   311   1      22.467973393510132      42.616784375251278       2.547620085338103
   312   1      22.360248570490349      44.213144211632084      52.113391267949282
   313   1      23.724820024020072      46.861082372314378    0.013880496466300679
   314   1      24.093033893487853      45.187796720232583      2.3714982764794788
   315   1      22.297648645266396        48.1021493138525      2.7099819360161539
   316   1      22.520994736834702      50.146819621251083     0.32042744667529466
   317   1      24.329247174987195      52.640994224677577     0.36679122058040059
   318   1      23.684524198347781      51.236901186505634      3.0953751980909154
   319   1      22.496844766003459      53.710080247661409      2.7731770339683761
   320   1      27.339277629031344      2.5638011456952818     0.25762143396586268
   321   1       30.89904294394017      3.0260853377426224      51.663127267896101
   322   1      27.292259451497955     0.93286197158610529       2.520083745295072
   323   1      26.185035880245028      3.5543139493922786      2.6437063085273937
   324   1      25.736056689591237      5.5106831593526913     0.17861341150458757
   325   1       27.10679232065247      8.1968407224133468     0.10922858427152103
   326   1      27.494529042126985      6.1298735375012479      2.3230150912361172
   327   1      25.907242325684919      8.9480731360349193       2.860103246942999
   328   1      26.046252284278754      10.996012086733085      51.590273664758826
   329   1      27.314680279184319       13.86723897994032      51.383073811954056
   330   1      27.680590608182133      11.824411106729984      2.4416038870044101
   331   1      26.101608884399031      14.653668207418001      2.1165789889538806
   332   1      25.799151139696427      16.762063508405358      51.773325976961836
   333   1       27.61548066522818      19.422742721915501      51.863246929690362
   334   1      27.704994118189379      17.460851526430648      2.3513328730786869
   335   1       25.81727046220486      20.053737061219412      2.2702309148090714
   336   1      25.401496092391515      21.952114547658102      52.038596472423649
   337   1      24.758110951813499      27.367770986106176      52.119290775842408
   338   1      27.191729558756347      23.261475878690018      2.6191262522811902
   339   1      25.356261476072909      25.713410225263321      2.5047775351003532
   340   1      23.822420056083427      28.775254859507378      2.2850176220570062
   341   1      27.702093190468624      30.876785703563446      51.992462274057679
   342   1      27.049498599420605      28.507060124498853        2.05688744637217
   343   1      23.876438910138894      30.250105219818657      5.1163357322241989
   344   1      25.903021521049755       33.58213112936042     0.10014932705659314
   345   1      24.854005184797693      36.397762630457756      0.1777880253627154
   346   1      27.495254124786989       34.39884357208463      2.7904454003010661
   347   1      27.860846528605414      35.958604886599367      52.069820232409363
   348   1        25.7493660364057      39.008108411409935      52.087543538966038
   349   1       27.35687049983105      41.529035850899504      52.016578410331178
   350   1       27.77752214370717      40.056000360057588      2.5362021856011232
   351   1      25.859046575221544      42.604106654529943      2.4548964074876061
   352   1      25.795760745757864      44.357205434128147     0.15400760372948596
   353   1      26.787427901279308      47.290574001544492      51.960708088140926
   354   1      27.359338308372312       45.66400426614949      2.4347807654825693
   355   1      25.472734904297788      48.218260235638375      2.6637666666915725
   356   1      25.363346986523808      49.741929807978067      51.832823874413705
   357   1      27.560056320522367       52.41070662084978      51.979193694657916
   358   1      26.931981138754534      50.539637691220179      2.2820797345554498
   359   1      25.326411094062468      53.700254423894584      2.8887049973295249