dump/Mg_900_20/steps_11 (written by ASE) 

3980 	 atoms 
1  atom types
0.0      32.100000000000001  xlo xhi
0.0      55.598830921999998  ylo yhi
0.0      52.130399999999995  zlo zhi


Atoms 

     1   1      30.624818252033755      1.1239169530201583      2.7583779314028418
     2   1      2.6572163276515228     0.61569805726446347        52.0373203205409
     3   1      1.5637656825362924     0.94608212387875767      2.4425740089983243
     4   1    0.043155616444585432      3.8035639211386427       2.520793595263854
     5   1      31.807496134016258      5.9733722912851057      51.660624665143843
     6   1      1.6746049026392855      8.4436676720453878      51.872468058759672
     7   1      1.4974497696927416      6.5561146964594679      1.9981504268635433
     8   1     0.32927412746290879      9.4200340602998942      2.5063060676242026
     9   1       31.84685767654322      11.411776304473019      52.055146677179224
    10   1      1.5020835473575771      14.036278312699768      51.975742317816703
    11   1      1.6967402250698236      12.416991374922098      2.3248176578280977
    12   1     0.15635235399805777      15.029831388851587      2.6113117921599995
    13   1      32.006646948306759      16.823752425130593     0.29143750627360193
    14   1      1.4572138443298974      19.648532093661355    0.056022063847107693
    15   1      1.5645079402408326      17.715248702747019      2.8591028036190278
    16   1      0.1305976330270838      20.371890562997343      2.7784550977687701
    17   1       31.72044269751682      22.090024951789712     0.78076042449946848
    18   1      1.3743583036539131       25.09160017383185     0.26709874835221364
    19   1      1.3877514794434798      23.732201923370436      2.7991569969061283
    20   1      31.682607306826291      26.036560699685047      2.7012701607436815
    21   1      32.002498272178102      28.068866007939732     0.02053205697292915
    22   1      1.4288816435211233      30.828904707289428      51.802136630030297
    23   1      1.4313452786576384      28.870101930201333      2.3453745967642234
    24   1      32.035331194998797      31.563522548395852      2.5920352005222829
    25   1     0.18387290243877555      33.952474784287958      51.819597218939421
    26   1      1.8205051887858017      36.356834773447623      51.931757796768146
    27   1      1.3626159972971688      34.545896812577169       2.409518526064665
    28   1      32.065626239992689      37.292583581046699      2.1603464352288668
    29   1     0.21472749426907847      39.179108515475747      51.870812468637212
    30   1      1.8819181538230647      41.763694495601307    0.051992360526854825
    31   1      1.4074628418485786      39.670188493159912       2.619082487779719
    32   1      31.989833817338532      42.475314422914693      2.2965912533400239
    33   1     0.38333392490178936       44.43970166914734     0.05501054374815071
    34   1      1.8145745703513116      47.277888889063284      52.049079882921461
    35   1      2.0506983169346364      44.984265442869436      2.4453126238829443
    36   1     0.14095060846021035      48.042793576684417      2.5349937483531186
    37   1      32.047115267750748      50.244408797097314    0.033818775189426213
    38   1      1.4945309957175739      53.274457642685348    0.038906025418713693
    39   1      1.8778173422915898      51.060204435161623      2.4310908240043894
    40   1     0.23431422881888353      53.996067662800762      2.4759014820311838
    41   1      1.2838898357265285      3.2773856653416042    0.097702385022777116
    42   1      4.8635432738354352      3.1588595852553625      52.059176949388068
    43   1      4.5232355687855694      1.3381543881577995      2.5186805354344211
    44   1      3.0219122882755638      3.6959117285809016       2.675182464729192
    45   1      3.1914395873094956      5.7426179500240906      51.699050162097699
    46   1      4.6606533616933454      8.2551533112392281      52.048540255772856
    47   1      4.5384706868504185      6.5423966088124006      2.3837439031935985
    48   1      3.3581849248510465      9.4083039002244497       2.256290633021917
    49   1      3.1008004568328986      11.583972967318996      51.889624163003873
    50   1      4.6410889645915461      14.187541140548655      51.919039212913333
    51   1      4.4467773850052525      12.404151938342352      2.5535224349243211
    52   1       3.217235094749229      15.070945343825125      2.7463721186640986
    53   1      2.9302127431340015      16.965354508688936       52.11631480907468
    54   1      4.5956328746798683      19.696162332334175      51.886660598425586
    55   1      4.6387793119754459      18.026047407732925       2.482396149218006
    56   1      3.3891787459409097      20.885277408344759      2.3529626142103002
    57   1      2.8593040493077471      22.234076743525517      51.843719600695941
    58   1      4.4312347717238314      25.233818964099143     0.33113000506532031
    59   1      4.7706601116342995      23.335268388857799      2.4648413458187899
    60   1      3.1539646409317172      26.090667084575625      2.7273195414912443
    61   1      3.2723218273742667      28.154496900858092     0.05171615739830393
    62   1      5.1613968102659555      30.928301325555843      51.766490964382072
    63   1      5.1359561278646026      28.932572684746887      2.6667125612158027
    64   1       3.239035134908137      31.657392317018445      2.2128591566284816
    65   1      3.1752600727118931      33.449812944791162      51.912085581411276
    66   1      4.8613047545670689      36.439644191555246      51.972318515588213
    67   1         4.8514592366531      34.305207234802495      2.3686204520638747
    68   1      3.2613642289466109      37.203002134648131       2.592099641199832
    69   1      3.2279151329958071      38.785329262419012     0.17126894891948269
    70   1      4.9141933937675919      41.447310710629701     0.32652368709385843
    71   1      5.4190932855356753      40.160824729390313      2.8221117907546556
    72   1      3.1771205163615068      42.153817309415373      2.8588965666001016
    73   1      3.5864234163961712      44.727338388224958    0.047743252736688467
    74   1      5.0629473928477795      47.399565047824439       51.93497350485778
    75   1      4.9870934740792823      45.824618927491947      2.6206439284973522
    76   1      3.3461509239415301      48.414638814842789      2.4259547508233004
    77   1      3.2151319463363754      49.956224326980909     0.12447833199060152
    78   1      4.6476086019033591      52.821478864491041      51.940744358174861
    79   1       4.906755541119229       51.13631569072043      2.4623918992645879
    80   1      3.2743855982839967      54.097445417404408      2.2763584374987911
    81   1      5.8497266384049507      55.529413546692588     0.32664773462042301
    82   1       7.652333624084334      2.7571844809915871       52.00967034769247
    83   1      7.6632488365159999     0.83490056262105916      2.5542747597142093
    84   1      6.1663596924377924      4.0042749413594665      2.8867501916068976
    85   1      6.3487946932325752       5.840279445537699    0.057111572226596893
    86   1      8.0004275615258997      8.3389526380163819       51.77830204885943
    87   1      7.9015062259342228      6.2013287819444445      2.8296222595331786
    88   1      6.3635329801781779      9.2726590584903299      2.4859830446060811
    89   1      6.0299596986513437      11.207777685744247     0.12449637472626117
    90   1      8.1032956244686929      14.289755187071243      52.092833084836776
    91   1      7.4572798174699066      12.138121877656552      2.8140797003741511
    92   1      6.4485474642466505      14.903114299362114      2.7943081625161619
    93   1      5.9122351542511105      16.597292361451863     0.18148252635357764
    94   1      7.8229457997426541      19.388010035952746     0.20158932849108149
    95   1       7.681000170322533       17.63784612083634      2.4995035659644524
    96   1      6.4757278294004372      20.474843133110646      2.2973862465829389
    97   1      6.1453325073244134      22.311024924624803      52.015045814743161
    98   1      7.6415330494119278      25.095823050969745      51.965400527108635
    99   1      8.1594239734041292      23.197253272805732      2.4082633881589546
   100   1      6.5007331901607897      26.078978049760707      2.7560130861169627
   101   1      6.0868586705198382      27.935373880996075     0.18150449008238989
   102   1      8.0800216829585825      30.672390707483565     0.11399077436062729
   103   1      7.9420913540083911      28.886431557334703      2.3021286758619826
   104   1       6.290297264666445      31.653608333826242      2.0708064780274529
   105   1       6.169928401968555      33.850889574296737        52.0485531890129
   106   1       7.613357221084903      34.674935565575396      49.505408236141186
   107   1      8.4853075287162394      34.779365806694265      2.5253506120354134
   108   1      6.6186371531831112      37.393297751797313      2.3403464434347914
   109   1      6.4672202737642115       39.15487116041902      51.825661449924041
   110   1      8.1523916845918531      41.953889407436805      52.111096926485075
   111   1      11.066029463199628      40.346851775376301      2.4280224441718468
   112   1      6.2971864543233798      43.254115149107498      2.3729977659924626
   113   1      6.9570035857259223      44.613286484385469      51.936661346080726
   114   1      8.1516600183082595      47.617094857742153     0.16107953479630235
   115   1      8.1049586595451473      45.769411369439808      2.5349974577272998
   116   1      6.5666180380060499      48.342777727106359      2.3701436982678423
   117   1      6.1980610917895342      50.187545074412661      52.078048089517438
   118   1      8.0356695414495753        52.7113941473675     0.30183914861459138
   119   1      7.7032174208268467      51.010493584060953      2.8003117984307941
   120   1      6.0894998520281289      53.814054803204542      2.6873247710729236
   121   1      9.8919298416070784      55.519347110739709     0.59690156409564665
   122   1      11.357403442517912      2.9191734896306984      52.069651959797284
   123   1       11.32846920598517     0.66154431466723562      2.7930114916588402
   124   1      9.2816152742174758       3.524438501665391      2.6213294201838946
   125   1      9.1936575897298507        5.20439130978923      0.6013297862292547
   126   1      10.757644847654115      7.9907331798868944    0.048570589759325253
   127   1      11.108548983198911       5.776149519092594      2.6174355605049535
   128   1       9.386862619450568      8.7366894466640144      2.7758530175482106
   129   1      9.1776538219742907      11.255018846117858     0.34122669846511322
   130   1      11.428177627336796      14.081517387721425     0.14390150947363359
   131   1      10.993164686730321      11.685673726014628      2.7967259755746476
   132   1      9.4421973179790566      14.383396248939857      2.6003520833069684
   133   1      9.8317808003564853      16.842814318764798    0.054550443083992824
   134   1      11.102742148627843      19.596501655591993    0.061303664808268904
   135   1        11.2523451493668      17.640596156487568       2.800692441139097
   136   1       9.366603449486627      20.015336505720601      2.6469523329035982
   137   1      9.3012186399021122      22.312462557696037      51.919610987302761
   138   1      11.151320408652571       24.76391507820243      51.954607292965733
   139   1       10.97605987953264      23.087854106536241      2.4687147115212844
   140   1      9.4473179557677813      25.938405699584887      2.3906620344879816
   141   1      9.4343782712751381      27.694287705000665    0.076575863720030446
   142   1       11.21547579194759      31.045067365805981     0.25648956351177138
   143   1      11.289520527958098      28.653739549674029      2.6370524352891533
   144   1      9.4004229239875112      31.498632031034365      2.4224265992910725
   145   1      9.1662207410043592      33.574923148685528      51.934988060562318
   146   1      12.545673224076392      38.899120146363195      51.542696475344442
   147   1      11.335763013487052      34.436670318610219      1.8164053667748064
   148   1      11.121414181078871      39.978727624828217      49.155909152582943
   149   1      9.5760051935519144      37.050257636664369      49.326682198978574
   150   1      12.806792565145809       42.93384374893499      2.1634837453955029
   151   1       9.452584610854192      43.099919192673283       2.550048681523355
   152   1      10.046382290159745      44.150674340249047      52.034910616302305
   153   1      11.091687921328502      47.205369152133883     0.27217476558291193
   154   1       11.01526786200043      45.402099610841582      2.7422440267854742
   155   1      10.119391188222099      48.607865982411447      2.6381928249553139
   156   1      9.5766812978193201      49.986630623539355      52.008197708503772
   157   1       11.14182067298221      52.822819890413129   0.0038289292261787524
   158   1      11.268163674623416      51.249364618723121      2.6074135013253894
   159   1      9.2783177639821321      53.838897338511444      3.1249235672822113
   160   1      12.797553496757679     0.14655530987244672     0.12854933261729509
   161   1      14.565881160256893       2.324002482369993     0.11510268485511679
   162   1      14.574622353210215      1.0043604816515166      2.8067896327436781
   163   1      12.692478775747682      3.3488095632855592      2.4832041251579389
   164   1      12.985035272423863      5.0122295427356134    0.055342485342467156
   165   1      13.814172509131147      7.7602835131920846    0.023831290657887597
   166   1      13.929420775197656      6.1661446766797887      2.7997805351181539
   167   1      12.438281155348569      9.0002578141417935      2.8902859941426695
   168   1      12.401004539843594      11.031124447806295    0.035662836453491754
   169   1      14.656582866996288      13.652286511874131      52.072786528008557
   170   1      14.142135890274083      11.919139839490398      2.4295798808773479
   171   1      12.604518162253639      14.534548974499817      2.9012862762389302
   172   1      13.026515873684884      16.706827592594607       52.01021354623353
   173   1      14.040301935539803      19.531506655649675     0.11041790520293426
   174   1      14.262446105738993       17.38707737512377      2.6114312526806631
   175   1      12.859244953428192      20.428882590675116      2.3508665559063653
   176   1      12.459953524928428      22.166205322727897     0.10970554729415534
   177   1      14.162931983687312      25.147632304659066    0.070500088759399088
   178   1      14.346982578836677      23.330170830737536      2.3383253453345105
   179   1      12.444610088226856       25.88033529251452      2.1917330543973295
   180   1      12.826105750490454      27.927194699866199     0.27103777021826653
   181   1      14.363003109873597      30.579679276168836    0.063875228751158211
   182   1      14.497001021666216       28.84104288177058      2.7120746310854971
   183   1      12.498254211954732      31.571593531577722      2.8000597570604024
   184   1      12.929827381009634      33.450214131832773      51.812358390454946
   185   1      16.141661414146075      37.128290042607311      49.701561534834937
   186   1      14.302209226034734       34.10157191657251      2.3925458511208588
   187   1      14.709106870307403      36.473781169221098      5.1586625810885316
   188   1      12.812979151882395      37.409644681532392      2.3223723773709826
   189   1       16.31209466322019      42.726920376115686      2.4361524119821811
   190   1      12.664310482429117      39.331864361689249      4.7079104814537391
   191   1      11.160376498888875       41.37179787432563      51.528987072369333
   192   1      12.825102486417238      44.999343107857975       51.71691599163703
   193   1      14.129072896599633      47.839314918646252     0.34415248621748168
   194   1      14.537405500233531      45.660150457019014      2.3668796303084854
   195   1       12.98979351262491      47.961871373774414      2.9542852275300171
   196   1      12.734280384062066      50.250213162494774     0.12994373968091913
   197   1      14.399296468093954      52.872862080544692      0.2446744149004933
   198   1      14.283100842542028       50.99503323809811      2.7777534468840535
   199   1      12.758131398361636      53.807918304371086      2.8889472258011346
   200   1      16.208001977999807     0.07198575429361273    0.075206839068519341
   201   1        17.7884690106149      2.8245230442340703     0.17618430800748452
   202   1      17.889135051190969      1.0577250689506339      2.6059921938670976
   203   1      15.672534911911656      3.9020963237173754      2.3810818995578686
   204   1      16.033472355117556      5.3682667315852433      51.910430090090159
   205   1      17.431420374528326      8.1702500864999905      51.804911064243086
   206   1      17.472720640192069      6.6276271561404929      2.7597702088768044
   207   1      15.740673130428112      9.3412717932265306      2.4002670475053307
   208   1      16.049061615219859      11.085822365367227      52.065751266476575
   209   1      17.378784296106392      14.602508213948388      51.734969290071817
   210   1      17.535060119032444      11.871841115960159      2.5010156449307193
   211   1      16.173611213228348      14.661957895896133      2.6696701554951563
   212   1       15.97414252056678      16.748431057481653     0.23016779949832505
   213   1      17.319012221255402      19.242946260864297      51.998992437988129
   214   1      17.811609295970154       17.51760883037424      2.4855257299374123
   215   1      16.060086461669947      20.161406004770487      2.2436196710610705
   216   1      15.718929433497598      22.094749701643874   0.0068236606058725609
   217   1      16.040743886958548      26.184205741218779       49.31686361152979
   218   1      17.344252818228824      24.950279485123399      5.4168184948842093
   219   1      15.990052692335823      26.188623004832323      2.5351243454831205
   220   1      16.080448995671951      27.633615538994142    0.058240467729314543
   221   1      17.263974124228863      30.558402381429541      51.825198244626918
   222   1       17.75722904983904      28.584995559514795      2.7667882488278872
   223   1      16.120194960954443       31.68165265578584      2.5041539229428804
   224   1      16.084831277868361       33.40952962606282     0.18213488562753583
   225   1      14.239678051357179      36.264847020499715      51.717055904520933
   226   1      16.978222922531636      34.736930403497439      2.8366485950464799
   227   1       15.88088965206552      37.336651369837483      2.1888735110769075
   228   1      14.224843215632143      40.181021218258152      2.4589214289595347
   229   1      17.599575358447503      41.735374458851418      51.837936885500255
   230   1      17.599535585800339      39.830027646904831        2.49804947858641
   231   1      16.192522691841734      44.900177585894369      5.3065348829099577
   232   1      16.044485991538529      44.617336651156634       52.04491002157188
   233   1      17.327193826975925      47.496035000757047      52.049348711842555
   234   1      17.701814842100902      45.817024318203181      2.7601145117051904
   235   1      16.391497073970147      48.665979791267866      2.5176378631281686
   236   1      16.412962586845339      50.456833180991232       51.92634337446416
   237   1      17.497005902903329      52.980472190086907     0.15846010391775658
   238   1      17.390239348567761      51.484416993323649      2.6111477010688211
   239   1      15.896270756872063      53.915834037353612      2.8098645215532234
   240   1      19.496212707899275    0.043411667345813545    0.060103405996268268
   241   1      20.984056961157975      2.8501745775517699     0.17487177862315942
   242   1      21.114185493129042     0.89187463500556274      2.6123724533948565
   243   1      19.302206215416387       3.856497725995101      2.5263517082329967
   244   1      19.433737146474805      5.5126682659139394      52.014770049209609
   245   1      20.704564534980175      8.1552685884888714      51.957912928896633
   246   1      21.012192596619116       6.800996757836546      2.3590339546430572
   247   1      18.993770012855311      9.1807768869976609      2.2683034456152171
   248   1       18.92761804718133      10.995275884122453    0.014509299496722259
   249   1      20.521780398622081      14.013406629654298      52.097682569617135
   250   1      20.741560440081496      11.704233445042183      2.5418215884085704
   251   1       19.18212126650117      14.568013673293603      2.6074401505117901
   252   1       19.11332417034172      17.020955823901687     0.11810347819658212
   253   1      20.721323497420901      19.353620124528994     0.13415265074096286
   254   1      20.774460071636817      17.451599223854764      2.5629290777590299
   255   1       19.34851589979645      20.209121686122753       2.686988761939892
   256   1       18.95852784642441      21.956314123873256     0.32701147133906006
   257   1      20.377763685934084       24.96270386023259     0.14637317290288709
   258   1      20.732742270255482      23.390571886178574      2.6653338355230383
   259   1       19.07935278567906      27.543242088760447     0.48225834760802866
   260   1      19.086006278947515      25.738552008252352      2.8680810673477568
   261   1       18.98447095758792      33.516978075073126     0.15516145514676907
   262   1      20.348244351069113      30.556759353215604    0.012700526436138988
   263   1      19.214784424623428      31.430147392741013       2.708844384398287
   264   1      17.483134435497199      36.170071892326639    0.095495049339852658
   265   1      20.851111117837593      36.342891074337807      0.5956018028675778
   266   1       20.69050390217982      34.201175194866927      2.9999359874998155
   267   1      18.944904442122137      37.076897174323292      2.8822041570997841
   268   1      19.212110780362764      39.226082568376292    0.019753419950089741
   269   1       21.03962848959145      42.264244521658149     0.48733274909196467
   270   1      20.837137854791759      40.257676727204192      2.5825307853767936
   271   1      19.150698984780817      42.565100145335826      2.7908144674982349
   272   1      19.399343747027729      44.785675644409771    0.083347497794580033
   273   1      20.517965524221164      47.414116953572027     0.31706611838119086
   274   1      21.107751028317857       45.02970257318082      2.8347204447627576
   275   1      19.350295578466767      48.465478507757659      3.0247332561842444
   276   1      19.256513376374375      50.308133749290818      0.2065529667233994
   277   1       21.23342261520899      50.878543930099994      49.833921954413888
   278   1      21.087640582135389      51.167314897661861      2.7870670202184744
   279   1       19.34394810596535      53.753844301847764      2.7251410132984737
   280   1      22.705156365089401    0.052036931465028198      0.1031999491252404
   281   1      23.795684650409783      2.7061070978893582      52.061010971946246
   282   1      24.347861967813337     0.73727461287322182      3.0091674512434934
   283   1      22.461996293756329      3.8781262652410575      2.7775832629656807
   284   1      22.488540632503092      5.4998030555158763      51.951210389265043
   285   1      23.966141775628163      8.3975229814027035      51.705673548370932
   286   1      24.314507164235838      6.7939830302166948      2.3475515303620571
   287   1      22.626497659349635      9.4149930942254052      2.3675740067442494
   288   1      22.107388005009781       10.95425146915208      52.018473108124695
   289   1      23.684584996655794      13.820253577982065     0.31290527728229578
   290   1       24.06505081379461      11.964651947597389      2.6679029144971977
   291   1      22.179804992411714      14.852682129027462      2.8597498575903977
   292   1      22.480208742040144      16.761129922848149     0.25490881890254935
   293   1      23.841340413676061      19.440837296093594     0.42405960223070027
   294   1      24.273531490295557      17.492438689449571      2.7932063213203646
   295   1      22.425293506077423       19.89152844713097      2.9709929821919938
   296   1      22.315187614065064      21.856844827389011     0.42200377789334237
   297   1      23.872693087187649      24.485988205614238     0.40595953437550547
   298   1      23.936050030485994      22.723000515663692      2.7802796803557248
   299   1      20.579244353987995       25.26842981338956       5.475648662923521
   300   1      22.070108321169897      27.528581731554315     0.28554269895076434
   301   1       23.58387117885524      30.804916417222607      52.050363297248936
   302   1      24.143779734505525      28.970295498163555      2.7029351730518281
   303   1      22.302548052585223      31.750732764326298      2.5093924651468438
   304   1      22.044891844701088      33.428587109288678      52.095461258446868
   305   1      23.776388882616111      36.430822190815746     0.24774616459942361
   306   1      23.745903366741448      34.415722273957641      2.5655248657539458
   307   1       22.45129226848006      37.447037800402434      2.6764130580518706
   308   1      22.659852381703622      39.015007350705268     0.05285915848185347
   309   1      23.965614079758385       41.82387657418937    0.042052017842470202
   310   1      24.251717349919186       40.15896426706724      2.6655463469998391
   311   1      22.920263000626836      42.866057667319055      3.4474094823082262
   312   1      22.580409827072959      44.913902477600772    0.016963382306371559
   313   1      23.911865761160168      47.217958362639479      52.078660686844117
   314   1      24.172754043888066      45.643098246783993      2.8783131137424367
   315   1      22.147810076249325      48.194921529141013      2.8292111822030797
   316   1      22.482882929995203      50.011124893841767    0.070314388761376592
   317   1      24.058694493242214        52.9467423871519     0.16545468194026536
   318   1      24.123428248388521      51.116738748566128      2.2069993060969955
   319   1      22.628781668073909      54.054033186029692      2.6208586247636165
   320   1       25.61384121256647     0.36323712429570165     0.32460786919380785
   321   1      27.243159212211381      2.9998304643084608    0.066526044833010153
   322   1      27.501849233674015      1.0730580794257532      2.5522808276894726
   323   1      25.430314468600756      3.6797776509353124      2.5137597923215997
   324   1      25.830760315427931       5.662254335063297       51.70913121338107
   325   1      27.014241612387409      8.3672126782509757      52.119029096260974
   326   1      27.122895584834755      6.9484754865687135      2.2611277750352965
   327   1      25.636445435441122      9.4364231703600936      2.4921895126533293
   328   1      25.424262349976946      11.104226418694672      52.018317628308473
   329   1      26.757177186859927      14.095852051292711     0.20375900122359469
   330   1      27.234221547081898      12.228755416540269       2.601184501099286
   331   1      25.535489013880284      14.756333646170249      2.7476282881552736
   332   1      25.442575217651292      16.887313626428483     0.20884183317558411
   333   1      27.054186437457226      19.692594575000648     0.32187359437393559
   334   1       27.19735456621266      17.585322883360298      2.8019224785522914
   335   1      25.584298688634501      20.468303676656571       2.953523468351706
   336   1      26.040637507275463      22.409224718767916     0.41134543840448862
   337   1      26.859331342514022       25.48199133097264      52.108040078953266
   338   1      27.095444122067313      23.861696022034096      2.8242599917204676
   339   1      25.575322274266192      25.988549144533604      2.6921208761031452
   340   1       25.13819543727622      28.075416151626328    0.037441921920832719
   341   1      27.142532854581574      30.989984231716601      51.866801819733787
   342   1      27.129087646504928      28.953529375394009      2.6007189780300313
   343   1      25.943923006853819      31.541477526144231      2.4537649716207901
   344   1      25.437944001784594      33.605917863546765      51.785831947462597
   345   1      27.243561979818914      36.371272515004584         51.830849745799
   346   1      27.236369273591773      34.256269929533509      2.1716333341021419
   347   1      25.599311525352402      36.847340057978435      2.5627825240059332
   348   1      25.500518817249826      39.112997547708545      51.805145042881662
   349   1      27.073418373539546      41.845221783670517     0.14006840906540238
   350   1      27.391165179184384      39.938265988635195      2.6432817965067517
   351   1      26.053851867833362      42.630518782505931      2.6271647836494267
   352   1      25.484811217935405      44.757298407465711    0.020117302894256121
   353   1      27.310787814886009      47.241664026534849     0.23655323606056214
   354   1      27.171497593754676      45.335752663752857      2.7356308174606019
   355   1      25.891264891639079      48.235824485748566      2.5518659157751764
   356   1       25.67794773252551      49.793322302484718      52.071014703193178
   357   1      27.503397341415507      52.635194325994675     0.13935721557363381
   358   1      27.362754919902027      51.099397482528772      2.6825783155809333
   359   1      26.030535988886761      53.962049760516315      2.4786424100030082