dump/S5_s00_n130_r1024_720_20/steps_1 (written by ASE) 

1510 	 atoms 
1  atom types
0.0           114.158223526  xlo xhi
0.0      7.2199999999999998  ylo yhi
0.0      22.831644699999995  zlo zhi


Atoms 

     1   1      2.3144551633079757       3.510054116024834      4.0600607811305194
     2   1      2.8464059842042855      5.5293148058432848      5.7260062846169193
     3   1      7.4222888034629833      1.6414827513879642      5.3202130034282682
     4   1      7.7126070524952475      5.3833695704457654      5.2254054617734624
     5   1      13.563596680669825      1.6309567551636062      5.3942453749260491
     6   1      13.591141823250361      5.3955844151909469      5.3044642122496972
     7   1      19.401911234776314      1.8894240030951364      5.1016326741026026
     8   1      19.238855157942734       5.099286802684599      5.1002910192066286
     9   1      25.041096822903022      1.6613700982398698      5.5055089912985684
    10   1      25.237739106727471      5.1297437888925508      5.2818144994831737
    11   1      31.106949249052668      1.4222180521759957      5.1218231157918179
    12   1      30.872080126276266      5.3980230067073318      5.3932927078410318
    13   1      36.897031147857113      1.5377506163548214      5.4146130045247425
    14   1      36.735419712023067      5.4894088446006366      5.5097828090049576
    15   1      42.376381558170856      1.9106853591277604      5.1118265670365917
    16   1      42.375410954765286      5.3302754658339557      5.2018444095365171
    17   1      48.188510817639447        1.84635813547059      5.1379679734377763
    18   1      48.164921845586406      5.5715600362493252      5.4036668119713465
    19   1       53.99952794076701      1.6617196810148369      5.3517865820370858
    20   1      53.996950082287896       5.589122098597513       5.231047287593082
    21   1      1.0784972778114155      1.7071401093030947      13.741619473441189
    22   1      1.1468202652791073      3.5962312388158431      11.919957054091197
    23   1      7.8387513076418873      1.7149376293290748      10.843608319633301
    24   1      7.6744289530475003      5.1314108348100858      10.849488155460097
    25   1      13.624595299089256       1.736124593976337      10.735236172762571
    26   1      11.211525250754363      5.2347151876049294      11.944172376927069
    27   1       19.59708066568539      1.5668764520800411      10.785074596412125
    28   1      19.419786661831818      5.0356973345726468      10.828888963192298
    29   1      25.440944158496404       1.691330801683476      10.798758495785245
    30   1       25.28098594597342      5.1613538789155529      10.759010329509572
    31   1      30.522694347905485      1.9405620654674856      10.838802839161216
    32   1      30.797074805509848      5.2865527030773309      10.908046744695817
    33   1      36.719674181892593      1.6406448503716626      11.163254703022892
    34   1      36.657571750549053      5.5221840785897083      11.177381421830491
    35   1      42.276841273425021      1.6108689341561793       11.09145529576849
    36   1        42.3403876845504       5.321427031615154      10.983880618605598
    37   1       47.42997192690882      3.5990239235845833      12.959935993834389
    38   1      47.757181666829275      7.2175809862808933      12.799562480051408
    39   1      54.050712089463033      1.6446731827402534      10.637341903209299
    40   1      53.944604138144001       5.314663520810134      11.142969607005398
    41   1      2.4594530929453162      4.8119846812469147       13.53814396143996
    42   1      2.9240489524603031      3.1890170650140948      15.293533773315449
    43   1       7.576071638630097      1.6196571433219735      16.376327840797501
    44   1      7.6636391491121385      5.2458243697340166      16.466378077372795
    45   1      13.517358525893821      1.6160706485517702      16.561649991132814
    46   1      13.601591992619449      5.4907314046661977      16.484929634954952
    47   1      19.147954812385134      1.6456325591450882      16.504615765102724
    48   1      19.454050819127382      5.1623226043212069      16.700850470424825
    49   1      24.902029668773377      1.7783686883648133      16.608271785354287
    50   1      25.037223104214362      5.3118929228975746      16.697799703450396
    51   1      30.895860739718923      1.6481886906154066      16.555732881163554
    52   1      30.920689151278001      5.5803899592274222      16.799856584862969
    53   1      36.907162369894465       1.839967227658992      16.524250347405815
    54   1      34.486395044640233      5.2960659841004665      17.785726122782716
    55   1      43.393904993619728      1.6175260209629194      18.683376243779247
    56   1      42.514650069347582     0.15527601383867776      15.274607406283495
    57   1       48.22185960263031      1.8258722465445851      16.815101112210858
    58   1      48.097924314728715      5.4846444372742589      16.756698962312171
    59   1      53.765534104025278      2.1982785526363489      16.853216144799035
    60   1      53.692658383733949      5.4986055502745419      16.714156380081086
    61   1      3.5416216194790082      3.4313801017854217      22.293950811331992
    62   1       2.155381059394661      5.6108289891175414      19.037799409603483
    63   1      7.9425271299873854      5.2012073706936519      22.134765024204068
    64   1      13.692891243063507      1.7673362810060398      22.185412748565646
    65   1      13.654621715474251      5.3515156431792814      22.446772166623514
    66   1      19.551309251175901      1.8997024095206907      22.225843594768698
    67   1       19.55856097698566      5.1125933350669346      22.344731763789216
    68   1      25.373197321593572      1.5855750566873053      22.502326389094261
    69   1      24.969905953515998      5.4782013226380322      22.469508115923215
    70   1      30.970713974644706      1.6260435771760546      22.288524349126959
    71   1      30.813862117126561      5.2593373935767218      22.254003119388337
    72   1      36.573681879285076      1.5881655950049904      22.563730381426499
    73   1       36.49665902010463      5.5593896234010041      22.312993868554969
    74   1       42.44754388722663       1.564516329143161      22.108196363132507
    75   1       42.40732376138709      5.5022929652819226      22.407179119694423
    76   1      47.941026758285545      1.7200380071943691      22.589253693127731
    77   1      48.110455355010139       5.342165692073257       22.40042038161501
    78   1      53.713202987821475      1.9264735637658528        22.6569322811132
    79   1      53.747094156248309      5.5693414413321678      22.271763406414362
    80   1      1.0914155053507077      6.9495154729585202     0.66916164627512609
    81   1     0.90947548679125512      5.2700142360942683      21.390708531050009
    82   1      7.6271046384529653      1.6237650537948685      22.345387323325486
    83   1      5.2997119703453848      4.9354936921953447     0.94462138840836185
    84   1      11.311131521629948      1.7019710572297408     0.68035049931947811
    85   1      11.436963381533204      5.3698491212916339     0.44740787429127693
    86   1      16.843209143079029      1.5842039802541743     0.51499609859883499
    87   1      17.087651184316172      5.3691028030786665     0.61142473368279127
    88   1       22.66191743471331      1.8483805043331762     0.59892363309082253
    89   1      22.653228644005281      5.2387597591273991     0.41586291621433519
    90   1      28.754088494724478      1.6848493113398817     0.61384492157154025
    91   1       28.69883142761616      4.9627617028309023     0.75352868397917794
    92   1      34.438292739285806      1.6608623078693801     0.79618347751904672
    93   1      34.525266457868717      5.3113697870932102     0.66057908119040543
    94   1      40.111994955785086      1.5706949364017713      0.4689753245672279
    95   1      40.090430169196409      5.4267479662025409     0.77259216212474158
    96   1      45.779740412817624       1.871672641582016      0.7219934192397629
    97   1       45.93547476447479      5.4274656693816903     0.77779202984251872
    98   1      51.668755650014162      1.8111649442664046     0.93961194266874881
    99   1      51.716636160433673      5.5061503702757069     0.83613860789285355
   100   1     0.69388855334180799      1.6135642470750085      4.2915142551493588
   101   1     0.62213507353339392        5.46527917450645      4.5920786378646614
   102   1      5.3206454185508729      1.4583965924810955       6.420198228562775
   103   1      5.2470823943472382      5.1732345404395215      5.8945103081168071
   104   1      10.985903202769446      1.7562912949019165      6.4801750085833385
   105   1      11.255969892590585      5.1608786848816699      6.1179727164314333
   106   1      17.077624329279601      1.5433049235489746      6.3556966424114529
   107   1      16.870944921244909      5.5232730461058628      6.3849936292825005
   108   1      22.629694064370067      1.5148165209104416      6.4799265326386095
   109   1      22.844433928723145      5.0855121334654827      6.3333230617595193
   110   1      28.766760967567322      1.6247367284900844      6.1773099115198296
   111   1      28.727591088483649      5.1151558703123863      6.4107566379087171
   112   1      34.543106092196268      1.5367992473607837       6.364570648370333
   113   1      35.038275085293819       3.461707303159347      4.8460486000429199
   114   1       39.97361168499728      1.6699756370080909      6.5437094006372201
   115   1      40.330462543008579      5.4283210816710632      6.6855140370954471
   116   1      45.821942810703412      1.7887338577340564       6.527552937391345
   117   1      45.855529127412666      5.5019401811931399       6.351157180100528
   118   1      51.875260880671121      1.8433686835634155      6.6036239756872064
   119   1      51.994986011143126      5.3629356265786603      6.3687064534886728
   120   1     0.44928117946889523      1.6679475150360232      10.165884053663754
   121   1     0.91477236034066622      5.4648670062288485      10.127571666991779
   122   1      4.5213042682565989      6.7600298943383281      13.351912085107925
   123   1      5.6362462848877355      5.1816233510029317      11.844119916482166
   124   1      11.382515807563655      1.6584641579057491       11.88272937847394
   125   1      17.301881737997725      1.4714088064744302      11.904213171464448
   126   1      17.229745031982528      5.2912936106816844      11.889874009917449
   127   1       22.87221715520927      1.4781187848461304      11.952633713012535
   128   1      23.064534109192678      5.2352318550939776      12.087316424065412
   129   1      28.722844981201828      1.7654015717054565      12.204788293183061
   130   1      28.477113867750013      5.3735649326568158      12.201287772397359
   131   1      34.448376685575106      1.6030363928333458      12.221574784583737
   132   1       34.47228585463921      5.1851865368422718      12.096883036252052
   133   1      40.155162990246851      5.2768548478729054      12.545856729825273
   134   1      45.992321042100059      1.9118477961781588      12.142213031471453
   135   1      46.604770850731363    0.022314901639727578      10.403119576328976
   136   1       51.83559162310857      2.1577433363217464      12.026658427172793
   137   1       51.75052985587584      4.9759306108435419      11.997410142760707
   138   1     0.52980810984615578      1.7027122927962248      15.923581682845601
   139   1      5.4613799300863883       1.915554361716175      17.709849836000945
   140   1      5.4011454392148615      5.1867142096738741      17.604932838521339
   141   1      11.314040468680622      1.9874521429158123      17.503865055554822
   142   1      11.268739966165237      5.1458968127215945      17.754410427772914
   143   1      17.010404213550572      1.6540844428104367      17.796786912093072
   144   1       16.79413576475169      5.3279639091392346      17.982548492915321
   145   1      22.734540211323452      1.9237137132054127      17.792714173861949
   146   1      22.704911988316205      5.0809569468077669      17.692823657884055
   147   1      28.621010003832794      1.7320126849790487      17.721479099681048
   148   1      28.709291983106464      5.4008114250675661      17.684028139917174
   149   1      34.641485749124762      2.0520413484482356      17.842959677973941
   150   1      35.081933598581642      3.6740793772465552       16.11037356578591
   151   1      42.033413519146357      2.6848586732786281      15.513614116736614
   152   1      46.077219393317463      1.9201399372344357      17.689443285068553
   153   1      45.783341922491729      5.4419309360270036      17.738824053377577
   154   1      51.581247642137654      1.8721801000912925      17.813895341087726
   155   1       51.63215695566273      5.5016057051267051      18.012103107046052
   156   1      0.8849148548091933      1.8625037006227296      21.589657522117513
   157   1       1.656235935552814      5.0409751417717805      2.4355268655116524
   158   1      6.6504689946213293      1.6271606680415067      2.6118472726410906
   159   1      6.6267152593677272       5.114211975494773      3.0686898160243365
   160   1      12.459588111036348      1.6611723665940106      2.8667151277275393
   161   1      12.224123942632364      5.5290528998740855      3.3117412760168459
   162   1      18.094233143347427       1.803612222870592      2.7062083681231353
   163   1      18.306239997675604      5.5093954474045663      2.7602638879465462
   164   1      24.042808286666158      1.6686190407482753      2.6630718764721384
   165   1      23.892809302750209      5.2007758929165835      3.0467125644165125
   166   1      30.155839381356952      1.6369693761740485      3.0377354002181436
   167   1      29.961072427231432      5.1345732198789449      3.0899343707918772
   168   1      35.478401877629693      1.7394637460060343      3.2084860578176615
   169   1      35.383230353538352      5.0881495831746797      3.0317167468717212
   170   1      41.216832358528571      1.8418543983212055      2.8058637348147033
   171   1      41.374396601550636      5.4740811414838166      3.0180740313189913
   172   1      46.948372554497055      1.8409520026610644      2.9839833130507438
   173   1      47.121501985325871      5.2735229400220565      3.1262487213931345
   174   1       53.14469040874085      1.8980470409603982       2.942584038691602
   175   1      53.004501730477784      5.5633496966283547      2.9773879562359866
   176   1      2.1974869068165668      3.3297162511186214      9.6499405657691888
   177   1      2.3891187440406507      6.9951501945963601      8.7607824739965547
   178   1      6.3380648357902887      1.9097683395516709      8.4700817948003007
   179   1      6.5431207500716004       5.130521984958758      8.4796190140548759
   180   1      12.653510986159008      1.8048170716748455      8.4683078265492941
   181   1      12.349872158511429       5.377102136471466      8.3899568005521044
   182   1      18.304776031201317       1.669185531578514      8.4870550498724242
   183   1      18.089342802880463      5.2950078694259224      8.4810089158433843
   184   1      24.088381020609592      1.7242156810224725      8.3418541719013035
   185   1      24.105789781816267      5.2043296629970772      8.6553578839735668
   186   1      29.858778486951575       1.681402073272517      8.5101766391481561
   187   1      29.768765608498803      5.2911960179518491      8.7547166452579841
   188   1      35.441487290671958       1.583793456718849      8.7040651046595539
   189   1      35.296936864545977      5.5289365844827429      8.6960223282253786
   190   1      41.210862156644822      1.6238397305896592      8.8485166127610473
   191   1      41.362460551855996       5.186173595957805      8.8433434590673166
   192   1      46.931367338797202      1.8754385891123457       8.716527125512604
   193   1      47.304897942834536      5.4573471717305253      8.8169623002018778
   194   1      52.952043420749618      1.8106923092604224      8.4689395717730225
   195   1      53.238721729464771       5.290602465327626      8.8096783426611847
   196   1      113.21157154688058       2.175732531520588      12.457763499941951
   197   1      3.2124746996764371      5.9806150595078487      11.615009775989002
   198   1      6.6134490469931819      1.6151186485096463      14.215234939747463
   199   1      6.5133138497769858      5.1087938516774836      14.167369156159783
   200   1      12.394867503229364      1.5173277986798053      14.409450324391988
   201   1      12.439528386604202       5.414736408486438      14.064650943046216
   202   1      18.307198474182314      1.8089627435837441      14.031909647334706
   203   1      18.071014544116593      5.4179632158184923      14.558565039823749
   204   1      23.957573229199475      1.7354121687854598      14.284978465029837
   205   1      23.940385244625386      5.1193715190156865      14.363450459549467
   206   1      29.504912086548288      1.7897157595061128      14.451383394682635
   207   1      29.967847044096487      5.2781133341350843       14.44651898459635
   208   1      35.572206689587993      1.8244350170431167      14.390701085198192
   209   1      35.640090016245573      5.3045981775818074      14.516550038074378
   210   1      40.017658177945286      1.6029011008322276      12.230879451286658
   211   1      42.034898531574797       4.999620440370542      14.999058100495525
   212   1      47.123009290351078      1.9437356494062015      14.680806891051144
   213   1      47.082120886444173      5.4956365388593316      14.359250976759762
   214   1      51.092124094686547       7.054789126664387      13.972197822068182
   215   1      52.792253893777101      5.3863510102306416      14.393447374746275
   216   1      2.4151342881557527      7.1112498292333077      21.189900704990396
   217   1      3.3432209454518551      6.4001788469865319      16.837959653351991
   218   1      6.5554615346811316      1.6224033427649915      19.965218091417448
   219   1      6.0091997376174504      3.7973849744302246      21.697982028738458
   220   1      12.387694110546866      1.6500058107547879      19.760912655740857
   221   1      12.456886817415246      5.3149450922663393      19.949504948479664
   222   1      18.141558195082666      1.6975583233658094      20.095825557122197
   223   1      24.029046974624251      1.6445327478576726      20.206109978756416
   224   1      24.035403240482022       5.526499990526994       20.19078801598674
   225   1      29.947033042247281      5.4024689810997319      19.839340377355896
   226   1      35.737128067629122      1.7335822214511454      20.063558155031266
   227   1      35.619620804262738      5.2209053592102475      20.043331495798295
   228   1      41.151491720190499      1.8966048086970124      20.076293496657879
   229   1      41.189247552354921      5.2314017932865067       19.68059640368682
   230   1      47.055050203342901      1.9435771681611287       20.20394144485757
   231   1      46.928256550279563      5.3582382183313557      20.104556253425763
   232   1      52.684018786196873      1.9052364839631297      20.102892472182184
   233   1      52.613196066827932      5.4794721882144506      20.131495011154598
   234   1      3.1685401530880899      1.1449534899730427     0.69166383804628306
   235   1      9.2902380633781689      5.1925361843658404      1.7636798512439651
   236   1       14.73658330163147       1.803635595177705      1.6321567808532944
   237   1      14.800007738632564      5.2810755880268001      1.8067517711104475
   238   1      20.357221048182655      1.6103168130309666      1.8372439490051542
   239   1      20.446379072954411      5.3715527466313837      1.7188933176628212
   240   1      26.521267720786035      1.6812678102106589      1.7899703984631608
   241   1      26.304929961352244      5.3827215030271587       1.841253479171272
   242   1      32.226943939140909      1.6120881343185136      1.9731324885299173
   243   1      32.135371588333612      5.2314509826862237      1.7873268575779766
   244   1      37.727591396880754      1.8475281369325041      1.8855256442218256
   245   1      37.427334270753555      5.2800936118048201      1.8637834084056757
   246   1      43.762617422399337       1.803233363906904      1.8355671304982151
   247   1      43.688779825186039      5.4601883723743381      1.7802817355543932
   248   1      49.381797155084634       1.797523648288847        2.02947736574483
   249   1      49.416361741253169      5.3047284216775932      1.7639336619293315
   250   1      55.245657510850428      1.8278254789902133      1.9496322237127304
   251   1      55.255075812743335      5.4744063937587928      1.8820915018527578
   252   1      1.9951119805874395      1.8646338708506578      7.7340457144393122
   253   1      1.8143659085353701      5.0287430952178767      7.8268691939271502
   254   1      8.7235000629801132      1.8410336146135933      7.5232842503241057
   255   1      8.9935887768382283      5.0914102833433175      7.5502075008735439
   256   1      14.746555529330172      1.8574889519063462      7.4862064632715102
   257   1      14.768208412339131      5.4498507829771672      7.5994093232758306
   258   1      20.533548139434977      1.4821694223348685      7.3611771783268729
   259   1      20.524910485139117      5.2459196646656974      7.4456057409236589
   260   1      26.549694760930269      1.8902236625045556       7.376062762337086
   261   1      26.350585043957064      5.2059713791988651      7.4824267943314089
   262   1      32.184457070043116      1.7704954485449782      7.2781621460092962
   263   1      32.109830458312629      5.3277350879907823      7.8253696242341784
   264   1      37.829118489506435      1.6841056962307013      7.6411068645718005
   265   1      43.331196950012405      1.4437505262643939       7.412700018686607
   266   1      43.398077715451642      5.8035241098634627      7.4819164144931714
   267   1       49.28943673923856      1.8568934697370081      7.3812959137113632
   268   1      49.532457498005364      5.4058848975754872      7.4416636454147236
   269   1      55.745236221118788     0.16143083076025455      5.6287079377196116
   270   1      113.38870826901667     0.01466333403322392      10.663871466393113
   271   1       3.371376199024767      1.8711409634358296      12.998033634824377
   272   1      8.6862816367669975      1.5559871358454371      13.067189792527609
   273   1      8.8229134681204791      5.4917817609089701      12.808258583661688
   274   1      14.642055416886981       1.794065885943336      13.197853899138559
   275   1      14.819394953634443      5.2444989669220146      12.947718650936679
   276   1      20.585083623376129      1.5935457755601097      12.987190872062973
   277   1      20.686122404381063      5.2182665450545072      13.121910472234058
   278   1      26.315331137011405      1.6678063985215665      13.389764396666269
   279   1      26.169853074838915      5.4504204384724764      13.215580736126419
   280   1      31.938253920599553      1.8552140001301172      13.423877829735629
   281   1      32.035845742542485      5.3859506304951381      13.111088921917617
   282   1      38.022158842666954      5.4607975011761356      13.651716796204321
   283   1      37.584202731329924    0.077988865362330961      14.965789098083288
   284   1      43.600043068680968      1.6463648399312105      13.416224557544387
   285   1      43.283058996741588       5.276070558553946      13.060249986604431
   286   1       49.52181681931679      1.7255567573020825      13.172288403533448
   287   1      49.546094856760156      5.3685905451735803      13.413192164632299
   288   1        55.1835819637827      1.7884042950546706      13.918364601933787
   289   1      1.8069963198112817      1.4257399390309871      19.204266161359584
   290   1      2.9512876467343205       1.556423848776348       17.09860437879485
   291   1       8.964508324125827      1.7378730929391311      18.547353746628534
   292   1      8.7992645203512865      5.3516503768921577      18.913684115349376
   293   1      14.768270439637037      1.7949938571430111      18.732255322474984
   294   1      14.581175584086109      5.3702219973608578      18.724606477486464
   295   1      20.408728788944824      1.5709290195497601      18.882082538123015
   296   1      20.515886572584137      5.3497102197069166      18.952026365317717
   297   1       26.31309483256134      1.7653046131986316      19.080562173381402
   298   1      26.305367971038606      5.5737587519891036       19.13309240128071
   299   1      32.064779113011355      1.6206081373265033      18.841982198820187
   300   1      37.839736259441231      1.8463258010696266       19.00266568478979
   301   1      37.911003388427581      5.5693143538949874       19.02203023530031
   302   1      43.253745939881085      5.4259136655559681      18.294734946364855
   303   1      49.277428588668073      1.6894944682413342      19.210063612435015
   304   1       49.36131574182442      5.3238041699979188      19.048373721013618
   305   1      54.965068335137126      2.1026034738061954       18.91447437904997
   306   1      55.131495742943891      5.4013417274390552      19.031748031526078
   307   1      4.2087987083656779      1.7878616891403754      3.5313386947722796
   308   1      4.2213405436361215      5.1246852290080547      3.5506128978251765
   309   1      9.9601267707625443      1.7310395272371466      3.9043642837054153
   310   1       10.06209879086526      5.4255164605947463      3.9272845862997534
   311   1      15.759839417199961      1.7840980096091961      3.8484361022364828
   312   1      15.841023254030143      5.5193951257014922      4.1512356207066432
   313   1       21.64782195566087      1.6381554316541249      3.8831586338307118
   314   1      21.579474262270942      5.4427899506716741      3.8855454060270396
   315   1      27.469135091306669       1.597297296951647      4.1846073250262341
   316   1      27.471415867649718       5.454586193237593      4.0520191225214255
   317   1      33.122232922949237      1.6723547020491534      4.4388937346091435
   318   1      33.301493540973631      5.1581565526207251      4.2829837176672871
   319   1      39.060742171374805      1.6108354574427992      4.0764484037867748
   320   1      38.921085309094011      5.3206577505294268      4.1420464801747601
   321   1      44.571617279905482      1.9073864663682629      4.3352589157112744
   322   1      44.831119818015935      5.5380902978252262      4.0421768822034103
   323   1      50.698072437922505      1.6260746055629216      4.5312918045445327
   324   1        50.4604696480435      5.4803196568411154      4.1440745086654376
   325   1       59.45090041374926     0.19727352458581648      2.8076330463912904
   326   1      57.870898357550459      5.7279325127722318      3.1617970289058883
   327   1      4.1998607906180681      1.4371523319619597      9.0853378796943733
   328   1      3.8251406640470518      5.2884051798304297      9.3602137539007515
   329   1      10.091146818689227      1.7874186219691222       9.629503549462104
   330   1      10.197921567486615      5.4551957184325746      9.7307139222016694
   331   1      15.844997630797671      2.1619131507442035      9.7150143750997486
   332   1       15.96266857932314      5.0456827964516648      10.075831474894326
   333   1      21.800991095764804      1.6144849520043179      9.6327320824014908
   334   1      21.808205466234696      4.9160688058378286      9.7201872974399421
   335   1       27.92174682803185      1.6497425440072795       9.568070029636317
   336   1      27.655095813045961      5.2480012314790283      9.6443846967980562
   337   1      33.226179558090315      1.9920993574364063      9.8206544015585102
   338   1      33.155497056177758      5.2264525698876056      10.162661232074127
   339   1      38.918631717885781      1.5707490623668245      10.001306606247097
   340   1      39.054666023681591      5.3896053586722701      10.100276244040378
   341   1      44.701939207815172      1.6951983683389376      9.7711830163366535
   342   1      44.682265227040041      5.6844262150839171      10.079934309384662
   343   1      50.716222505176205      1.5869072838711096      9.7615025558898321
   344   1       50.31869842848095       5.315074141189795      9.7729514963320447
   345   1       55.24034691768091      3.8934618767220486      9.6533638978374032
   346   1        55.2578093903347      5.6030004396597866      7.3305156688459467
   347   1       4.376117868733818      5.1962944536575799      15.300813431149507
   348   1      9.9187838671779129      1.5997535769690512       15.40849982471757
   349   1      10.096323010453272      5.3219974418945437      15.388884739519149
   350   1      15.678249643925017      1.7287176952909027      15.406620290362806
   351   1      15.627610743154705      5.3436402916631085      15.306208588741487
   352   1      21.677278101268154      1.8237359926305434      15.646678976017293
   353   1      21.670847283143665      5.2946270380621581      15.470327438142341
   354   1      27.427459534514064       1.781106997179063      15.741238754479305
   355   1      27.259709388010211      5.2766529906160766      15.349862959773068
   356   1       33.28063982902998      1.8664696553282585      15.772068514359082
   357   1      33.400799794894063      5.3985574755345702      15.704783419072706
   358   1      41.394572444420611      5.9693564699787567      17.224065165211812