dump/Si_1400_0/steps_51 (written by ASE) 

4000 	 atoms 
1  atom types
0.0      38.395898218429522  xlo xhi
0.0      38.395898217999999  ylo yhi
0.0      54.299999999999997  zlo zhi


Atoms 

     1   1    0.099235145777253536      38.026112555064223      54.142244206287401
     2   1      1.8986610577522665      38.336255740333833     0.96403822288016006
     3   1      1.8003494626732539       1.914806576282291      2.3353982388081236
     4   1      38.391465434052002      1.8049070860534981       3.951023048825776
     5   1    0.031517320866777429      4.0115768494159685      54.244148099408768
     6   1      2.0729928191809117      3.9596534335107316      1.3543892922613745
     7   1      2.0667589282906378      5.9921563477869775      2.7598852958456392
     8   1        36.7467751124681      3.6590637841159501      6.8684696244667123
     9   1       38.28208815784663      7.7571901815200297      54.092040734823748
    10   1      2.0224870798053813      7.9633786480462376      1.3695303827639704
    11   1      2.0357955801908099      9.7430168204132084       2.873168760797852
    12   1      38.394700246610618        9.70800311740539      4.0943758965003783
    13   1     0.32157949633055022      11.291379448930293      54.158437526143416
    14   1      2.1481512456556162      11.408167793532908      1.3093405072192228
    15   1      2.1766474584104345      13.454075837452077      2.5518036202101353
    16   1    0.082114312633843708      13.382202198046064       3.996426917844961
    17   1      38.244235678005182      15.658870968152197     0.15348495689390795
    18   1      2.0507252736262469      15.551084947169352      1.1504009425565993
    19   1      1.9179089829068083      17.331998706978357      2.4628921974072702
    20   1     0.14049214844834257      16.681273579637175      3.8719722320637073
    21   1    0.044412293097548558      19.402732206903167     0.13792772283965188
    22   1      1.9501495667659168       19.41689878058596      1.4850121690857105
    23   1      1.7001001519676011      21.349750835282411      2.7306247407942803
    24   1      38.236084326433009      21.249075673548031      4.2167663876546282
    25   1     0.35163417720602452      22.932363019940475      54.160000709389273
    26   1      2.0341386974613886       23.11687580701804      1.4301637552207926
    27   1      1.7494724342178092      24.982764746831375      2.6969146086073921
    28   1      38.133310156337082      24.972817975338938      4.1600649946444062
    29   1    0.009811725366766489       27.18105299594912      54.069767399268848
    30   1      1.9417837803378784      26.954707832473726      1.2460845120500594
    31   1      1.8900414067510976      28.638103312916638      2.7646897214446304
    32   1      38.160190969599086      28.675636945826366      3.9580005203746302
    33   1     0.09195490658290556      30.370979297804311     0.11238959932460363
    34   1      2.3160102300882279      30.366966665598337      1.2445373196579137
    35   1      1.7984577950318799      32.657200183619089      2.9153226855055916
    36   1      38.319488297780161      32.415852560366993      4.0864153791841638
    37   1     0.33977374330434329      34.293754213502261    0.070032060647338371
    38   1        2.32986844662712      34.461551291199548      1.5392919647347973
    39   1      1.8262812275724665      36.602850131093732      2.6023339913845014
    40   1   0.0063895905912106808      36.290444044936947       4.186379543006205
    41   1       3.842036366388311     0.20592060811880369      54.135249504409089
    42   1      5.5658537466411273     0.14683193568453803      1.3217595504830089
    43   1      5.5056534566646587      2.1275763345403695      2.4200315932860232
    44   1       3.762357812443816      1.8682516166861443      3.9843986773945832
    45   1      3.5752259771718826      3.7931580582008984      54.001592478833786
    46   1      5.5663883305575466      4.1184792887924218      1.3832964177335154
    47   1      5.7966668299993183      5.7672794123441822      2.9440022802100434
    48   1      3.9505870326341239      5.6409052020285797      4.1842006352123366
    49   1      3.9432868995942654      7.5859234180722934        54.2290665144005
    50   1      5.7779626720759234      7.2957588212570341      1.2312619128044253
    51   1      6.1324363989793857      9.3381305635349001      2.1382667316876014
    52   1      4.1127639488263865      9.1577183844867385      3.8455833704189777
    53   1      3.9550331919172299      11.208030214107772      54.161115725401409
    54   1       5.986116314092552      11.745093386816427      1.1112460522612531
    55   1      5.5624219159736299      13.835915299887398      2.2918448209799056
    56   1      4.0209545743021353      13.636370703332963      4.0838210113595084
    57   1      4.0520129870040735      14.846141160482073    0.031385187346779711
    58   1      5.9930937377700113      15.990829742014888      1.0570796515857752
    59   1      5.8535864981421968      17.347772326399646      2.9425290780760291
    60   1      3.8994433363851226      17.281672508041456      3.9164482020370328
    61   1      4.0126730585849435      19.110117040119228     0.32483633840383824
    62   1       6.146707762825967      19.189823354523099      1.4665213824979424
    63   1      5.8093839193240422       20.87963597109697      3.2147691455061485
    64   1      3.7273062392405363      21.102404821410342      3.9918504906270313
    65   1      4.1442010469174813      23.155048856441038      54.105074076022461
    66   1      5.7330980133861829      22.575767298795348      1.2566662278915945
    67   1       5.632455708999057       24.87231606213631      2.6965224242452202
    68   1      3.7709430358798715      24.938016258858866      4.1736157285140605
    69   1      3.9142483084416617      26.998518537439153      54.139607402600355
    70   1      5.8214767090422086      26.705280205435542      1.1545773759931399
    71   1       5.406121488118532      28.573150241901871      2.7662498122221346
    72   1      3.6259402992423349       28.62242109497279      4.4213969818185692
    73   1      3.9653189971071798        30.9761646057826      54.009346917646454
    74   1      5.8046162633754337      30.608430380886098      1.1184445214543555
    75   1      5.6910498458448471      32.786326964960914      2.3655753529122765
    76   1      3.6792507370509675      32.245132347151369      3.9831627768506435
    77   1      3.9890748750211613      34.709441382024636      54.034137580635303
    78   1      5.8249732190333434      34.756405420630117      1.2340994029620327
    79   1      5.9304070948586762      36.485958460554983      2.3143132896359235
    80   1      3.7729275895720091      36.258375526761618      3.9890497401424097
    81   1      7.5791528667025547     0.31119376677270932    0.054403376567768412
    82   1       9.418343410312632     0.02186983477982821      1.2073417190176203
    83   1      9.5709449632946466       1.937564033728554      3.1897425313538319
    84   1      7.3283202967675933      1.9195767834794639      3.8141599303305274
    85   1      7.5528759140191708      3.9504855475727481     0.24817072806606588
    86   1      9.5864615829869297      3.4710261480399409      1.3776518873275567
    87   1      9.8795825870824991      5.3798139279124939      3.0022974680760521
    88   1      7.8213293302252973      5.3521058859131525       4.270223212261997
    89   1      7.6824530237673487      7.5381165349756083     0.12858365232162869
    90   1      9.6126853484675827      7.0447391110456161      1.2147536020289968
    91   1      9.8656878889549784      9.2881089448364875      2.1882227991764793
    92   1      7.8630043084721724      9.6945307128799492      3.8364064606152404
    93   1      7.9010180788233582      11.305460116178322      54.087973312580381
    94   1      9.6521495128830281      11.488533999418094      1.1186458699785005
    95   1      9.4643076673972999      13.373458433922142      2.5110172915870157
    96   1      7.5063450946104098      13.344630775342255      3.7053925228515046
    97   1      7.6349038832054843      15.428103222360471      53.836833535533785
    98   1      9.3815728617102998      15.273193474366266       1.153006678487055
    99   1      9.7943435259687419      17.741413225513579      2.3145944775145706
   100   1      8.0783379997062532       17.10293671241601      3.9479266071945394
   101   1      7.6055081871958139      19.214566434432026      54.072251183568973
   102   1      9.2749708134815023      19.555802584736217      1.1771265007606069
   103   1      9.2410409418222201      21.134035219161916      2.9912079846306465
   104   1      7.6405192233149712      21.019020530364184       4.670228932968465
   105   1      7.5034756870880095       23.06959826103882      54.210842460861386
   106   1      9.4485744908303815      22.857337999560084      1.4065659104873591
   107   1      9.6571664513069635       24.80553810290105      2.8474956675842917
   108   1        7.56882263017574      24.596814375688965      3.7145511827577593
   109   1       7.764409803337327      27.044083002652801      54.296468944832867
   110   1      9.7231740355484391      26.589617348265826      1.4375107581410564
   111   1      9.6374322843519025      28.433808509737489      3.0483947084084204
   112   1       7.537047973937848      28.655112795745243      4.0977867163984474
   113   1       8.010868977414761      30.709200412176443     0.15683527008872011
   114   1      9.8031904611461353      30.357630138949975      1.6350412478365441
   115   1      9.4909632012354539        32.5071099900129       2.991726281242574
   116   1      7.5790064353355717      32.807967301428867      4.2549668817041502
   117   1      7.9654522452690513      34.671830446408947      54.277629615759267
   118   1      9.6967988004448298      34.460129943940622      1.4739491810932588
   119   1      9.7274443028687898      36.561418717022129      2.7203869828996621
   120   1      7.7006814570336228      36.161731836459836      3.5777815941406046
   121   1      11.334714949420045     0.20587218256819997     0.04739928742930033
   122   1      13.462389595912544      38.340014073361225      1.1543107321255557
   123   1      13.323882182928189      1.6051969290578942      2.9317065778881455
   124   1      11.586476346984629      1.9874560630095435        4.40325578530478
   125   1      11.469250705687779      3.6648677432461283     0.22109336687658501
   126   1      13.447933382979675      3.5022930541917754      1.4832527230285699
   127   1      13.580582753308446      5.4983217492904508      2.8626825420959459
   128   1      11.789704826306004      5.5986977787601031      4.3183208021714012
   129   1      11.832249612898238      7.8162727468841053     0.38208179017124166
   130   1      13.827439253249604      7.7425849423380768      1.7623478105181432
   131   1      13.769233164308496      9.7022538219408609      2.9750010358780519
   132   1      11.562094065141448      9.6790979738107819      3.9776395230824186
   133   1       11.70106977264407      11.472006322981647     0.03244668230209985
   134   1      13.403686829724903      11.541131431024688      1.5967145079801877
   135   1      12.938112384135481      13.431140072470779      2.5437366898720932
   136   1      11.212720720752181      13.522638670811725      4.0636331280055282
   137   1      11.423757500293975      15.789450501668266    0.073429899507141017
   138   1      13.400758795908972      15.392180159883237      1.1726089058469584
   139   1      13.067297158560903      17.315206998261061      2.6501789073055209
   140   1      11.353252829003438      18.044762377089164       4.086715244670132
   141   1      11.448527634310373      19.299688505868314    0.098726125074620044
   142   1      13.401979277019707        19.1775356951064      1.3961686801981064
   143   1      13.321110122431282      21.139597078646041      2.7379103285453543
   144   1      11.377119436622793       21.37662138704107      4.1289479828213844
   145   1      11.370465356832971      22.963623256154516     0.19221164541794428
   146   1      13.325359222363984      22.996976665026654      1.3266013929174718
   147   1      13.670907439439555      25.047069074152898      2.9750036907224158
   148   1      11.671488428855534      24.582201277299866      4.0142720244916195
   149   1      11.799894231236248      26.683905316818198      54.267987988323519
   150   1       13.55772502857026      26.946943296641031      1.6136142788167833
   151   1      13.897601689507241      29.117756246459859      2.9895503548365823
   152   1      11.589848460085895      28.919657284888579      4.1290151874044909
   153   1      11.725484752011555      30.743459246437965      54.263128930526506
   154   1      13.451470183413187       30.98857843266433       1.414390576893777
   155   1       13.45182793611783      33.055838841272866       2.686993857736045
   156   1      11.543181623441408      33.032582650365264       3.975648683244823
   157   1       11.50834073175565      34.643432810418254    0.031942563464076541
   158   1      13.513160709940138      34.762107203680998      1.3659706613644491
   159   1      13.710108769442735      36.669694051383743      2.7234168257851814
   160   1      11.753051240622121      36.598828019230183      3.9453063612364634
   161   1      15.547456757846721      38.286291846001504      54.256222687891452
   162   1      17.571498424798683     0.13504649295462057      1.2433654420507427
   163   1       17.24373988743287      1.8396664824031532       2.854164314488854
   164   1      15.493194852032502      2.1043123427303607       4.027162158159026
   165   1      15.580662094032258      3.7316022404517462     0.17837035231472084
   166   1      17.476996274923611       3.661444921310911      1.4516528577412726
   167   1      17.528069352355306      5.9558681355799479      2.4672983835852391
   168   1      15.524320288658064      6.1826589251910296      4.0584418867673691
   169   1      15.511410038744877      7.4869174670409295       53.84584004937814
   170   1      17.329186635674091      8.3534248021190134      1.4455637216124182
   171   1      17.451823442795611      10.094512110905798      2.9080792883095579
   172   1      15.682244204448999       9.786253435154773      4.3392707373091959
   173   1      15.224577647173898      11.674881180974674      54.211455020828858
   174   1      17.184539500192432      11.707930344944696      1.4097382751856575
   175   1      17.262993891677247      13.830201075400602      2.8599382760889389
   176   1      15.100063395788847      13.425548097598481      3.9193408603000881
   177   1      15.236369883465978      15.346131163415288    0.022514049820051698
   178   1      17.269733131446444      15.601279314786707      1.1641529970969482
   179   1      17.258181544353551      17.316377895085711      2.4189955327904054
   180   1        15.5886843065396      17.229684781288842      3.9105740726701126
   181   1      15.169819520572508       19.00057453334076      54.140507956613448
   182   1      17.434488558100849      19.230398436137254     0.94738160559436702
   183   1        16.9019543440549      21.088069998960268      2.4115091752892819
   184   1      15.075151859595053      20.964738531494596      4.0922457401088099
   185   1      15.460444955597206      23.069997901156324     0.15320906349323893
   186   1      17.489488335575928      23.100121553164449      1.1566889444060156
   187   1      17.534013128063521      25.173969943648718      2.4225353352085914
   188   1      15.637685978030238      25.034181558299782      4.1538905138375872
   189   1      15.249121850267498      26.791593110568858    0.043523297993544902
   190   1      17.345416164989789      27.134711451353663      1.2813011357895472
   191   1      17.353604504660272      28.980780001769819      2.7183094323300665
   192   1      15.710983688052085      28.908577742016231      4.3208339290113909
   193   1      15.480304604551263       30.60133295155233      54.217034150697046
   194   1      17.210230005790031      30.761570553635345      1.2871803347943225
   195   1      17.224815569569703      32.615990460793476      2.8739447950109822
   196   1       15.27038562855541      32.928159156884945      4.0748406753788098
   197   1      15.562695551406929      34.419900607255592      54.043809583198211
   198   1      17.411061574405711      34.446081755433291      1.3172262567571786
   199   1      17.411311705658878      36.406743801576326      2.7641735148543969
   200   1      15.422389225525116       36.55631766010751      4.0907390895100102
   201   1      19.599504546091005       38.24728748260808      54.117602869367694
   202   1      21.400383839322213     0.18076558517005759      1.2638939131265385
   203   1      21.288210097339032      1.7214735673200892      2.9578984959786441
   204   1      19.281032566840206      1.9321443045829638      4.0293392352239268
   205   1      19.666272417217005      3.8490858000305366      54.214265780273053
   206   1      21.207474158071427      3.7388442388794707      1.5568929602754675
   207   1      21.284151339867879      5.6345177731351139      2.7302956271226462
   208   1      19.164727822146695      5.7411012709927247      4.0403695483949482
   209   1      19.459181184955202      8.0268064400326278     0.03031085878144496
   210   1      21.120958578643233      7.6736949458567878      1.4432392713810602
   211   1      21.336769909363337      9.5039710458663489      2.7358341985020722
   212   1      19.479965080174363      9.9026877340292874      4.1513830061609474
   213   1      19.084055946050231      11.673162091484834      54.197913148414365
   214   1       20.99224977382729       11.24253506080238      1.2914173776314011
   215   1       20.62994433295248      13.259337104660538      2.5945620992295169
   216   1       19.19829004675416      13.895300212252554      4.1953779630600119
   217   1      19.177101112944026      15.529663029975712      54.035192636222583
   218   1      21.090066779731139      15.371012025866527      1.0809058152002198
   219   1      20.998163562725988      17.127655892357684      2.4866479549948388
   220   1      19.065472667551308      17.908693841744103      3.6415977460564575
   221   1      19.428152335660418      19.204596705796455     0.01205570934214392
   222   1      21.491035862716608      19.084317807043725       1.255519881817625
   223   1      21.042245802284349      21.123327348612918      2.7052830598663142
   224   1      18.582248542129722      21.262704694442732      3.9994737572347363
   225   1      19.259760019835525      23.092109862152643      54.039540942802411
   226   1      21.202283049763583      23.092383886698848      1.2818840746455393
   227   1      20.959904990460412      24.988620137928084      2.6223051069676431
   228   1      19.259703119313794      24.961637933025422      3.9571775808470746
   229   1      19.361346044100021      26.987383228584694     0.15723079584716984
   230   1      21.451630937979683      26.947081213283827      1.3559839408453762
   231   1      21.234600591188308      28.995673601028557      2.4880374410879638
   232   1      19.400519869896591      29.030061609712302      4.1475958596603268
   233   1      19.131295246819768      30.743373633294876    0.072948867796003264
   234   1      21.489517821094406      30.852330854983716      1.1370079787674181
   235   1      23.218472619107342      32.925697748754061      3.7636226890873798
   236   1      21.284908928041727      32.639406524794694      2.3502091793756539
   237   1      19.423678869936307      34.460373275686521    0.096909594066983143
   238   1      21.227771183473251      34.851780841934307      1.4927278142150373
   239   1      21.240915723648722      36.761902021410414      2.5717996636867513
   240   1      19.479904285849457      36.496799591066733      4.0111229620437143
   241   1      23.501282787731441      38.305318196222565     0.13891295699856993
   242   1      25.307921325290298    0.089710823405734511      1.3797558734515873
   243   1      25.375210247117774      3.9207910605104344       1.309167142881972
   244   1      25.253506032514252      2.2095510501864548      2.9907797450114804
   245   1      23.220576662303642      3.4511934254440657     0.37383173318022483
   246   1      25.350569822471957       5.769314722013446      2.8774111208549598
   247   1      27.295110688100102      5.3950045122654053       4.741034179819108
   248   1      23.256302503332567      5.6747235794858728      3.6596604514169049
   249   1       23.22362148065783       7.696091315760504     0.59948819173456602
   250   1      25.362839802951566      7.4519949870780131      1.3462889232430617
   251   1      24.946237856074823      9.4006935028309293      2.4802855261584122
   252   1      23.535327617144283      9.2495869554258654      4.0857127964944215
   253   1      23.097899234139508      11.254429990910378   0.0077991830982227627
   254   1      25.042843675728662      11.320215771123864      1.2269115813702449
   255   1      24.494009615357637      13.089115347529782      2.5247667102347102
   256   1       22.59658456495216      13.137159491187706      3.7597002722104214
   257   1      23.371325779622151      15.069110052863623      54.263540354713577
   258   1      25.148219682362345      15.189795424232646      1.6853524095005818
   259   1       24.96955845833671      17.136831118849408      2.6296210552894856
   260   1      22.966644877384301      17.024806292941353      4.0656513332597921
   261   1       23.39313729004764      19.065784423893067      54.172388758903821
   262   1      25.092189898435382      19.387409878201112      1.3886881845965491
   263   1      24.868629329958726      21.146386399245355      2.7625176972203258
   264   1      22.940935557899508      21.009925252707088      4.2261203796271731
   265   1      23.076698310656028      23.231987089567653      54.166240332370201
   266   1      24.877613164093177      22.999219463280795      1.3028712962470965
   267   1      24.915117478797399       25.13248792139823      2.2702863726109395
   268   1      23.150870624181987       24.96808279093743      3.8773723474572752
   269   1      23.236255890925499      27.028757590573594      54.187204840486778
   270   1      24.949378656502624      27.195897252456319      1.2728012457825233
   271   1       25.09180449237277      28.899085221030855      2.8068652998880004
   272   1      23.063127245268447      28.943956572042175      3.9832101019732136
   273   1      23.263934250437874      30.684391258592964      54.194576806814908
   274   1      25.206633924895126      30.803890384382203      1.3470816414732985
   275   1      25.462077790274598      32.915702272645284      2.5543455560191313
   276   1      23.210389607722298      30.911638501244337      5.3581760633844988
   277   1       22.97554347121266      34.640903538748198      54.159055616935831
   278   1      24.805923322475635      34.670264360000211      1.1626571885057253
   279   1      25.304769653534194      36.330660660561598      2.7429232705692574
   280   1      23.404194815122025      34.599987803540564      5.4280041283859841
   281   1       27.19035638401251     0.11508860084039696      54.244953632513386
   282   1      28.937283682587029      38.327478511816821      1.1455820810268509
   283   1      29.193583043680682      1.7541965010313594      2.6933588724066939
   284   1      27.090496097873988      1.6985124606460777      4.1748174571996719
   285   1      27.226369903061343      3.6856935160957587     0.21962819540910936
   286   1      28.964319461777439       3.750398977637138       1.698759892262341
   287   1      29.199295963475951      5.7132084943558681      2.9324649249090617
   288   1      25.120777496634627      3.7771038639912424      6.9600860020973929
   289   1      27.262622066223081      7.5500157010457629     0.16885502599454852
   290   1      29.241119578224616      7.6383343123040346      1.5940344596310523
   291   1      28.914462622846223      9.7736321759020175      2.7806168779977818
   292   1      26.494132430630273      9.7053319139175827      4.2444016624862133
   293   1      27.222924764868107      11.400505654990114      54.207980558935738
   294   1      28.989294345653093      11.624733244686412      1.2125246521596753
   295   1         28.801033608386      13.641422703995625      2.7828847764328297
   296   1      26.578246196236194      13.641555850797307      3.6347834214720454
   297   1      26.888884513210662      15.364443740830247       54.20416811379188
   298   1      28.863313224547973      15.397254155597377      1.1370756031895339
   299   1      28.845934061308245      17.254233070162769      2.7214069374053116
   300   1      27.012948863639654      17.406787185355395      3.9222620990251484
   301   1      26.989187683686197      19.259570884189561     0.11720141851637911
   302   1      29.141359476890301      19.358463917740774      1.2221508955945954
   303   1       28.85828266478628      21.222066503944287      2.6320472959182348
   304   1       26.97611100022284      20.844300098424331      3.9565473973237633
   305   1      26.727948233920394      23.292684272072734      54.194258225441644
   306   1      28.648320797708205      23.420176421178404       1.344390806304957
   307   1      28.535406761704113      25.652065314342394      3.0865763964728568
   308   1      26.550187425506152      24.834741205218474      4.0273432719120343
   309   1      26.924916847744299      26.796397801025595      54.279655220816551
   310   1      28.841930335525053      26.990111460915351       1.312197134961276
   311   1      29.018365010355225      28.784834426617742      2.8177250114427239
   312   1      26.982571611605429      29.071450716718211      3.9790444519359287
   313   1      27.308389308721548      30.712511010736101     0.15877175709624702
   314   1      29.201307722417145      30.965255540008592      1.4092946878054016
   315   1       28.87888134334651      32.733448036851513      2.8713434999167147
   316   1      27.161242653628189      32.810759014358929      4.3637516479367049
   317   1      27.341375999546354      34.748868395007655    0.038818470566832262
   318   1      29.193693696005731      34.560852962993273      1.3778452420514904
   319   1      29.112493855622777      36.603484613153306      2.4546543138894532
   320   1      27.284423943679677      36.084421008330828      3.8795759123574043
   321   1      30.833171549724593     0.18097385097994376      54.255592665053328
   322   1      33.105721317553041     0.15886593792311313      1.3220761161845553
   323   1      32.813241124740721      2.0582232603253532      2.9092925259424196
   324   1      30.851391436248608       1.921295435952137      4.3257165955085588
   325   1      30.705707685388411      3.5439243371894937     0.19987014496365441
   326   1      32.878475752907846       3.962591698363362      1.3323552200670168
   327   1      32.714832946582497       5.822700777966709      2.7396599789330045
   328   1      30.999726126598695      6.1520517190537696      4.2768538077513094
   329   1      30.904287911788217      7.3817968367538835      54.239759176176342
   330   1      32.993623975584505      7.6451314728604034      1.2208633945458829
   331   1      32.570664036148692      9.6365666162650143      2.4142645050573819
   332   1      30.712873309525111      9.7570175711240932      4.2533387802477032
   333   1      30.833601303462448      11.556794729502458      54.053107711485104
   334   1      32.784357794957998      11.600819780803718      1.1045434783519794
   335   1      32.912202372145209      13.644502632417021      2.7325526970447171
   336   1      30.843588631782456      13.283818191841783      3.9598677067955355
   337   1      30.843306935252965      15.391775400270719     0.11833669120524044
   338   1      32.627801721120363      15.541102919492042      1.7234082151988794
   339   1      32.786204486283097      17.816962812646441      3.0579905730616495
   340   1      30.703954936435323      17.350530799833592      4.2576185528560835
   341   1      31.150416366210944      19.337305453442838      54.275555977192916
   342   1      32.809445200127833      19.620007692697577      1.8278650778762664
   343   1      32.499453735890448      21.545895853710171      2.8256763013752795
   344   1      30.798924771450778      21.162681971566165      4.3109130274214875
   345   1      30.732365220681064      23.157336917201071     0.11206043385368526
   346   1      32.838213841457964      23.233051203456323      1.0443719094610728
   347   1      32.803072547562188      24.814340729130354       2.742803994151747
   348   1      30.664077642988914      25.225702352901919       3.855055652480587
   349   1      30.734606735213642      26.734705228402838    0.078045863195052564
   350   1      32.601763265563548      26.877149190296102      1.3721513601592601
   351   1      32.831903953461229      28.787092345410436      2.7363904250778086
   352   1      31.254582875664511      28.900897344422063      4.3547372492706371
   353   1       30.85230033787931      30.900402276334024      54.075746994198667
   354   1      32.779893699397071      30.706315746544742      1.2088215764981676
   355   1      33.119838257938483      32.555298053773555      2.6420882331545958
   356   1      30.856930927412144       32.47243019193602      4.1757642508591868
   357   1      31.046340521574763      34.566630434843006     0.14564330077374738
   358   1      33.120147211609506      34.629409556635842      1.5015151349049465
   359   1      32.855267337184358       36.63403404719201      2.3780734946730506