dump/Si_1400_0/steps_61 (written by ASE) 

4000 	 atoms 
1  atom types
0.0      38.395898218429522  xlo xhi
0.0      38.395898217999999  ylo yhi
0.0      54.299999999999997  zlo zhi


Atoms 

     1   1      38.344149676927323      38.384864927860519     0.03354843523811725
     2   1      1.7771676205109528       38.30566174248159      1.5148026232510252
     3   1      1.8030564100682447      2.0616513743563063       2.662534000994786
     4   1      0.1000761369744099      1.9409912108588641      4.2207823713315635
     5   1    0.040576644113860104      4.0150721087424257      54.234436713779786
     6   1      2.1611386740350955      4.0281738097323005      1.2562601712052222
     7   1      2.1048008161374221      5.8524975573205769      2.7897112604526013
     8   1      36.707572949918728      3.7675101976508647      6.4087163704067356
     9   1      38.393628177685358      7.7069302739892303      54.233825459100487
    10   1      1.8084810844668582      7.4298321081197463      1.2825174982753442
    11   1      1.8444318641727615      9.4631740697100266       2.883965410742817
    12   1      38.303848902800866      9.4423521908512509      4.3416422504443082
    13   1      37.963629856114736      11.717455573590154     0.32213417930507832
    14   1      1.6234177639894736      11.483815324737732      1.3732032553514408
    15   1      2.0055724162595756      13.476004515069709      2.6097924631365026
    16   1    0.062704962332148353      13.518851695190241      4.0045282130401132
    17   1      37.745507907396416      15.271173615861981     0.43653883800510612
    18   1      1.3565200697838375      15.491278180454339      1.2756621541169568
    19   1      1.3202000222832189      17.142345851271646      2.9935784816701601
    20   1      38.109651994029612      17.118774128339592      4.6906611600344279
    21   1      38.140139000298412      19.064635194068941     0.11901135179808785
    22   1      1.3962790105006646      19.174481791783435      1.6884977523699147
    23   1      1.6980214104708546      21.274905183913528       3.015344334665393
    24   1      38.222704703616827      21.205800964882155      4.2301729195282531
    25   1      38.272448232393685      22.875203236962513      0.1776983433006192
    26   1      1.7709938768837659      22.958358736464568      1.5575925610526169
    27   1      1.9848633027523077      24.956515107014731      2.6140963674813547
    28   1       38.36206517553515      25.173192607607316      3.8824095967648091
    29   1     0.21497924330054011      26.958595466771197    0.099693194649614583
    30   1      2.0247904131232195      27.300246186151192      1.4709619693252101
    31   1       1.807573667776176      29.250340126181989      2.7727172029103371
    32   1      38.156028034672687      29.091215937397955      3.9707474704380274
    33   1      38.331890789534427      30.803298992348974      0.1119658388648188
    34   1      1.8126869109643762       31.15643877292824      1.2683343267339389
    35   1        1.88270884165971      32.885781829726696      2.8332797436367376
    36   1     0.11773536285746086      32.858890399349718      4.4649334261068159
    37   1      38.115130643050662      34.326169891683151     0.10880934308727293
    38   1      1.9719711966166922      34.712579447423956      1.2223240937309112
    39   1       2.202986945756837      36.428344772515899      3.0872599582268547
    40   1     0.45381031162854768      36.718734555732382      4.2400688069789814
    41   1      3.7886749995565427     0.20590213303384852     0.22263318980079697
    42   1      5.7622444763684575    0.027973362270884577       1.657741269362428
    43   1      5.9582438910690394      2.1482638091625486      2.9723438489020526
    44   1       3.974060092674689      1.8352459106993517      4.0764953680529841
    45   1      3.9952101883924933      3.8862975356669698      54.270873939252468
    46   1      6.0950558128189165      3.8983526639381858      1.3700573814515007
    47   1      6.1826721037926502      5.8753427698772667      2.5770190314718633
    48   1      4.0602285965577964      5.7431088494479274      4.2002335115745284
    49   1      3.9264169400430808      7.4521235547894822     0.17549457641354144
    50   1       5.984272712412892      7.7973621488881557      1.1944369270547877
    51   1      5.7192570749147817      9.5109276674064684      2.8685699005771559
    52   1      3.7056538178828649      9.5371753794865466      4.0316261225743579
    53   1      3.6443959992680446      11.054572725969084     0.45632345047524742
    54   1      5.7179468406918872      11.404827917275504      1.3052613436294118
    55   1      5.9974576493560789      13.429869072465076       2.634230955813142
    56   1      4.0250974300143163      13.490901092318758      4.0798409727789027
    57   1      3.3972185568206128      15.320517430006166     0.11548148984786609
    58   1      5.5055507867650331      15.418618819297867     0.94764294074241295
    59   1      5.6916617173595982      16.946442265527608      2.6125731673855381
    60   1      3.5599849976047757      17.357222629162393      4.1470348868295668
    61   1      3.3423711638035227      19.013089699231131     0.24086274612310493
    62   1       5.415363665710899      18.833739178148278      1.3887045523176536
    63   1      5.3353842830329237      20.946229482665704      2.4967250524633853
    64   1       3.609385725471387      21.006508524353826      4.1992176135372326
    65   1      3.6057009589904809      22.800761108208693     0.30665728352296362
    66   1      5.6603343343699501      22.725836127710952      1.2917182746891616
    67   1       5.963396279561537      24.996892321986635      2.7246774052946661
    68   1      3.8543123731180846       25.24469902902543       4.116824414426322
    69   1      3.9859981264064963      26.877366238193076      54.239730545782443
    70   1      6.1056781901562607      26.739375285572638      1.2209986583415922
    71   1      5.6332078771358383      28.722652842673014      2.5074345792760386
    72   1      3.9165085039395491      29.176657803146803       3.976193449104481
    73   1      3.7074354621108787      30.763460772815925    0.035127119476112544
    74   1      5.5999263090009954       30.79721254240981      1.3222749824113174
    75   1      5.5657878008467963      32.672239699891009      2.6376692786728424
    76   1      3.7246619780301971      32.762862082366013      4.1076011794773999
    77   1      3.7744719966924754      34.692783159923934      54.195401781354811
    78   1      5.4954054846929052      34.752005203714184      1.2718611342735593
    79   1      5.5655195519368457      36.399258107143154      2.7566434637362933
    80   1      4.0004048937022612      36.364907651110251      4.3729517924746011
    81   1      7.4254654298627782     0.18428438964160804      54.288072356717755
    82   1      9.5781451658677241      38.144101660549829      1.4878591669949857
    83   1      9.0979105967350105      1.8113555983642931      2.6251423976569641
    84   1      7.6694095874347052      1.9961364550986642      4.6386858031979372
    85   1       7.721718531796399      4.0765437011429588      53.913934990209874
    86   1      9.2562176261603017      3.8401353052179807      1.3671302880124701
    87   1      9.6805494240208017      5.8859614199489885      2.5140437620065663
    88   1      7.8918349513895807      5.7140151452638994       4.179868645872304
    89   1      7.6189726568101426      7.9323372981294193      53.976987333768456
    90   1      9.7537358892022041      7.7632302040849064     0.86961562148030414
    91   1      9.3841489292789184      9.2025646860711987       2.362337189971186
    92   1      7.5377304065588389      9.5979972491262302      3.9988690312341886
    93   1      7.5590551497731964      11.311313560545868      54.084555736258963
    94   1      9.5421012013717856       11.27244902219871      1.1827294680612697
    95   1      9.6455060377657666      13.216992950530946      2.5861729432526213
    96   1      7.8924206756658251      13.264752725593246      4.0970537014547883
    97   1      7.8207585696885484      15.429426233739711    0.074199086387363791
    98   1      9.5223135782491184      15.548542743992723      1.4276766043223239
    99   1      9.4177739335323754      17.724538418400723      2.3904548756674657
   100   1      7.5704043214274455      17.261523028183241       3.879354612189545
   101   1      7.2543863124730699      18.993302841451861      54.128443523858046
   102   1      9.2717515328685192      19.719579047976687     0.83212774593349814
   103   1      9.3225053358502237      21.139585470745029      2.8326943615720324
   104   1      7.1600936869471461      21.222712104091737      3.6737443552618618
   105   1      7.5273947432421213      23.290369831610374     0.14884887012648274
   106   1      9.5467004215212814      23.289889074529114      1.5189562125129554
   107   1      9.4995888576477778      25.248312104369596      2.6151895806906285
   108   1      7.6656583686629016      25.142074482464189      4.2591585628157667
   109   1       7.714795316879254      26.846377624930003      54.064888880408866
   110   1      9.3866721414803234      27.202714392161173      1.2486358413633993
   111   1      9.8010100772613047       29.13622649795785      2.5693897990388437
   112   1      7.7945162536982533      29.201998361215335      3.7668687368224032
   113   1      7.4507510179880718       30.82542442231896      54.299512693294503
   114   1      9.4977828633007082       30.84048672542497          1.294498942183
   115   1      9.4462288762097533      32.867928671320861      2.6128930392035472
   116   1      7.5485351881508294      32.493144139608361      3.8817849263246678
   117   1      7.5003661012874225      34.908156507727576      54.234000081362097
   118   1       9.489476875852505      34.668431907649456      1.2134959343725207
   119   1      9.5187135538016037       36.03423755460156      2.8566149538015568
   120   1      7.5338667973893365      36.460640513847572      4.1077359169341312
   121   1       11.31107354013179      38.051836069509712       54.20466722030708
   122   1      12.743121750207393     0.33736592296274326      1.8913922487729704
   123   1      13.421674542356991      2.4738724901423033       3.102291266988777
   124   1      11.090438214320395      1.4882036815073223      3.7777059571858191
   125   1      11.281292306163365      3.8226558203804686     0.16893663032731177
   126   1      13.272559268634893      4.1032255587006521      1.3759889706238486
   127   1      13.533895025539602      5.9937118410732255      2.8075115972412381
   128   1      11.462378953895321        5.80676310253443      3.8153073393114352
   129   1      11.667400699274785      7.8905734788078572      53.908499251507045
   130   1      13.628025958062196       7.750915450170675      1.2281669308005247
   131   1      13.345326790683714       9.528375242014965      2.6676786413743478
   132   1      11.247090615079575      9.5806764187838045      3.7080041414543286
   133   1       11.54233399387927      11.553845004494658      54.270678609315929
   134   1      13.470196176507272      11.549013636255447     0.88503393123158824
   135   1      13.601709703629053       13.36689242974658      2.3761072247700197
   136   1      11.608534124730578      13.232838667676905      3.9170897632963251
   137   1      11.421319023490991      15.358538227028845     0.17972836135297698
   138   1      13.629662625390365      15.216703941804056      1.1369221884711829
   139   1      13.394186562793722      17.186264625234358      2.4573359194579694
   140   1      11.390403366878965      17.204852163856046      3.5042937422440912
   141   1      11.297487303443829      19.192909538205726      54.148936839818226
   142   1      13.212821915442854      19.316192428856681       1.202280162741292
   143   1      13.316726236201529      21.053716183932938      2.6934195425205987
   144   1      11.534708958686682      21.052499275619677      4.1532102451622688
   145   1      11.289730764153246      22.949910178858342    0.050535154999454331
   146   1      13.262723369826832      22.985814423022177      1.3153889025062209
   147   1      13.370569941776598      24.729301391659789        2.62436835621918
   148   1      11.420282183833184      24.975133257381067      3.8664593718512816
   149   1      11.315009534808828      26.803178680509536   0.0039941320101434061
   150   1      13.248860530795458      26.681930635905271      1.4281654426994341
   151   1      13.525823609257063       28.77682871353441      2.6478385291808753
   152   1       11.76185336176486      29.274441717268694      4.1726342450281013
   153   1       11.35608301921477      30.799022800507327      54.228188504158915
   154   1      13.392145943546465      31.074594552132154      1.1679769172972112
   155   1       13.23669832277386      33.060651460066943      2.4075516580992504
   156   1      11.117631472997324      32.687262203838849      4.0471437601243112
   157   1      11.070639042718941      34.159986988544155      53.966029762339168
   158   1      13.026607298747077      34.964519949358191     0.88322659364886003
   159   1      13.577148713485876      36.549092789570089      2.3917961194740536
   160   1        11.8317717846038      36.377822943954314      4.0513604342010456
   161   1      15.072412178781514      38.282128617613296      54.285532708759753
   162   1      17.298017405371045      38.239107820842705      1.1822252870036107
   163   1      17.331612324861897      2.0067035368771511      2.3337302600781071
   164   1      15.688601740142794       1.859291462652928      3.9857189626043668
   165   1      15.317229233759356      4.0802142311331986      54.270547927346016
   166   1      17.329339084595986      4.0008756839525814      0.8394793126723471
   167   1      17.303509408216353      5.7390382849570187      2.3090566149908134
   168   1      15.456743899750172        5.71512137980194      4.1685136073566342
   169   1      15.776095607718348      7.9376116133841785     0.26089672890357185
   170   1      17.493664224266581      7.7400900246636288      1.4144174707770971
   171   1      17.506245477891657      9.6108046541468504      2.8747821152747512
   172   1       15.30265437484891      9.2485274750865312      3.7469032598111447
   173   1      15.861889589495407      11.900719576291138       53.99657969893034
   174   1      17.692766570352362      11.407357749180996        1.19561548139244
   175   1      17.532402937556956      13.612499756080414      2.4067457058531994
   176   1      15.395235446100685      13.438410242787672      3.6879362531765669
   177   1      15.368805353874148      15.873489219826624      53.988307737695422
   178   1       17.15979460395728      15.520946431356544      1.1659357430833686
   179   1      17.525437840923399      17.232315836745894      2.4866409860993732
   180   1      15.516738640061705       17.26990821035859      3.7075850335281193
   181   1      15.158399444225628      19.327794155507817      54.246653063090022
   182   1      17.297705780659719      19.365424977688036     0.97139379503504597
   183   1      17.196219164734039      21.078123420802857      2.5518097989921702
   184   1      15.395074517536971      21.263142883612552      4.1302470434252081
   185   1      15.225003073369576      23.047225331421551      54.280112344223838
   186   1      17.109551715000844      23.086752461126206       1.430224984990409
   187   1      17.440184589484407      25.126023842242756      2.7676666501076843
   188   1      15.319544910328693      24.846596300679952       4.045531319521066
   189   1      15.019525473668075       27.16084531764351     0.29248841062662906
   190   1      16.997640296201528      27.102443542912507      1.6794740842004763
   191   1      17.052581487900007      29.145838494946119      2.6755446825974345
   192   1      15.340575942101072      29.060369243926765      4.1037144405332242
   193   1      15.415362261806331      30.861930483673472     0.14325757575165879
   194   1      17.537442301859883      31.002518834099284      1.2051434778934531
   195   1      17.205405551733843      32.758064556016663      2.5290489353177676
   196   1      15.277400263366401      32.587821058053947      3.8754605811831331
   197   1      15.194508395628176      34.461407767941878      54.124227117500439
   198   1      17.097567449560717      34.374383272281584       1.003696435726898
   199   1      17.106003218984377      36.230474466079094      2.3194834633635986
   200   1      15.285865851006065      36.216052323497216       3.858754353260327
   201   1      19.030753945114064      38.004331538041171      54.024776030801242
   202   1      21.385146261160976     0.12164350402186583      1.0466179440187466
   203   1      21.317264265367324      1.7954833076615118      2.6788090757107517
   204   1       19.19364538477576      1.8414313942938394      3.9893680965150549
   205   1      19.682866681843446      3.7355900385048955      53.984582992501075
   206   1      21.317902888692412      3.5598120158242632      1.2297872203190865
   207   1      21.224948206376336      5.1438402617130201      2.7407093120022088
   208   1       19.12352362860323      5.7130052256433466      3.9417408702513397
   209   1      19.296320855590224      7.8904293158261147     0.33369589211480394
   210   1      21.126862432682096      7.3179358198825186      1.6164111343176613
   211   1      21.134527323783686      9.5350603588374518      2.7769916474153447
   212   1      19.251808827761668      9.5898872018540491      4.2057826002823298
   213   1      19.349316891156068      11.506382492893842      53.777090799731447
   214   1      20.727231388170569      11.293154386470627      1.1656029716206702
   215   1      20.927321119289225       13.21905192070199      2.6730938714538421
   216   1      19.214480338456639      13.426056982856748      3.9751243271972481
   217   1      19.057589463924167      15.246616672087091      54.117320853178967
   218   1      20.858043528362998      15.115760905109781      1.4143818533724926
   219   1      20.955976787488488      17.235552468175239       2.711059458989598
   220   1      19.411583038340044        17.2825304934344      4.2188138621204638
   221   1      19.296696459247912      19.139740532113727      54.215332316015804
   222   1      21.132520139977899         19.148122489155      1.4292711265904023
   223   1      21.115450902283069      21.052338940322198      2.6525905490311521
   224   1      18.892848660299443      21.184712919575603      4.0507162193320259
   225   1      19.319453933277437       22.84621480023182     0.28035930515935648
   226   1      21.294506663344027      23.132751899677732      1.5312569920533949
   227   1      20.833721651865599      25.012785247180318      2.5332326666563949
   228   1      19.054801974262475      24.982731412747697      4.3103980849473142
   229   1      18.788359730196056      26.817296328513784    0.004115716282888115
   230   1      20.556312741082387       27.14512329900931      1.3377657659012339
   231   1      20.902182879290965      28.992466034598266      2.7347532462833888
   232   1      18.956127104913737      28.915336483971533      4.0235793337304688
   233   1       19.27911324702816      30.575422567835378      53.775894162533724
   234   1      20.895833194414625      30.715364707443797      1.2281607617844859
   235   1      23.127728786639153      32.537701121752526      3.6903206737222405
   236   1      21.185952469728445      32.493277828115623      2.5422515438830495
   237   1      19.349870170625977      34.411075176399969     0.15400023385032013
   238   1      21.200087485350576      34.809790320702696       1.466289569705689
   239   1      21.060197885798537      36.584089007049926      2.7380225170049832
   240   1      18.876456046903375      36.492076371745583      3.8348955040954356
   241   1      23.268135888592173     0.15916168292932714      54.208960464176421
   242   1      25.008126537773336    0.094462099425255963      1.3487858117953369
   243   1      25.010761591931491      3.9586770552073829      1.7982692328034764
   244   1       25.30578249174032      2.0363281428865561      2.5655340154589803
   245   1      23.459954739942187      3.2447204277525286     0.23590296929291971
   246   1      24.936768728913599      5.9807487574089704      3.0533547684339379
   247   1      27.053330117013726      5.9813403173504183      4.0286870528771956
   248   1      23.066361116487084      5.4061125097331519      4.2482651277927514
   249   1      23.102713998519665      7.4824991560397995    0.086916344986457325
   250   1       24.97571513118227      7.6694422150227757      1.5768384654011127
   251   1      24.802965446396382       9.537367315221287      2.8443900767097023
   252   1      22.928949181907697      9.3817745380617019      4.1244709096258578
   253   1      22.747045534827059      11.346756059778849      54.066364215119492
   254   1      24.846659947077868      11.275302793750578       1.217676600238178
   255   1      24.849856849727683      13.458394138170409      2.6159107449327759
   256   1      23.198629997152878      13.425467337748614      4.1640138206668684
   257   1      22.881791997929952      15.379505427046078      54.052611409819832
   258   1      24.767337958214291      15.258566469720076      1.2862147476813093
   259   1      24.898491027547674      16.877306542108769      2.8407072549130246
   260   1      22.691728230503621      16.700726049813667      4.0012191343205474
   261   1      22.890036784465259      19.199010352642318     0.11289087888787906
   262   1      24.556355624894699      18.738023823406156      1.4787278852715635
   263   1      25.115459461385317      21.097722893782667      2.7616186801970581
   264   1      23.096110794472477      20.935346895337137      4.1126290755483419
   265   1      22.933887495364544      22.998345231164507      54.153801021966132
   266   1      24.839019999047309      23.124630116384228      1.3635969115140165
   267   1      24.523051101550404      24.817835312074561       2.718386751668961
   268   1      22.772657819422118      24.737495092298612      4.1994564564507098
   269   1      22.705530386302101      26.818966258564842      54.211662942021945
   270   1       24.56253677033553      26.782221440564957      1.5898724581250365
   271   1      24.858438838666537      28.921020818165704      2.7268838586452149
   272   1      22.921144868646245      28.583290988110381      3.9827170425812271
   273   1      22.954920249233286      30.922806095251296      54.214736832850413
   274   1      24.946289276403988      30.665347242032375      1.0957331427060104
   275   1      25.173701430298362      32.472443607602962      2.7121844861311817
   276   1      23.218623976149757       30.71481059441723      4.9851369697262715
   277   1      23.269067165510194      34.820107299234557     0.49611546543468399
   278   1      25.416432172625822       34.58997431970154      1.5277187703250747
   279   1      25.096509748514038      36.782956474092295      2.8836441728522448
   280   1      23.075708856339137      34.299750802353934      5.2827835733839139
   281   1      27.116498098814155      38.392989276844595    0.047325693243374163
   282   1      29.227163700891857      38.361531633169299      1.3633156133944448
   283   1      28.797724218162426      1.6669662808136909       2.727618581736706
   284   1      27.032085992446714      1.8647251867415222      3.9772336460113342
   285   1      27.011065556110339      4.0961556507152252     0.29631600890924131
   286   1      28.836914725547594      3.7086550009976689       1.689041181627851
   287   1      29.024177307108506      5.8047206576723118      2.8890461859107384
   288   1       25.45014861816647      4.2005255398499761      6.3345882454362741
   289   1      26.950023704124622      7.7098369283823063     0.22556051571618832
   290   1      28.928401501814506      7.8751381597195884       1.556903723926677
   291   1      29.193825248971095      9.7371779800914986      3.0005548641747604
   292   1      26.920924775774356      9.5899773174971727      4.0292349025565608
   293   1      26.733769235136034      11.538145951402109    0.015428666434593175
   294   1       28.81128217416088       11.39412489264706      1.2267019982727441
   295   1      28.407431392878788      13.549919877396926      2.4525568258065937
   296   1      26.801788026027758      13.644040225975827      3.9891663539867164
   297   1      26.657257549360473      15.521334997504329      54.174579508704262
   298   1      28.505399314905493      15.515031163703283      1.4511246292421205
   299   1      28.555155166193035      17.398378939336158      2.6015599170003711
   300   1      26.719429107433619       17.34825753059209      3.9840171776173419
   301   1      26.839117307311852      19.461756287957648      54.197619144173615
   302   1      28.239556147981425      19.433617135278574       1.444231374732172
   303   1      28.713625886151895       21.28546626389954      2.7065201871105837
   304   1      27.048668585729683       21.16361368722993      4.2785280771154799
   305   1      26.421607637601937      23.137267913417059      54.255034758701768
   306   1      28.220115152268772      23.080332386714307      1.3820608178488771
   307   1       28.86463354057765      24.770747154523132      2.9140086383405102
   308   1      26.720307465074878      25.009110661646591      3.8629428200817544
   309   1      26.919887328807746      26.683036434246794      0.4603440945195415
   310   1      29.016905454133951      26.796699979908883      1.9792672934569722
   311   1      28.880115182513443      29.128876393368326      3.1448245636042094
   312   1      26.680195084537495      28.993712224000898      3.9699199694438811
   313   1       27.06252627485873      30.687511885044394      54.249729913999587
   314   1      28.927001262913908       30.76694642993877      1.2184164552118528
   315   1      29.020850742462592      32.477870529556462      2.7084327373311474
   316   1      26.949687066985113      32.617810786663945      4.1477154501144593
   317   1      26.737872851733382      34.633435226245929      53.873280485211978
   318   1      28.509431883660895      34.669621912150589      1.3098048062869887
   319   1      29.006743977266705      36.480067096649201      2.7716918658105207
   320   1      26.944179841662873      36.410962089209427      4.3214031457864186
   321   1      30.743413381489496     0.43940778279560794      54.157199743571255
   322   1      32.802186090715772      37.793838759410249      1.1356372784606856
   323   1      32.503931347642393      1.7976946210271583      2.4247149541669049
   324   1      30.754517124906204       1.780714761163221      3.8711954923407821
   325   1      30.558740329246596      3.7085490509680059    0.043680536413751254
   326   1      32.978426386140654      3.8422109977651702      1.4668011902168032
   327   1      32.622874076856739      5.6900352987137373      2.9108813686918107
   328   1      30.844254425379042      6.0561703746406783      4.3327026649541693
   329   1      30.677747177736784      7.5744974290161542     0.24759801946634069
   330   1      32.834646816412558      7.7274489500805634      1.2904725640798356
   331   1      32.796324270312148      9.7505798433545046       2.660881007801279
   332   1       31.03744741782165      9.5865542675156075      4.3233686979382009
   333   1      30.679831320775612       11.09404879569305      54.263098406795095
   334   1      32.570210368034381      11.826162429038941      1.6253919843218103
   335   1      32.223592523239944       14.06616348278113      2.8814724999444814
   336   1      30.239746714169041       13.55456763317626      4.0379789982305745
   337   1      30.590005974441233      15.189184973281247      54.020397012855739
   338   1      32.316429173330157      15.793129497135542      1.0789608899779737
   339   1      32.467930316836494      17.599479514686021      2.6893856698496967
   340   1      30.534105975658804      17.461650773883804      3.8827373205723892
   341   1      30.282439414693638      19.682466902088553     0.15201775898865413
   342   1      32.376982410371895      19.373626363702332       1.248999548257153
   343   1      32.231923165369587      21.401466221809478      2.5804333044763537
   344   1      30.454187760705846      21.139980790247826      4.1343125527959836
   345   1      30.304981765655615      23.323517087262807     0.21425492566150955
   346   1      32.529109403574004      23.223089704621188      1.4218488664377462
   347   1      32.612370974836374      25.161407903798562      2.6970990977030871
   348   1      30.781119242273043      25.157119192734751      4.1720261554880143
   349   1      30.417471645448643      27.014816785527636     0.17038100673827339
   350   1      32.677967839761216      27.145230464088669      1.0054293463596542
   351   1      32.898707354010462      28.596203635144477      2.6354820628384235
   352   1      31.105255834180781      28.832680967595863      4.1078712201642107
   353   1      30.833582159180203      30.896386330618057    0.017514461380574151
   354   1      32.780358446234708      30.499490217966088      1.1645870812875292
   355   1      32.839500352256039      32.423386753090931      2.7325812537769574
   356   1      30.865909936168269      32.407801593119508      3.9564678823521615
   357   1        30.6414129195608      34.682697362575446     0.10739751191002819
   358   1      32.530706241454503      34.468019548750135      1.6271808986513843
   359   1      32.523483816385976       36.42860048270483      2.9327137532807437