dump/Si_1400_0/steps_81 (written by ASE) 

4000 	 atoms 
1  atom types
0.0      38.395898218429522  xlo xhi
0.0      38.395898217999999  ylo yhi
0.0      54.299999999999997  zlo zhi


Atoms 

     1   1       38.16580568975408      38.092461075681037     0.11019564025586993
     2   1      1.8355128740487381       38.33386958700747      1.3419302361050887
     3   1      1.8086202307126151      1.7472171847565376      2.8630525623659109
     4   1      38.374861724743411      1.7986678839309271      4.1208763909492543
     5   1      38.355617092275139      3.5614503563071613      54.267497596171673
     6   1      2.0318146198614353        3.75385443687999      1.1620665069133695
     7   1      1.9435697708998085      5.7346746623455171      2.5049760148893041
     8   1      36.568833324775738      4.1117497235131033      6.7429785377813332
     9   1    0.092217639851231381      7.4117341145287154      53.961334080208054
    10   1      1.9881521100761592      7.6258581386772386      1.1951035061386599
    11   1      1.8769736578829739      9.6434912340623864      2.6707918631763827
    12   1      38.326746868044609      9.9996062236141494      3.5688382339946543
    13   1     0.24868552891645004      11.393978228654731      54.248970780738922
    14   1      2.2177985363956814      11.512647484019228       1.331848229723994
    15   1      1.9332114199722594      13.342724408967106      2.6760410743234493
    16   1      38.380101146281042      13.306489906208764      3.8882053467070476
    17   1      0.3216240966320294      15.118432591417873      54.205448774366104
    18   1      2.3949213079632763        15.3600655701074      1.5969096617213854
    19   1      1.8833106633289953      17.432184136021672      3.0518933467381322
    20   1      38.383770028418944      17.301904482653072      4.1478531413031536
    21   1      38.353317292545164      19.053367677858311      54.140748148959631
    22   1      1.8515568267586533      18.993137843236628      1.3189052786421707
    23   1      1.7199362619182561      20.998142902542863      2.6468063644529947
    24   1      38.338479931245715      20.855800196245411      3.7921737788609691
    25   1      37.999329362714057       22.79431002497574      54.205609046618576
    26   1      1.6119148532837624      22.832506500891455      1.1365216530474613
    27   1      1.5831367915436489      24.848800561148138      2.3752794277526363
    28   1      38.332347702868837      24.661584066188297      4.1017243894509665
    29   1      38.247596463076555      26.270895417363441     0.35412980285187834
    30   1       2.066740631873933      26.708297452115954      1.2495613975334896
    31   1      1.7571650240483041      28.619516260345364      2.9064060780125924
    32   1      38.209900049454539      28.505836426770724      3.9878555002587768
    33   1      38.176767595761596      30.150088294357122     0.41406565333654705
    34   1      1.9904371554237787      30.314118770920494      1.6160367834956459
    35   1      1.8025000411275067      32.499230170689209      2.6789751237189283
    36   1      38.208637436748965      32.180278228998127      3.7967018922079876
    37   1      38.305559202119468      33.974337461723152     0.29502020302386428
    38   1      1.9092475511367095       34.41045059110148      1.2181124135160664
    39   1      1.9858854085983439      36.211314240537234      2.5131466000470026
    40   1     0.29117951984398943       36.47760365503698      3.9274372113460925
    41   1      3.7356497437901823      38.371342362409521      54.286085094799326
    42   1      5.7157106659918711      38.205495059408747      1.3941617982384193
    43   1      5.4849747141968752        1.65085330738334      2.4701106765313838
    44   1      3.6877378970337484      1.7454143526772314      4.0704494920161212
    45   1      3.9173811952905004      3.7298951317522882      54.000388160051365
    46   1      5.7405649521234974      3.7346145273783073      1.3738169817719481
    47   1      5.3540092383631404      5.4855978943842194      2.6149359224665103
    48   1      3.4277333158190921      5.7157284549182812      4.2873627145694515
    49   1      3.7517320008575328      7.4813436726175331       54.13060625752221
    50   1      5.6109739008350443      7.4799099205590611       1.198379051320638
    51   1      5.9997841134305236      9.4410950049508315      2.4787799522389489
    52   1      3.7531426432079256      9.2755156882420486      3.7896161574751219
    53   1      4.2605531510101091      11.602449951104797   0.0049974570018207496
    54   1      6.1454890581004298      11.580936436396696      1.4497711340751276
    55   1      5.9090882710104777      13.370058269910663       2.651695496421552
    56   1      3.8984623288713491      13.414824551317194      3.9088476627885589
    57   1      4.0510794905420076      15.386487104460345       53.98332856463626
    58   1      5.6823852071781422       15.24205151816782      1.2984109588926558
    59   1      5.8933837644134108      17.156498332219908      2.5366666982687782
    60   1      3.9608772397389118      17.273297574110114      3.9569308675664248
    61   1      3.8091328751334603      19.139643346239275       54.24966712518642
    62   1      5.6910570886070744      19.059211410506045      1.2357872797215566
    63   1      5.5948417521780005      21.138084872802565      2.3692794157479633
    64   1      3.5691122083554485       20.96772199305779      4.1292813592510473
    65   1      3.5677472377310848      22.949941131993715      53.966778173719554
    66   1      5.4410069044147749      22.890676401107125     0.97563555009432035
    67   1      5.7025499333207774      24.790767083093137      2.3223829991650082
    68   1      3.5232612420855123      24.866710575913917      3.4239605971141356
    69   1      4.0337150120415126      26.661060468372618      54.294652163267571
    70   1      5.8202240477554685      26.868409972943144       1.369911083982845
    71   1      5.5165480926742783       28.57243898439333      2.5594288547399078
    72   1      3.6073788816857184      28.547120781829488      4.1876191584062195
    73   1      3.4266671844646748      30.465523152773756      54.156777992785926
    74   1      5.4326395883305656      30.591279657952256      1.2856266554789246
    75   1      5.6526416505106241      32.443662267941882      2.7682027093297528
    76   1      3.7109236520441664      32.639576070736865      4.0403916364025223
    77   1      3.5174936110666937      34.406868763781929      53.992783647330072
    78   1      5.4069446408250386      34.550356003614532      1.2573335198004978
    79   1      5.4893394323588991      36.116545522459617      2.8380133939036223
    80   1      3.5972894139794902      36.196479129390156      4.1426409653275877
    81   1      7.6022509234100282      38.345663995119729    0.050462757666457504
    82   1      9.6213120082742307     0.10449997170463755      1.1944177353005534
    83   1       9.514254987453441      1.8306033697402224      2.6302540327083888
    84   1      7.6347608512363916      1.6376585286053382       3.978571001334557
    85   1      7.6914150224343114      3.6280559241302575    0.069912485965721527
    86   1      9.6099429042785509       3.683446719411188      1.3031423651968799
    87   1      9.7375427490963258      5.8069944607491131      2.5860942197772481
    88   1      7.5830112900754676      5.5961719456997168      3.5473627715195577
    89   1      7.6615937474763367      7.6812777592342174     0.23441535806302935
    90   1      9.7109667547242147      7.7250353607415105      1.2386413928927613
    91   1      9.7273912551094401      9.6394283280229427      2.8210947765549124
    92   1      7.7666842336583723      9.5006326575870386      4.1669434006134001
    93   1      7.9396480146506816      11.765703774465027     0.18640135164984031
    94   1      9.8309254501812244      11.545324005407076      1.6127987964350625
    95   1      9.4928726469980589      13.426636532704832      2.7689821469365583
    96   1       7.685096596154894      13.460469241541487      4.3651476329105563
    97   1      7.4362169470769359      15.335887371113394      53.954960614303424
    98   1       9.306049002856339      15.286437527031813     0.99941737171491418
    99   1      10.057729787026176      17.307951527529095       2.456846273379985
   100   1      7.7817976239224542      17.244902615895086      3.9271928312616393
   101   1      7.5625617024946417      19.123552159902282      53.844377520041334
   102   1       9.377663657784721      19.228564336608581      1.2711836997554105
   103   1      9.5361157051505696       21.04022185127312      2.5936222464206478
   104   1      7.2459376158729754      21.202978570714947      3.7419661045192778
   105   1      7.6550540147221797       23.22778818286239      0.1312932341876942
   106   1      9.8833891882831182      23.108695397046933      1.3962056437420163
   107   1      9.2693523092272834      25.306563859889614      2.5743062682804774
   108   1      7.5650827222156503      24.831562483667984      3.7046093538814957
   109   1      7.5628392776417579      27.109716138645116      53.750754884675253
   110   1      9.2945495025311367       27.08748707051593      1.2156236279616555
   111   1      9.3051458972382548      28.965065484255501      2.6445823362068239
   112   1      7.3287355007003843      28.524940396945098       3.879803641871113
   113   1      7.3253327574511617      30.476174828019133     0.09029321447723053
   114   1      9.2624103870974288      30.876436356661785      1.4954344967288176
   115   1      9.5735807548199983      32.753470023709703      2.6521606126907376
   116   1      7.6205733196036674      32.452113614171282        4.08163036591385
   117   1      7.4791476258651324      34.675331001585114     0.37288015019530596
   118   1      9.7596166725396003      34.694401999050029      1.4676689376601189
   119   1      9.3710473752097236      36.521410513931727       2.791699843308264
   120   1      7.4507910525653225      36.365250314508685      4.0642131770159597
   121   1      11.841799284596041       38.25672226472863    0.070071658657900632
   122   1      13.377073428177868      38.231816904296835      1.6666389119167293
   123   1      13.516211580708976      1.9873218530377195      2.8561734813641801
   124   1      11.381020091824345       1.724531856529234      3.9819077512908838
   125   1      11.522878682968701      3.6034941814819743    0.081233012239249724
   126   1      13.543249170485193      3.7628135956161506      1.3621277898806077
   127   1      13.610199377626087      5.7781899016542155      2.7425540187695088
   128   1      11.875272132529526      5.5734998973583032      4.0550187511471538
   129   1      11.914119811816331      7.4404574170898883    0.071078863576895107
   130   1      13.684312627081859      7.7189573343918028      1.4932265019499262
   131   1      13.395202668449251      9.5654448534501935      3.0091290991887609
   132   1      11.406446264419998       9.476560940799228      4.2231295194821863
   133   1      11.885098221258776      11.198967321612169     0.18594771962277726
   134   1      13.969456728821102      11.436104230170166      1.5743333966613355
   135   1       13.60094085628268      13.223072983014539      2.9229825814836317
   136   1      11.648956674966412      12.897413897086556      3.9905208525819154
   137   1       11.50189309199936      15.189689756804446     0.10846940413741797
   138   1      13.503848340830926      15.197687182171055      1.6241396593004078
   139   1      13.462776670786603      17.446539666933802      2.8393590923805285
   140   1      11.406473277791987      16.825953591960189      4.2814899352247853
   141   1      11.435498288385661      19.337023897980526      54.097540287371061
   142   1       13.43413074060258      19.035926651505839      1.1309010009127523
   143   1      13.212530129122724      20.757781406509025      2.5362848515332646
   144   1      11.389944894055073      20.798180907344676      4.0463681987841174
   145   1      11.756726247965007      22.963292413495434      54.008920567484957
   146   1      13.057883690790202      23.083284343257152      1.5660990122217324
   147   1      13.108665210860503      25.129208246020536      2.7820331516532852
   148   1      10.998415562296321      24.949718420509136      3.9809106729246526
   149   1      11.075464895307789      27.041651986740902      53.961984676920181
   150   1      12.869308595359183      26.835219852700309      1.0988930061653059
   151   1      13.340494506295556      28.739525436575562      2.4217893820871597
   152   1      11.295732044618982      28.611703380463023      3.6325265780815439
   153   1       11.21363647020317      30.802870982602855    0.029590359386259001
   154   1      13.319249830406644      30.770143728722143     0.94989037451035507
   155   1      13.207276786872942      32.298659330703046      2.7429758150234984
   156   1      11.370554537849708       32.37149446626988      4.2183546102509899
   157   1      11.549237453285533       34.67634393326567     0.23819378825265861
   158   1      13.415639407272817      34.268033717389436      1.5686253880660475
   159   1      13.321879742471653      36.171693425805472      2.9265853630685594
   160   1      11.342895536946397      36.275200590213935      3.9753125956959479
   161   1        15.3907119200362        38.2671933067355     0.38121967834902054
   162   1      17.338161587310889     0.62780161717428551      1.1368897539969316
   163   1      17.264027801387101      2.4034173078439394      2.7846976403217121
   164   1      15.336387551260222      2.3375217329094826      4.3608211737719698
   165   1      15.532448940715765      3.7621634827455672      0.2328156121296954
   166   1      17.344039141144791      4.2465588405235435       1.431398318323456
   167   1      17.475651110812056      6.1285086267925655      2.7454030372211626
   168   1      15.502180741705146      6.5068758508930342      3.9179067571787418
   169   1      15.801506195018023      7.6505339083594164      54.069541603067172
   170   1      17.494331077510669      7.6634081826828417       1.302933455385094
   171   1      17.801156188478505       9.640917730104448      2.6003044145304122
   172   1      15.452052695918201      9.7948615310071663      3.8509298038976891
   173   1      15.448029840183427      11.564788177347541      54.122515686701327
   174   1      17.558614511761721      11.279966848346509      1.2286006058193741
   175   1       17.21644775962589      13.098200866939379      2.5446919941640784
   176   1      15.507460204334937      13.173718575760947      4.1169560129243665
   177   1       15.33203280304471      15.512993932190374     0.39469261493866287
   178   1      17.143497013315041      15.160056704908596      1.3340470094100649
   179   1      17.262986651189248      17.222256504930836      2.3203749505146201
   180   1       15.49769619692163      17.351664092372484      4.0555282812908793
   181   1      15.382531882522185      19.294758883931319    0.039621358185638639
   182   1       17.25373141703863      19.251656664434265      1.1336104241030041
   183   1      16.976829103393758        21.2656102725878      2.7785085619698848
   184   1      15.100780268083746      21.002083760190569      4.2665575262492119
   185   1      14.696034591279929      23.379834638265965     0.22954727498660052
   186   1      17.311727737468235      23.047478933136581      1.3312668090789517
   187   1      17.275668582434879      25.022034493458669       2.489991263989682
   188   1      15.071291352424261       24.94123707122322       3.811680809049153
   189   1      15.000623354938291      27.171949117644978    0.090096332877192306
   190   1      17.180407247371853      27.168600722141161      1.0847278118204851
   191   1      17.385215035669663      28.878840760533464       2.517481865896857
   192   1      15.304545191787417      28.782852451128797      3.8290410222435871
   193   1       15.53496736811249      30.951352217147569      54.132248434333079
   194   1      17.202648118190876      30.924015086711769      1.2893582829402945
   195   1      17.396731859145216      32.924480959568996      2.4366584916985303
   196   1      15.268857114698045      32.923298281535423      3.6657509111961173
   197   1      15.334385233664035      34.743506672096302      54.059453947520993
   198   1      17.332529633891845      34.718934291849465      1.2436562062158736
   199   1      17.408130745327231      36.961639796096712      2.2668467331444937
   200   1      15.292139892410804      36.685302149008123      4.2207713372079754
   201   1       19.75094418410464       38.36457932661726      54.159115628348189
   202   1      21.467733995176363     0.23144905775842473      1.5227522370252464
   203   1       21.78892113268676       2.092227745766114      2.9662358802063289
   204   1      19.116553920337513      2.2723571522244637      4.2111957657860462
   205   1      19.360684531797247      4.2040397935172003     0.21142711647543133
   206   1      21.077155855801568      3.9072358081598044      1.6664501249807486
   207   1      21.032157651125306      5.9530812224530552      2.8377382937955895
   208   1      19.186283299614054      5.7891476269311539       4.340027564174604
   209   1      19.390023004664357      7.3174013351238978     0.15094121267821961
   210   1      21.430323715257853      7.8369880726953633      1.4725626716408224
   211   1      21.407401391147381      9.9187911764247634      2.8712332933305653
   212   1       19.47137059643179      9.6503115882024169       4.261206264825578
   213   1       19.30145820071052      11.454221630600316      54.201566230672974
   214   1       21.13582516180626      11.737709212055035      1.4742224814617673
   215   1      21.242719730727881      13.479102037230129      2.9558192555894376
   216   1      19.066147635863356      13.349299625162359      4.0480553166603928
   217   1      19.289257264418378      15.524475817793331     0.31090369636920084
   218   1      21.284605618075929      15.141799655826173      1.2954728829132569
   219   1      20.838706228869828      17.080477276104922      2.6130690598976019
   220   1      18.907863542414852      17.058405737992754      3.7810627748295813
   221   1      19.319008031720898      19.407560507737148      54.168343239342533
   222   1      20.761851904786518      19.125317213933993        1.72111065972126
   223   1      21.070921637689668      21.089549162553745      2.9725929660064261
   224   1      19.205799458330869      20.863817600446229      3.9555724814508824
   225   1      19.237747333430807      23.173607874523643      54.110979415873331
   226   1       21.20868291711605      23.038333937053661      1.2443616804055961
   227   1      21.167583468631591      24.969106684085762       2.749996726199381
   228   1      19.143411230846201      24.912374039591406      3.7938303968930205
   229   1      19.652048130613291      26.988830254391733      54.145308703003479
   230   1      21.639242078537158      27.093452059720402      1.4304772904822471
   231   1      21.069119626394741      28.992999464956259      2.7242064010503317
   232   1      19.343345151180674      29.047834884297465      4.1461045637489438
   233   1      18.991217401620897      30.979002504862365      54.285978584876844
   234   1      21.169156079008907      31.134885174600928      1.5338675624538407
   235   1      23.166137483227494      32.755868184621683      4.5404809292635493
   236   1       21.33797158392461      32.788823504041723      3.0482121443681209
   237   1      19.504469590566025      34.803819435546494     0.14381788054391806
   238   1      21.722409643264836      34.853153366736414      1.7987254032422686
   239   1      21.128452120982381      36.779670885023123      2.8280971812753148
   240   1      19.083379658432236      36.705004770294686      4.0455048267658071
   241   1      23.278928298555101     0.12656234817919132      54.185622810145446
   242   1      25.172452216779288     0.18640291010353813      1.5499889985187927
   243   1      24.881077646041032      4.0728925927983228      1.5693533136546645
   244   1      24.743097515932313      2.0617490855802623      2.8319482927340589
   245   1      23.052291960243256      4.0284046978553647     0.16287652583461051
   246   1      25.021808607654165      6.1270353157135773      2.8456983393438673
   247   1      26.807924685336513      6.0786134607753199      4.3175102810447452
   248   1      22.844950308281895      6.0656536273313746      4.1716931845693823
   249   1      23.418799303824134      7.7541693380122352     0.29134640796347655
   250   1      25.189800972561468      8.0176884407080582      1.7822324873232331
   251   1       25.11551241147103      9.6340325258734119      3.1952488789439939
   252   1      23.020962020688255      9.9760143240604755      4.4377286397277116
   253   1      23.234586559575213      11.456418525297522   0.0054770435802879592
   254   1      24.723533925936184      11.219401006998622       1.563708144736597
   255   1      24.832975634352007      13.525127154748748      2.6743617658046572
   256   1      23.037975827798451      13.614067133854062      4.2906792075558302
   257   1      23.010433936847846      15.510822245329802      54.163728788414645
   258   1      25.008352404660027      15.528551043805187      1.3088538941246828
   259   1      24.902036366303182       17.21781788550803      2.7077598834164953
   260   1      22.886636632745876      17.102204218843578      4.0771823335710575
   261   1      22.986079381639748      19.408722462414932     0.71281871811513653
   262   1      25.117065374762369      19.284852601035393      1.4531671987030477
   263   1      24.971231330038609      20.915235802315092      2.7879610329020563
   264   1      23.138504903289885      21.128464103937212      4.0955025407042962
   265   1      23.161450920033744       22.78379893042052       54.23879632360056
   266   1      25.285382564765122      22.871022966563146      1.4016795760380558
   267   1      25.099326478298554      24.796763150488957      2.7356133610152003
   268   1      23.289897302407596      24.997095332140724      4.3151049687888392
   269   1      23.375654259908291      26.951967565434867      54.247674975973979
   270   1      25.519775259229434      26.652384774977655      1.4317173653284945
   271   1      24.933516852134158      28.654224850239789      2.7354580278282574
   272   1      22.856256500560875      28.900992981311649      4.1493880607595761
   273   1      22.997408337831668      30.628874809838511      54.169800068665644
   274   1      24.522880391102145      30.737763245767429      1.4589591666557109
   275   1      24.649137863648651      32.901678024011069      2.5837885865995207
   276   1      22.985725470243491      30.623734991801498      5.7900121838067049
   277   1      23.138181552583948      34.842437005043543    0.062999666186180747
   278   1      25.028601823047588      34.942175302604298      1.6156682705903311
   279   1      24.945563095790753      36.865880493824513      2.9047566149052479
   280   1      23.280630015704208      35.014308952760608      5.9355271904457148
   281   1      26.754372273740991    0.014343985017456515      54.281155333016905
   282   1      28.743717691273417    0.021546189931061759      1.3566607704706368
   283   1      28.532983397613012      2.0245416244106318      2.9325807140083056
   284   1      26.788965907344515      2.3593158561831529      4.2169120193318266
   285   1      26.761463612954365       3.855191101680564     0.25017353056224489
   286   1      28.976857769298089      3.8944165278971297      1.2540386324296926
   287   1      28.793462236384986      5.7517031032932353      2.7699772601401498
   288   1      24.920491152297028      4.1378565006308214      6.9767714203887392
   289   1      26.845012025183536      7.4013837496454142     0.34078003141621566
   290   1      28.829868723828223      7.4782221781468801      1.4257898325010383
   291   1      28.940488864533322      9.4530399444016595      2.7368740697481835
   292   1       27.06565656947058      9.7542918591152823      4.2170032393051873
   293   1      26.805416025314766      11.373246237117749     0.42581475248301792
   294   1      28.828168690113682      11.091449411287616       1.250225805770026
   295   1       28.63782993479666      13.141858321300241      2.3192481819763748
   296   1      26.786419083107127      13.520924945284762      3.8764481219441205
   297   1      27.111251369397806      15.949379653294338     0.60113119824139682
   298   1      29.363870138827437      15.423305471356446      1.2767029091979565
   299   1      28.393009834789133      17.438262157451902      2.4888655813596974
   300   1        27.0354835167769      17.116654633786315      4.3704203885935842
   301   1      27.044185285857566      19.444724795183799      54.233732747386831
   302   1       28.73882312885134      19.522364898217106      1.3107016733406676
   303   1      28.594275228439834      21.038665904561231      2.9776149209880498
   304   1       26.68201319317745       21.10141153707329      4.3370121090010123
   305   1      27.253068259571741      23.232031344484305    0.076522209671873093
   306   1        29.0105390179015        22.6069454807783      1.1615964884295527
   307   1      29.080680193410512      24.816367270458233      2.6046563567487837
   308   1      26.959245141092843      24.990703896064751      4.1352138429132195
   309   1      27.079101979830618      26.743202048282789      54.186818700513086
   310   1       28.65746907393439      26.806709513386078       1.603499641351346
   311   1      28.942867831636555      28.727814781441715      2.4629085847097474
   312   1      27.098440608665143      28.796486996993437      4.0486342323956377
   313   1      26.579969819842546      30.601338039103446    0.077653058013152046
   314   1      28.718508239946782      30.582585238299682      1.0053195065539051
   315   1      28.521421631471817      32.409845138613093      2.6854822179793381
   316   1      26.701305712941391      32.213216414176607       3.880876375745776
   317   1      26.922329837953686      34.538711319644982       54.29044303729561
   318   1      28.762042278576789       34.43411126503522       1.556635006371675
   319   1      28.468527293984078      36.383953703483094      2.7178978123847979
   320   1      26.564444209908654      36.815638997176627      4.4452416076019841
   321   1      30.673104147073587      38.323783582748476     0.13194821399195011
   322   1      32.602489570062907      38.170963469444111      1.6879194749554145
   323   1       32.88797431127454      2.2704915683529325      3.1410082125315406
   324   1      30.729896554575515      1.8100417339471704      3.9841636502133753
   325   1      30.987073458645899      3.7139175990796818    0.085985210698583989
   326   1      32.778168011173079      3.8229215609290099      1.5511141741874537
   327   1      32.187458996596604      5.8526050572691943      2.7067666631553373
   328   1      30.591809441857706      5.5542970572900172      4.2483334951959586
   329   1      30.724165581491334      7.8084888914359123     0.14342520236933745
   330   1      32.793972523744578      7.6920091115775096      1.3906870031285521
   331   1       32.79043811600588      9.8180643133617291      2.6607079118622119
   332   1       30.94744445326387      9.5980485989152147      4.0414482991781115
   333   1      30.581015070660374      11.761546963942692      53.948898818413859
   334   1      32.428570332979916      11.689686453564414      1.3136756798353095
   335   1      32.796489103212025      13.804423011982641      2.7634250401555382
   336   1      30.437515103205072      13.545331097014955      3.7980222746270758
   337   1      31.152334719793178      15.541164907128449      54.072994506483255
   338   1      32.785008085964286      15.689627592280964      1.4739575929607793
   339   1      32.160241111969391      17.578383496840988      2.8615093120589781
   340   1      30.180805328225826      17.191470201505684      4.1311107698034437
   341   1      30.701031235556805      18.938807341519109      53.981343136107455
   342   1       32.32723993902286      19.266087025908188      1.5871027842586281
   343   1      32.394162539102112      21.329210651211451      3.0760618446812265
   344   1      30.773121957471538      21.158628232603249      4.4331442687618265
   345   1      30.551701358232489      22.949300300770673      54.042326902925353
   346   1      32.375862825940374      22.921626307370833      1.1906576762993504
   347   1      32.402106476876803      24.871889097912177      2.6533876052398013
   348   1      30.682457300895152      24.848721824434236      4.1935170059981255
   349   1      30.460894641438689      26.660004217995059       0.102137908985037
   350   1      32.607130117717233      26.897020564873543      1.3800601272275028
   351   1      32.735409362750175      28.917262732842946      2.6732293871406103
   352   1      30.579206469933336       28.69708744524247      3.9335214500692381
   353   1      30.779860540588789      30.413062271557227      54.137235028884788
   354   1      32.514697223321377      30.579934069122217       1.181279611519654
   355   1       32.67521126926566      32.541418121397456      2.7053481125476204
   356   1      30.682291784794735      32.736415022108474      4.2374190855196607
   357   1      30.681660361859734      34.544500660381217     0.21633729984861241
   358   1       32.58075904965073       34.56392029585988      1.6412060962240149
   359   1      32.708244342626365      36.430984646657116      3.1598094763650129