dump/Si_1400_0/steps_41 (written by ASE) 

4000 	 atoms 
1  atom types
0.0      38.395898218429522  xlo xhi
0.0      38.395898217999999  ylo yhi
0.0      54.299999999999997  zlo zhi


Atoms 

     1   1      38.313524367422104      38.035696231852192     0.10775201416835241
     2   1      1.9883436135036989      38.061635103341587      1.2650925625359142
     3   1      1.9535153093321986      1.5623043885614007      2.5041937492306161
     4   1      38.374464331259801      1.5455988505992175       4.164775541826689
     5   1     0.36426074172854284      3.4561675509735466      54.252918612768902
     6   1      2.1582499367570027       3.913201657198953      1.2950945673689167
     7   1       2.055177858737177      5.5537491022133034      2.8510490129064587
     8   1      36.526271327347388      4.0563311170624416      6.4863274344873032
     9   1      38.314002804033663      7.3239995047432682      54.265996001120413
    10   1      1.6711482248492062      7.2899086372193604      1.3624257829747104
    11   1      1.5592138916454639      9.4306112435510698      2.6165937878358831
    12   1      38.186484119051556      9.4926292937482053      3.9407790067356472
    13   1    0.069961926638350561      11.449671628561092     0.23524278665177012
    14   1      2.1664877325234198      11.362047735621349      1.1716092476283395
    15   1      1.7596215075252044      13.057471856980841      2.7820834149760549
    16   1      38.071142111619537      13.223048512060544       3.853866559696066
    17   1      38.255685722206103      15.170315879668662    0.061851158783940915
    18   1       1.679256937542007      15.016630772301143      1.5996710641172516
    19   1      1.8593480220972005      17.034173172330654      2.6982397173420831
    20   1      38.353795028500102      17.431923933878835      3.8459717388698649
    21   1      38.276381374946126      19.039112584743332      54.189118232459556
    22   1      1.7659747890630517      19.170929163048385      1.1954291741549243
    23   1      1.8817389548965204      20.891101238754633      2.8262394453126483
    24   1    0.064711340897673747      21.121860040491953       4.132557851098694
    25   1      38.302328454061552      22.692790865148115      54.219125380113638
    26   1      1.9305895270170765      22.839584339562673      1.4587021689922133
    27   1      1.7850479169192575      24.676678653626229      2.7259355334097775
    28   1      38.290503157212228      24.804773461052761      4.3069720472277506
    29   1      38.235943135601097      27.039204366323844      54.062985265552044
    30   1      1.9809275004848506      26.919029235203819      1.3719162199530137
    31   1       1.999054007050473      28.946647008515583       2.609948788454699
    32   1     0.19406984931162399      28.718330178086148      3.9711028303692402
    33   1    0.070867786242539102      30.850931097379974    0.067816940056525402
    34   1      2.1163120353596221      30.875191117861842      1.3265756083017881
    35   1      2.1032485434629273      32.511985963652016       2.815135084324619
    36   1      38.324446488318337      32.480907247474448      4.0101522773035745
    37   1      38.333250530560498      34.407914475146853     0.30018390676754036
    38   1       2.243269057460997      34.482296044405516      1.6136899936372737
    39   1      2.0446788144167227      36.272325777893101      2.9892776188462769
    40   1      38.335611501780377      36.223735719156871      4.0025422593544935
    41   1      3.7735918802967316    0.053414431854522583      54.117745766668158
    42   1       5.624435537131804      38.020101515622088      1.4019637806399468
    43   1      5.4159508431142358      1.4416940404170111      2.6788467490177914
    44   1      3.5080913970339576      1.8944902714896272       4.789046854809885
    45   1      3.9060746912293052      3.6640720532820801       54.19180323323301
    46   1      5.6896592912686552       3.560460457399655      1.4176526233533326
    47   1      5.9362001377349589      5.6788924762770421      2.6752503343430258
    48   1      3.9478646254836463      5.7409628706304572      3.8848647253115449
    49   1      3.4073922781307973      7.8994152681117766      54.275162299840368
    50   1      5.7027237339033761      7.6132955524857477      1.1227349845924415
    51   1      5.8111497448536955      9.4384472556567367      2.7309565137981955
    52   1      3.8551311821708447       9.382144772339414       3.635907050909621
    53   1      4.2605062330675239      11.903221763760939    0.082907917985778373
    54   1      6.1355657268769033      11.443115441256426      1.6023201703497529
    55   1      6.0575555107840842      13.397910961265177      2.7207436471159192
    56   1       4.024883049285803      13.381437340404313      3.9976675474454053
    57   1      3.7476096903479732       15.43926425289902     0.34950696907048973
    58   1      5.8299119614581043      15.450849917820053       1.527313557502155
    59   1      5.4220755824647657      17.305933690628631      2.9980429927836649
    60   1      3.6076398413800064      17.099233589389073      4.2800587205785545
    61   1      3.9858869732769526      19.115219270663076    0.089497402414360633
    62   1      6.0196194944823045      19.220308005466453      1.3581818450427132
    63   1      5.9443391016973761      20.783435393815878      2.9108461708545961
    64   1      3.8064263406296912      20.891564857251087      4.0632842021550113
    65   1      4.0587464979659158      22.930682992988068     0.04358291716416713
    66   1      5.9399026478788937      23.064402966714454      1.4132710029985771
    67   1      5.6103742457348584      24.701624210665855      2.8023107082248195
    68   1      3.7173662462765851       24.21521277114072      3.9375117905645651
    69   1      3.9219425291901171      26.888036994570701      54.105722978340658
    70   1      5.6838563063738103      26.611108126124673      1.4493243481525022
    71   1      5.9899401943951691       28.51871626258254      2.7859236162689727
    72   1      3.9008804914426976      28.069112026634375      3.9632495879023075
    73   1      3.9734965435891962      30.464490204094844      54.244680058996416
    74   1      5.6786510337262346      30.588770082619707       1.758775878025973
    75   1      6.0872723454723827      32.259502207714249      3.2972511828729116
    76   1      4.0575408139304843      32.360324589359308      4.2827676548826057
    77   1      4.2330903307565872      34.459580147054481      0.1391068775637562
    78   1      6.2592291808272993      34.051016336150582      1.7568525940509867
    79   1       5.700433180513782      35.824780649961752      2.8354104740120056
    80   1      3.7541074452005643      36.276753594969449      4.3608758778136325
    81   1      7.6127898455828893      38.219091655214299     0.12337495563917832
    82   1       9.705963579844509      38.233780586618899      1.5007229907818658
    83   1      8.8901860041328948      1.9564738905771635      2.7151385454947219
    84   1       7.214982586325001        1.63232810666738      4.0004025666108429
    85   1      7.5253318060432077       3.644459484558483   0.0004558357960490866
    86   1      9.4790313864864402      3.8216739709115477      1.4812419782845296
    87   1      9.6568091130955587      5.6422339430925614      2.8637973956203284
    88   1      7.5860584431077509      5.7603024823649083      4.4033194105519655
    89   1      7.6075858403313923      7.7659076610006199      53.931957265326616
    90   1      9.1365023278908559      7.6304711220129811      1.2654461619891202
    91   1      9.7315023043337678      9.6067636679699238      2.5973415936372266
    92   1      7.8341029077742137      9.7187545533061677      3.7330823917060689
    93   1      7.8488822265042923      11.335635920212491      54.085318130071762
    94   1       9.897067034690366      11.477343222006914      1.2041046986176862
    95   1      9.8709402919600393      13.416063430974997      2.3276924382153066
    96   1      8.0406944905654676      13.456614125654795      3.7621610853440419
    97   1      7.5948517386258452      15.246493705093256      54.153020821500533
    98   1      9.6190891962094742      15.377740694989116      1.2008168869633202
    99   1      9.7618248927895781       17.17164049808931      2.6742006976328634
   100   1      7.6663352761262731      17.209184803828389      3.7833434345001016
   101   1      7.8059191187811967      19.134786423202819    0.047168132749050073
   102   1      9.6426381827552081      19.047475101216307      1.3978222554375055
   103   1      9.7429364641218399      20.994024024082236      2.6454571758983993
   104   1      7.8016412610701416      21.151359985605396      4.0047922465597248
   105   1      8.0157612313799422      23.579750294736467     0.31206417755412308
   106   1      9.7075457986850004       22.95569201580761      1.7033352707469918
   107   1      9.4138571262560919      25.119740387617433      2.4899324748298559
   108   1      7.6107506386445793       24.83433603098619      4.1136843416076294
   109   1      7.7780537104473959      26.755249758598161     0.13541013184731149
   110   1      9.9783113867019964      26.878860391869463     0.83979409642550906
   111   1      9.5828177863513471      28.611127256395541      2.4211290222938291
   112   1      7.9739303480669026      28.736344514303351      4.0212427320889104
   113   1       7.390690452097342      30.474719161742261    0.086510038409141871
   114   1       9.298159002231829      30.691427981074234      1.2012425752440865
   115   1      9.7865993974099172      32.318872565712866      2.7233751371849944
   116   1      8.2403907052504071      32.336149382057691      4.1660481622153176
   117   1      7.8887737785898748      34.443418143510414    0.026424019788294138
   118   1      9.6628406814803505      34.201861702559071      1.5372102804022685
   119   1      9.4310340773140844      36.275943046748736      2.7170580536039455
   120   1      7.4905999531551934      36.246947780500648      4.1665506180562604
   121   1      11.508067965617771      37.942285514794264      54.299926572777395
   122   1      13.294341333537352      38.040649803215302      1.5126232195643774
   123   1      12.930691263647784      1.5089800980997963      3.1246106823506459
   124   1      11.023842798358947      2.0631131667745195      4.2738129501569011
   125   1      11.558179218025762      3.4731357633143736    0.042086955848094486
   126   1      13.073415924400493      3.1976271832611123      1.6790312087624906
   127   1      13.649034395706883      5.2810191423058708      2.6105459636558739
   128   1      11.554513125216028      5.5682293835541028      4.2893622377778708
   129   1      11.273419336074182       7.582916938538097     0.12384374645347394
   130   1      13.300362047595959      7.2146791945374691      1.6745944439950116
   131   1      13.416453120345439      9.4141173238368498      2.8434279709269643
   132   1      11.341012597718711      9.3391135629043056      3.9586137566557795
   133   1      11.618145901804773      11.376824024106201      54.043577288983158
   134   1      13.380228368129746      11.462269338617933      1.2712206303776699
   135   1      13.605061830981811      13.157288712923364      2.6395773859336376
   136   1      11.670457230733469      13.337553916733864      3.9854216752731628
   137   1      11.711661936884676      15.407113569479192     0.06519752332525261
   138   1      13.650684735182715      15.247250502898741      1.4135497830903072
   139   1      13.716215983088805      16.980737135534337      2.8840201696209751
   140   1       11.70976745508422      17.389175672833897      3.9667102845144426
   141   1      12.210110020984947      19.531716207374366      0.2678975858742777
   142   1      13.717591704389889      18.909147422181171      1.9288850857847382
   143   1      13.705101763333719      21.029909756882702      2.5182223247078008
   144   1      11.789795215990635      21.272405281464454      3.9674164624669492
   145   1      11.614759405807144      23.367998590949572      54.220496862329647
   146   1      13.524342707992547       23.09848127303696      1.1349443101336869
   147   1      13.128308089713064       24.99241443545554      2.3533764501692653
   148   1      11.400169474070834      24.812697579825951      3.8772810935622037
   149   1      11.858955755351849      27.171122761870116      53.627682689969767
   150   1      13.732646455972283       26.92145770778545      1.1478331830679402
   151   1      13.652079818196404      28.566985877705076      2.9414347230355111
   152   1      11.566222775606837      28.504377968299977       3.934571776782124
   153   1      11.322468517311375      30.856871475497368     0.16980728114783664
   154   1      13.174525221949219      30.414265924525232      1.6877742407887781
   155   1      13.625213877493319       32.52135014169405      2.8500679023555655
   156   1       11.64176303957651      32.738608159512587      4.1328623514011582
   157   1       11.61382837575781      34.375173505262268     0.10666952120654979
   158   1      13.466895647431654      34.279814804902429      1.6285451463578411
   159   1      13.436859625041144      36.256268136915409      2.9342096768538997
   160   1      11.383768790964641      36.466283377527226         3.9452131152451
   161   1      15.422598736521397       38.08326369586991    0.081135458190953982
   162   1      17.259150191513303      38.081302452346925      1.3384533123108096
   163   1      17.075361662055183      1.7087041347951806      2.7317885641471329
   164   1      15.067562450460441      1.7593877731267109      4.0715301721080071
   165   1       15.19615819362105      3.6714323585097275     0.26216669128715459
   166   1      17.341001552955145      3.7132036970838227      1.3076767513436962
   167   1      17.375163723798043      5.4351627444581156      2.9106427699714232
   168   1      15.364933192794103      5.5358849219484352      4.1866487280634592
   169   1      15.306335339661006      7.1625908988860525     0.35176731277383599
   170   1      17.302361308898512      7.6727334809064907      1.6234534204291526
   171   1      17.697731743621066      9.8224661957105308      2.6247145190092174
   172   1      15.672890175366483       9.424846757557912      4.0169004960657384
   173   1      15.517314420298339      11.302016287164024     0.22328344078313186
   174   1      17.276799359759124      11.705759967922171       1.479545759408414
   175   1      17.460103699672374      13.932139003315589       2.757709371902751
   176   1      15.526768198569126      13.191545619090398      4.0827501062692599
   177   1      15.752825424591304      15.311273925416609      54.214930581445806
   178   1      17.988642123182508      15.489679322480333      1.3486919196371012
   179   1      17.446643264784349      17.315005424904186      2.8615135155543294
   180   1      15.541829543158654       17.21305548356526       4.322866977898923
   181   1      15.472637757348632      19.011951763242863     0.13125205357974865
   182   1      17.603618618413488       19.27472670181281      1.5187857179213433
   183   1      17.294360527326656      21.125312707562745      2.9650196208807955
   184   1      15.412622688889522      21.261615856467422      4.1199820656593467
   185   1      15.455812279049335      22.718662295939851      0.1497086515057505
   186   1      17.282744279531681      23.088673306796764      1.5597043955240346
   187   1      17.120936546533947      25.051570896410226      2.7850786134081114
   188   1      14.864126366804568      24.898947526714874      4.0006770096933559
   189   1      15.785473361465417      26.786352011081505     0.10537768864893435
   190   1      17.659703754348765      26.815636347805928      1.5169117059033508
   191   1      17.126822947385918      28.689736610313592      3.1173774158928027
   192   1      15.345241299380687      28.864276126679759      4.4694995430885545
   193   1      15.088556277887037      30.734254619842186     0.19884923544000221
   194   1      16.980481177584146      30.629452034013674       1.371595227496345
   195   1      16.761643606532775      32.542906844028032      2.7245979040954551
   196   1      15.298007108376298      32.722977425117747      4.3697469519786871
   197   1      15.347853254075662      34.555468352584057     0.16663013591476128
   198   1      17.170928109926123      34.360688017748558      1.3664932109375398
   199   1      17.255774876190397      36.279359753215331      2.7404782626860542
   200   1      15.582432823093203      36.733431116034467      4.1979534972436685
   201   1      19.265070170245778      38.244808900696484     0.23171377758403658
   202   1      21.102629922037554     0.13818683893532344      1.4041708959422308
   203   1      21.223881145358604      2.0686555645719125      2.8057056595910446
   204   1      19.080802796383331      1.8702094680856931      4.0088063047182825
   205   1      19.192365981997817       3.862056657935153      54.202188582121444
   206   1      21.285626449594062      3.9479785898340989      1.2210135331001071
   207   1      21.284327648528183      5.3755843876370495      3.1723646325166546
   208   1      19.289103016639739       5.550807901506742      4.1957670734116848
   209   1      19.248063260460587      7.7064256740843469      54.296402706990655
   210   1      21.476652065890704      7.2327969709867892      1.5508105997655122
   211   1       21.23894013814569      9.6470538796645418      2.5041423409035835
   212   1       19.50314766833802      9.5409849945673528      3.8039138373135541
   213   1      19.145194173340347      11.285460815376975    0.067988831568152622
   214   1      21.055911290493949      11.536941664611662      1.3215636169005724
   215   1      21.772007135029501      13.526320133180631      2.7301299047875536
   216   1      19.701177255844147      13.672110331136883       3.758487281147322
   217   1      19.720768456856742      15.160198941974006     0.18835132041584743
   218   1      21.412951909159279      15.830075443211959      1.4345196084670424
   219   1       21.76489104252688      17.777177206016308      2.7091812571807492
   220   1      19.636608486929177      16.985080828013139      4.0249973162128523
   221   1      19.130644254554479      19.130295513462919       54.27258329461408
   222   1      21.087032799840333       19.42898204602194      1.3449706731320472
   223   1      21.210859255278876      21.373124741557028      2.8643443025416553
   224   1      19.170597742305468       21.30236303826684      4.1364586321793242
   225   1      19.092147516530758      22.861489869543789     0.25826778216626273
   226   1      21.464648410949628      23.275478167757711      1.6204000764299265
   227   1      21.136258873448856      25.307693354644666      2.7742287926271283
   228   1      19.095660330231773      25.102747113444103      4.1392534039057889
   229   1      19.148694757710423      26.856816851395774       54.09285290960743
   230   1      20.962012690665869       26.79100353719689      1.1565804317878721
   231   1      20.825640523474764      28.647434542139482      2.6814857294691814
   232   1       19.19597311883048      28.917228556162403      4.2078824619155606
   233   1      19.149448721238024       30.30347154364183    0.023989101906363441
   234   1      20.993751208840404      30.638687038475933      1.4235480438670847
   235   1      23.257502090774103       32.46146740648588      4.0090171944219506
   236   1      21.311570532492663      32.511253318985695      2.7288431404294449
   237   1      19.122956134861074      34.317841809362207      54.287010138696061
   238   1      21.194836351339202      34.429478487657775      1.3240705984110859
   239   1      21.361285252906079      36.511424262335602      2.6336306399803471
   240   1      19.413925350053518      36.444117595448994      4.1781521772612331
   241   1      22.962808646601498     0.22236295941760043     0.18545442376654342
   242   1      24.854130912636272     0.11763064484772516      1.4290270931123457
   243   1      24.874380237278785       3.753527038994088      1.7348825371941994
   244   1      24.980320486155314      1.7591967718961488      2.9800835713819969
   245   1      23.310641246418751      3.7456226687825263      54.235593546343928
   246   1      25.094453129390239      5.6974345914644573      2.8222458713840526
   247   1      27.085390170532989      6.0245590404604856      3.8037681169645805
   248   1      23.220663583818105      6.1703645773372537      4.1845052846653745
   249   1      23.298431943231154      7.5289782370770997      54.192801913978627
   250   1      24.918126499815489      7.4601589150158265      1.3035339184239074
   251   1      25.098566793427917      9.5102782313110072      2.6194316187723845
   252   1      23.128956324619558      9.6702982622864386      3.9110441504659881
   253   1      23.031468889260069      11.525080220397085     0.10537424851856927
   254   1      25.130974331987435      11.762918305333379      1.3155207210292941
   255   1      25.242484511660273      13.591782094098182      2.5087515045452617
   256   1      23.531615797376826      13.392015781761517      4.3131351540457112
   257   1      23.156839279889756      15.367812689433194      53.766437707825652
   258   1      24.794621888662256      15.755684208416346     0.89020410500864888
   259   1       25.11891807850904      17.414509922116238      2.3675993421048225
   260   1      23.686933059547567      17.443718315765519      4.0001700509632663
   261   1      23.224588312342849      19.476447738123561    0.080392696062074109
   262   1      25.088171524405269       19.49349924808778      1.3427976355530407
   263   1      25.350185757200364      21.242903591054123      2.8778339273029681
   264   1      23.277751673233013      21.271802890458439      4.0928649268625339
   265   1      23.051723176694562      22.894421070252243    0.038837565290782548
   266   1      25.038320499431567       23.06090160819684      1.6710416297096258
   267   1      24.999871446470266      25.068364618175782      2.8652002257232532
   268   1      23.122719114060104      25.181879513411367      4.1774435130111121
   269   1      23.152987079471917      26.684438683423764      54.249082958648557
   270   1      24.987645059759277      26.647934659404942      1.2394868861892958
   271   1      24.969326041880077      28.614768126514111      2.6472456917296996
   272   1      22.728177160933285      28.865846412698037      3.8505123329608892
   273   1      22.963695756036007      30.346500256627891     0.41158513203621411
   274   1       24.93746870314985      30.828821261305233      1.3529431048571501
   275   1      25.230253110862922      32.838000534231099       2.763669737671862
   276   1      23.268849787615409      30.502311268426411      5.2340097263699015
   277   1      23.221777289867486      34.123692166987084    0.010864835158656652
   278   1      25.212398354639578      34.843170073038031      1.5725803424602283
   279   1      24.858413246464657       36.72478332585198      2.8924591265544892
   280   1      23.038024069163296       34.41699818917391      5.4650538542363218
   281   1      26.866791248081856      38.257720821658111     0.11842998665007377
   282   1      28.643319181276922      38.216935769325353      1.5590329035212087
   283   1      28.688533605418062      1.8987865974454772      2.8204117334851251
   284   1      26.761660533686392      2.1563165296077633      4.3291363347354928
   285   1      26.832316260770167      3.7951380678938929     0.11833614713067385
   286   1      28.962383386108861      3.6447941970344528      1.2645338492859979
   287   1      28.914572163631398      5.6537615812371937      2.7600094141347999
   288   1      25.099145206409741      3.9312537817523494      6.9862228400257891
   289   1      27.116459489889994      7.4126010027956637     0.20052908940998557
   290   1      29.181038708242372      7.5188905344243047      1.5319969940602405
   291   1      29.040399146958642      9.5245823786263397      2.6519754435620273
   292   1      27.059531669252717      9.5652218843711729       3.982864301321333
   293   1      26.913358374182419       11.26250929208863      54.294676149029591
   294   1      28.671404567695742      11.406344316604295       1.470723747237642
   295   1      28.843229151262047      13.545600279512454      2.5947753668294902
   296   1      26.853746524037934      12.914857134169944      3.9135884591524812
   297   1      27.110215452781418      15.110816961091148      54.092019206882398
   298   1      29.095150690614503      15.463177681764801      1.0252829583805441
   299   1      28.591025300253378      17.629337692277531      2.4317831965089103
   300   1      26.924573388019194      17.247890816835287      3.8464744253969454
   301   1      26.959869561962091      19.577068330945643      54.232408650994429
   302   1      28.959642033467567      19.523560143667954       1.158905413679495
   303   1      28.961448910408979      21.228445537075885      3.0671820711320845
   304   1       27.04451097386508      21.264226253722331      4.3491779652345013
   305   1      26.771561064172968      23.226737895633079    0.064367869941622607
   306   1      28.631738074921216      23.075045087095834      1.4413309904374143
   307   1      28.966142137774209      25.144230660610258      2.5974671817950465
   308   1       27.14789771045557      25.253418790414365      4.0121948442581816
   309   1      27.072363604767528        26.7816125193483    0.032164803266334738
   310   1      28.963213500560666      27.048842883688796      1.1021210568322313
   311   1      28.831784163779304      28.940139998245471      2.6322296562369139
   312   1      26.926465647935913       29.13109047035822      4.0184519984717211
   313   1      26.949517688423022      30.758160565031101      54.273370571722083
   314   1       28.74152203504471      31.030009629226928       1.412636557982748
   315   1      29.070590089721104      32.570202856108786        2.77956122685457
   316   1      27.111059299099843      32.356630672297641       4.196795238495473
   317   1      27.004513372548367      34.861813585307544     0.32338071520271106
   318   1      28.954757745864267      34.356366229474617      1.3950554918437685
   319   1      28.577110894989126      36.408194779176938      2.8749452018962054
   320   1      26.717658041709342      36.416567078887645      4.6145675306927147
   321   1      30.727038277136284    0.014811802769844109    0.068291285024258908
   322   1      32.653281351865388      38.232984249409689      1.5035578563005536
   323   1      32.696543778051243      1.9987057744717991      2.3481172227535714
   324   1      30.702668706719678       2.019856814187674      4.0208150050671865
   325   1      30.641653339155294      3.6478476475123753      54.155946098091029
   326   1      32.587693334927664      3.8784759519202487     0.89749252523160916
   327   1      32.624766322770157      5.3812078169905098      2.5277202466236672
   328   1      30.792084309928448      5.7440639024339619       3.872011800016979
   329   1      30.846068152039578      7.5541285050304827      53.976190492701832
   330   1      32.596545186369312      7.6257430912032147      1.5079345055539861
   331   1      32.507320788058351      9.7083719158942099      2.6016996372257615
   332   1      30.915605283445522      9.5565737945676457      4.3056975756460139
   333   1      30.500389085422736      11.473864837350865      54.188582093757603
   334   1      32.465310729304534      11.531572434495466       1.352808943217553
   335   1      32.352945678808958      13.683853140762455      2.4020075075587668
   336   1      30.530797196214333      13.869814370434582      3.8829320219541823
   337   1      31.018436171215377      15.140473211254385    0.068789996069131137
   338   1      32.654993498606935      15.923754160576044      1.4079710335249027
   339   1      32.562046173654593      17.660474861244282      2.9498210845859241
   340   1      30.366773038758776      17.464225060798146      3.9089998087239115
   341   1      30.689036257394608      19.550060753886179      53.889433649617885
   342   1       32.46695110175844      19.416419567281945      1.1226815276164759
   343   1      32.499127814118296      21.312727015705338      2.4392639502796651
   344   1      30.787175227414632      21.486239023578982      4.4620608171535876
   345   1      30.917946931671274      23.156207844298784    0.093361071640060619
   346   1      32.956853568966089      23.168565587802643      1.3723895596097224
   347   1      32.560271155294245      24.889538343402801      2.8987371775094153
   348   1      30.551275953111539      25.082551713005053      4.3236211803599858
   349   1      30.786829356761665      26.582660910357077       53.85352899499339
   350   1        32.5068254346182      26.702215962781857      1.1965986649146534
   351   1      32.673541448102213      28.669183389890541      2.7617894122961864
   352   1      30.479308037772963      28.607992520853536      4.0179866852590864
   353   1      30.839797066572629       30.42677118249291     0.14344000409278146
   354   1      32.745868754645549        30.7771245817246      1.1756786668293902
   355   1      33.275986241450703      32.833788445099728      2.4960112406202932
   356   1      31.001909649227684      32.547445336320052      4.3099324739952953
   357   1      30.691002941616915      34.482375339250865      54.152736693643803
   358   1       32.74918814728332       34.41645687498518     0.64843017840817152
   359   1      32.419312302623901      36.498290827925423      2.7319407480970193