dump/Si_1400_0/steps_11 (written by ASE) 

4000 	 atoms 
1  atom types
0.0      38.395898218429522  xlo xhi
0.0      38.395898217999999  ylo yhi
0.0      54.299999999999997  zlo zhi


Atoms 

     1   1      38.212200737381458      38.201270044482513      54.221553908516213
     2   1      1.6598890088699614   0.0057263665853856506      1.4399384075300106
     3   1      1.5181287563465737      1.9681978880179454      2.6384498148244462
     4   1      38.005895391648593      2.2357007959893069      4.0082425094470748
     5   1    0.086894540849369026       3.982390219166223      54.225999415957318
     6   1      1.8167127361076925      3.8884663323064106      1.3231012730517575
     7   1      1.4390452516976013      5.5974575219455245      2.8447274141454253
     8   1      37.897097321015238      5.7397897703733705      4.0074722905135456
     9   1      38.186010222451593      7.7336310099154932      54.169782447295127
    10   1      1.4423214109849809      7.3216968830297313      1.3962598375011885
    11   1      1.8959597884508022      9.3300995594595904      2.4984427721342173
    12   1     0.16055107208014935      9.7113708812087864      4.1441958799672642
    13   1     0.10222587253498752      11.718156674377871    0.038002770339221587
    14   1      2.1402221649197304      11.298831917115391      1.2857371991770943
    15   1      1.8366481337280556      13.352280810797401      2.8573972838343238
    16   1     0.12607698781768095       13.71468108849016      4.4361857002102987
    17   1      38.171996314300316      15.757659280434225    0.072854023496472339
    18   1      1.5673721361906299      15.468188127644526      1.4978475433131941
    19   1      2.0459144344605451      17.327551002857309      2.9794289288811369
    20   1    0.064695945977151448      17.460562145154309      4.1258559762173581
    21   1    0.062684965181966132      19.533545674541049     0.04635635501911109
    22   1      1.9926438404389799      19.058782420640345      1.3409024495060726
    23   1      2.2057787590844353      21.055823074624637      3.1646271482953354
    24   1      38.385849105149454      21.091723520079224      4.1891486082202496
    25   1   0.0042378358581438994      23.279243267564993     0.13697829494190059
    26   1      2.2003461675056553      22.677987262915099      1.4876207298085995
    27   1      1.8965480198182565      25.234671997632081      2.7138252341683464
    28   1      38.136469852264312      24.447218376263674      3.8678375958632407
    29   1    0.053188787545318625      26.709163063977236      54.158637655964611
    30   1       1.870380463090112      26.880624126097619      1.0592094921690216
    31   1      1.9381454251851209      28.738195562325103      2.7220660396755529
    32   1     0.16883910439327726      28.518089865624432      4.2688462484399592
    33   1    0.069958663444936314        30.8709396012176      54.237679037266219
    34   1      2.1744332741305294      30.851627863890219      1.3297675616722586
    35   1       2.029305831505487        32.6861346681182      2.6874462142328062
    36   1     0.15082675553107755      32.517995843415861      4.1431978676027619
    37   1      38.252157614759071      34.398598010077677      54.153634301379057
    38   1      1.9087642682946724      34.452838396854872      1.2623977864182172
    39   1      2.1652028123839253      36.435771987851375      2.6982311723187404
    40   1     0.19378158301045398       36.38723691834808      3.9149732338629653
    41   1      3.5801880616812625      38.189038073056551     0.14140048926469706
    42   1      5.4897680927462487    0.022280815592625482      1.1923100128192121
    43   1      5.4936782421237114      1.4675832409707827      2.9933322915739859
    44   1      3.3329123392406306      1.6081332388440017      4.2553595624344336
    45   1      3.8339240439561304      3.7266386688067854      0.4255948971268253
    46   1      5.6790313447253782      3.3956656082671457      1.6833430282733939
    47   1      5.3240080481789382      5.5375422188305796      2.8777402774426486
    48   1      3.3321636319013557      5.8291790778722135      4.1952314010390745
    49   1      3.4923154918497525      7.7182125217636228     0.29704133479247041
    50   1      5.5475335291079668      7.2168272778128868      1.2786088381912342
    51   1       5.533200933508982      9.0658203613677646      2.7181788061843579
    52   1      3.6413047029829104      9.1092213159833033      4.2198319061765011
    53   1      3.6659702712633493      11.722681912952858      53.919728875680462
    54   1      5.6827050024030266      11.150576284530231      1.0889231982320657
    55   1      6.3021537665747847      13.255311932777563      2.4129200369662058
    56   1      4.0464826064107431      13.224581223755187      3.9216927385381397
    57   1      3.6894552528946858      15.077246480894518     0.20992481413958308
    58   1       5.901932908239278      15.365286394566176      1.4027643515017758
    59   1      5.3439720948210132      17.358704187222905      2.6649925715115077
    60   1       3.796374232387743       17.18133523906123      4.3751858805042509
    61   1      4.0699266773832443      19.369873092299478     0.24080786495394463
    62   1      6.0497785643723629      19.375396788951729      1.7212196873505714
    63   1        5.86217704181146      21.327111045422708      2.6916685848724216
    64   1      4.1248452508892024      21.225685242444584      4.3542253054569429
    65   1      3.9660174764597182      22.745212706228905      54.265385496308404
    66   1      5.7965614071568732      23.086117660230396      1.2235260726346477
    67   1      5.9653155262623905      24.662613740931246       2.855468974186977
    68   1       4.113449659726605       24.99590326128904      3.8574778057256136
    69   1      3.9144223552294726      26.473481143476182      54.212771615159262
    70   1      5.8440934168688692      26.505904483229564      1.4057994254789021
    71   1      5.7858508779556237      28.596676171234051       3.028041160852331
    72   1      3.6764879456868433      28.711658590611101      4.0871345517312756
    73   1      4.1791415792617732      30.543713832362617    0.016841174150829346
    74   1       6.008490111637605      30.300363246163659       1.464612790579586
    75   1      5.8650523187413528      32.402660921424456      2.5457658623325101
    76   1      3.9251670278622233      32.539692695359342      3.9674654257456616
    77   1      3.6219271275264031      34.195926844688501      54.023981718803221
    78   1      5.5795783978517273       34.29457815922671      1.3186511191607693
    79   1      5.5420594029392571      36.371132732129446      2.5415564073138062
    80   1      3.8704886657961803      36.466706955636482      4.2143948218374705
    81   1      7.5819912412779615    0.070593751271656804      54.120360339552363
    82   1       9.633801049170863     0.20320732482159787      1.4427211764597714
    83   1      9.3020665575127968      2.0466325505221161      2.5057828636499826
    84   1      7.6165036472928191      1.8111787034219216      4.1725495945074256
    85   1      7.5090541001845077      3.8769540172544703    0.073869289133119631
    86   1      9.5062104615036649      4.0488116029491383      1.3370335694059827
    87   1      9.4207746183417047      5.9669353881669815      2.6755302373019414
    88   1      7.5781899998715447      5.4686033016775371      3.8022959008688764
    89   1      7.3747370212780776      7.6942726738309632      54.262711857047783
    90   1      9.6253078654041957      7.8631418190937437      1.0786398203316721
    91   1      9.5743378392297895       9.500209444662751       2.765726952662046
    92   1      7.3143960560763199      9.4968265932773441      4.1568895192606545
    93   1      7.3227667097484836      11.778477999376785       53.78482310402152
    94   1      9.3297965022986205      11.441808969617204      1.0224762260820397
    95   1      9.4293298442693665      13.223224704469319      2.5540073042467606
    96   1      7.8994966849682786      13.498422986681948      4.3112993966213482
    97   1      7.7505860913247728      15.810826275354993      54.250454143548026
    98   1      9.6607055950484355      15.488524775303953      1.5205469278208863
    99   1      9.3915106481426083      17.477434192017139      2.8970268702410977
   100   1      7.2559251931831339       17.16703618064145      3.9869396583892898
   101   1       7.638487807854788       19.66227984384718      54.258931901699277
   102   1      9.3208517728467548      19.242627656266041      1.2436587015880822
   103   1      9.5716308663643783       21.32837146180875      2.5831929281215569
   104   1      7.8056445730847352      21.410020448279983      4.0889888929427363
   105   1      7.6627690340459518      23.263453427392733      54.200811927298687
   106   1      9.5974690631821247      23.249916800230032      1.2352568456755437
   107   1      9.4862041381857729      24.931176423607425      2.7933476716547254
   108   1      7.6921319473593135      24.884265996091592       4.417974315021671
   109   1      7.7364895798903888      26.860490712164374      54.158113138247224
   110   1      9.5035774327469937      27.144561348321712      1.1744825029151134
   111   1      9.6535556881125615      28.870293237310861      2.6389914173783358
   112   1      7.7181853463578234      29.134654423978123      4.1149902760211932
   113   1      7.6673630350450335      30.926680540527006      54.233775281359819
   114   1      9.8097719494345359      30.706253497115394      1.3076193544492987
   115   1      9.5957040270953637      32.798315680615715        2.62955689420895
   116   1      7.6029406366081389      32.769855205853638      3.8468765981619395
   117   1      7.5806207548722542      34.773529874364328     0.10016860230205102
   118   1      9.6706119220888169      34.668870359738492      1.4193516340817034
   119   1      9.3543384957176894      36.590734935641663      2.6695453458415517
   120   1      7.4527744735336618      36.720133409274169      3.8753718418218663
   121   1      11.269027953809921     0.21190311927375299      54.232681366736649
   122   1      13.266012134005946      38.382007081312075      1.3829157197061832
   123   1      13.499561017199273      1.4272025071672485      2.9487072873693352
   124   1      11.254739592711957      1.9622178917982909      3.8669406053024415
   125   1      11.375075511722674      4.0110182561688434      0.3171992382704617
   126   1      13.238320919411308      3.3842098247761894      1.7469857616081306
   127   1      13.130556746125833      5.4882724120804429      2.9580217360073107
   128   1      11.047906328727002      5.7695758024902517      4.1344142090807035
   129   1      11.756795448148326      7.9403286217119886     0.19783581339726222
   130   1      13.516982883380706      7.4486486205114018      1.4810906538594861
   131   1      13.515659109866633      9.6281810941044679      2.6487861484435284
   132   1      11.748214058137259      9.4467724400477557      4.1711937189069452
   133   1      11.520919063233212      11.676631101184817     0.12817644593319555
   134   1      13.756626965451696      11.333375825112141      1.3243799715931566
   135   1      13.426488262306437      13.234776745184119      2.5487202704013265
   136   1       11.31574329947901      13.311963405560958      3.6921080782178826
   137   1      11.578965244334421      15.193829499343217    0.012251884963222879
   138   1      13.419536353188709      15.257527553226682      1.5149357716161704
   139   1      13.195102563236114      17.320726866093487       2.591613841008964
   140   1      11.240675053892689      17.407232385373604      4.2888955827286397
   141   1      11.480968322108691      19.472983205483757      54.179628221172443
   142   1      13.331311294418759      19.259808033497315      1.1748774660485413
   143   1      13.287777754044026      20.848833783627803      2.7395895246502615
   144   1      11.385883173784128      21.178240633309468       4.272916390614772
   145   1      11.464445335666602      22.996387837756455      54.140684315919607
   146   1      13.114421658249345      22.884063837787782      1.6722723607272332
   147   1      13.202673478415441      25.282901299783873       2.491057745763273
   148   1      11.540612356405882      24.960361696391416      3.9910163279711686
   149   1      11.599178291003145      26.827862580825681     0.12812943882278216
   150   1      13.688513930301406      27.031507568014014      1.1132961213766281
   151   1      13.642258771114793      28.928671251164381      2.6342428684626737
   152   1      11.864175323026158       28.77276473027354      3.9052348589470069
   153   1      11.474688697114994      30.633326790093772      53.942530586230617
   154   1      13.113501908311981      30.807671867409784      1.1759395426176273
   155   1      13.446590572669802      32.573578720601546      2.6293403276904521
   156   1      11.418226285384385      32.613883474745954      3.9627300128031129
   157   1       11.40345703518248       34.78270836394033    0.041367745502509504
   158   1      13.389345563794327       34.83645994400559       1.333388535657523
   159   1      13.242247841852533      36.504468428487989      2.9676367012860596
   160   1      11.140999635933428      36.468120554326276      4.0119084249545711
   161   1      15.174805773616821     0.25494192181467434    0.030166336415095404
   162   1      17.130284980302861      38.284433685690601      1.3191003036537283
   163   1      17.149531963471404      1.7136286010678801      2.7016078558420058
   164   1      15.379138531344651      1.5734798084915782      4.3643220048885469
   165   1      15.341377965226103      4.0272679649913163     0.47836682285375226
   166   1      17.222142947552619      3.9719844811954901      1.7670730983894936
   167   1      17.284267617243689      6.2978739680181182        2.68409832967179
   168   1      15.374891363465634      5.6025112479827008      3.8428856458165361
   169   1      15.247237041158421      7.5951745597853968      54.277042991215538
   170   1      17.391354150185926      7.5913521185978681     0.94536158805664261
   171   1      17.244317184047013      9.4062738669299257      2.4682348109497738
   172   1      15.362520616657736      9.5359007362218016      3.9988010624280279
   173   1      15.710927628590666      11.253221941950988      54.171514187388198
   174   1      17.269933745889414      11.453000700477132      1.4402440851657603
   175   1      17.206653932377151      13.612789469877688      2.7977232465437742
   176   1      15.298314272195794      13.619100571601408      4.0692593908833583
   177   1      15.147195491071216      15.520338687278606      54.196269497864236
   178   1      16.966373093671574      15.328243191691019      1.3861535509059306
   179   1       16.87406108356733       17.28168672880895      2.6644994531222879
   180   1      14.834311265379922      17.347112036545461      4.3891206826325186
   181   1      15.295709554234818      19.236619304019467      54.281491551212198
   182   1      17.146166859145072      19.243280389039697      1.3017467954815301
   183   1      17.139363214373116      21.272639482966586      2.7204510853595356
   184   1      15.160985340180297      21.291111058711838      4.1108830125464575
   185   1      15.172570893267419      23.259966222419958     0.13851212202055171
   186   1      17.121176045850127        23.1316628896124       1.371275095552231
   187   1      17.040247339185477      24.947007622211302      2.6583278565125648
   188   1      15.064113869720186       25.02671096932372       4.017919833980292
   189   1      15.495413084068543      26.549073088742102      54.006979597499921
   190   1      17.256680679523985      26.944780540154639      1.3037677706361683
   191   1       17.83355873314467      28.845623605027644      2.7009160766020641
   192   1      15.731962691313534      28.941908650588687      3.7486050149199035
   193   1      15.213993159203104      30.622639038996564     0.11058909014159338
   194   1      16.888976789122491      30.821708024425973      1.5386728335398272
   195   1      17.184029375151731      32.820695634115552      2.8311655114530616
   196   1      15.190118353120395      32.554969009936308      4.1874314986154451
   197   1      15.438508683738629       34.80970683953521     0.27529024993849616
   198   1      17.212003853402155      34.794698097193518      1.5652425351254935
   199   1      17.140220918714206      36.507935522254655      2.8945327475334097
   200   1      15.270516029206389      36.391012272990686       4.065166981635091
   201   1      18.936591297107377    0.022962140968953989      54.185422530207575
   202   1      20.801795059208839    0.017160888376124572      1.4146463070768138
   203   1       21.34876130386338      2.1732218209909639      2.5628052218930857
   204   1      19.397712781828634      1.8240043539140696      3.8619422522366325
   205   1      18.974869028461615      3.7973724692817621    0.025059215302837858
   206   1      21.113534494893038      4.2663636387318533      1.0870749543349802
   207   1      21.125023520350926      6.0194121969999976      2.3908663717290537
   208   1      19.222289563067253      5.5879875838913735      3.6939515613097211
   209   1      19.337957167887165      7.8397934333764852      54.083001762392641
   210   1      21.055854795329239      7.9363147880711029      1.2008167798460361
   211   1      20.892196218059869      9.7676472853789633      2.6169836967150539
   212   1      19.089964547371313      9.8491918516861858       4.034006542185737
   213   1      18.904534020351335      11.987994972183943      54.119636898101824
   214   1      20.516982698625068      11.491213990912044      1.3440398613257238
   215   1       20.95445054287195       13.88501653167441      2.6143998526080265
   216   1      18.900539351757448      13.491372169458224       4.330515545322827
   217   1      18.899509355498111      15.544958748860036      54.299754595032404
   218   1      20.994807613162202      15.541927648718495     0.82090435619037372
   219   1      20.800852572339256      17.201546240039232      2.5568172034376624
   220   1      18.863003210756503      17.198566403336105      3.6961575227183423
   221   1      19.210503478186137      19.462397958023555    0.042765370194319974
   222   1      21.052764317689569      19.268198382974333      1.3430577898799452
   223   1      21.230859848025897      21.268059037213185      2.5352428130017515
   224   1      19.388836497496726      21.321598463623801      3.9514759213152386
   225   1      19.098198174227996      23.168446922313048     0.10086382064143883
   226   1      21.062046582821033      23.235019839318493      1.4097458034466976
   227   1      20.809219425355298      25.302825803595407      2.6239185408071415
   228   1      19.079037699281109      24.691920904408729       3.971591059958175
   229   1      18.968706682516199       26.94981473545344       54.09172999804457
   230   1      20.942040558494487      27.013917220195683      1.0845446086939676
   231   1      21.419608797459727      28.585513515111771      2.7773258352868315
   232   1       19.43567007651404      28.847232600799661      4.1602952650452947
   233   1      18.924369017640259      30.294163503711722     0.51616306626543762
   234   1      21.330260607664506      30.682617325538232      1.5505982326124912
   235   1       23.18897995972149      32.284006680216486      3.9760765948821266
   236   1      21.167086895230963      32.786711399332958       2.698741922187081
   237   1      19.091243232691383      34.298912612657062    0.010794988985037418
   238   1      21.003537266445264      34.715718349645101      1.1111387914930337
   239   1      20.877457133798437      36.470946434202666      2.5685614429398576
   240   1       19.14274910634138       36.54239487469107      4.2565813542578343
   241   1      22.859493367819596     0.03932750929723091      53.956932416247504
   242   1      24.501081184891039    0.027914132889666054      1.6261831085959915
   243   1      24.663732776224339      4.1292646099110595      1.8772518175899005
   244   1      24.660574179573238      2.1347860980579614      2.7952897494350855
   245   1       23.32344579714761      3.6644163965138472      54.273877566821554
   246   1      24.957046943680254      6.1511620741767343      3.0975629127925544
   247   1      26.979815109336499      5.7867927411872797      4.1644307744565827
   248   1       22.71497844091634      6.0613149262141777      4.1905049424953171
   249   1      23.126374837817089      7.2135596858580397      54.244489448810285
   250   1      24.834528495037148      7.7960766155295316      1.3949269813878908
   251   1      24.961093902761437      9.5397022987910063      2.8337962874130787
   252   1      22.943250847410358      9.7682758669471514      3.9016330990259021
   253   1      23.143375782393761      11.196528243624666      0.5178776853254704
   254   1      25.377607886185444      11.394617308408671      1.4711093913216378
   255   1      25.048172547782613      13.283159735468372      2.7262997416225527
   256   1       23.03556732738549      13.380068727101468      3.5909101552098854
   257   1      23.013746554654276      15.246375464965972      53.821829589978542
   258   1      24.900043193399245      15.090085160741516      1.3170392118104841
   259   1      25.026707924023988      16.986121341734542      2.8103991063988949
   260   1      22.920688155825282       17.35336312755107      3.9816800642611039
   261   1      23.306671405722486      18.838522709995512     0.23459514631372241
   262   1       25.21930764323762      19.106039096439012      1.4858881051923296
   263   1      25.225187474357202       21.27309007774349      2.8705065947571149
   264   1      23.141720304797026      21.029292413364317      4.0983191919880477
   265   1      22.711057707225205      22.699710834594143      54.100889831678963
   266   1      24.697453960417381      22.667010360185436      1.1839708745892028
   267   1      24.765308511740958      24.678318894053053      2.4773389425714054
   268   1       22.85304674628593      24.907185852793845      3.7962322895197413
   269   1       22.69722352431755      26.528569671248988      53.985763589527444
   270   1       24.55117203238224      26.880948663698295       1.042834783815773
   271   1      25.227651876882543      28.559602691989888      2.4948097059396921
   272   1      23.399839147841707      28.673376074378428      4.2230202246461195
   273   1      23.154157217195543      30.519655049521514     0.10922820979587851
   274   1      25.110300927086705      30.632590347918622      1.4344738662937282
   275   1       25.11052201468182      32.450401009940244      2.7090272287233232
   276   1      23.582303254506428      30.543528839542056      5.3284326581653447
   277   1      23.044462895089431      34.434946064610074      0.2424575109730655
   278   1      24.962920736571807      34.439146128221758      1.2213705353173305
   279   1      24.787628779256401      36.221699644733782      2.4697548101265374
   280   1      23.230471125311546      34.573161472122521      5.1139506099880672
   281   1      26.692255213332825     0.30489328454542686     0.34731800997510626
   282   1      28.593284508123684       38.34662529051613       1.364930817842164
   283   1      28.511474095373845      1.9821546748426737      3.0922812849623931
   284   1      26.546200588588714      1.9154647418259982      4.3862750650805786
   285   1      26.624080630256646      4.3281056274530441       0.409435215900885
   286   1      28.700253106910974      3.9126300092618904      1.6394302822358782
   287   1      28.878157324225761      5.6564398693524147      2.7646701947760324
   288   1      24.815155631269764      3.9500646685932805      6.7864019143617416
   289   1      27.046327813864899      7.9325147982940329     0.15757016438143426
   290   1      28.919738931170187      7.9163643113067179      1.5676267432453419
   291   1      29.157971648308244      9.6081528094426965      3.0947715809310119
   292   1      27.087714804823914      9.6418701107624987      4.0325986751690603
   293   1      27.269553116317496      11.119395056461219      54.264431818921921
   294   1      29.093754982639489      11.245991169752296      1.3783607121363168
   295   1      28.719768177755494      12.981462800701216      3.1935994137748027
   296   1      26.770649562845307      13.636319575474806      4.3185176948029396
   297   1      26.780050488180258      15.306393352821662     0.12742769736670442
   298   1      28.616471038617405      14.835521665731386      1.5018874068170245
   299   1      28.894264556814303      16.812163741450039       2.824541384521742
   300   1       27.01761432134731      17.342368649315439      4.1415595593605286
   301   1       27.04936360965818      18.927750001582186    0.040728895387121607
   302   1      28.815186338429307      18.802849518628445      1.4084827881301658
   303   1      29.003131829861545      20.791326286179515      2.4595028395486014
   304   1      27.276720989139683      21.235904313925001      4.1433366980855117
   305   1      26.700358235159815      23.117988203172636    0.058185638404154263
   306   1      28.859381172777159      23.032904809830011      1.2133238567267073
   307   1      28.987392681769787        25.0266395293859      3.0204789238730751
   308   1      26.663567236195565      25.309522661214643      3.7419994310511102
   309   1      26.709195046079707      26.483279328412333      54.233857502573812
   310   1      28.568746078156394      26.535935091466815      1.5026851099765401
   311   1      28.704468119346661      28.946327018397348       2.037777138015362
   312   1      27.275344021037132      28.744351458840477      3.8415680266801555
   313   1      26.787214995687343      30.627134874403183      54.079027031420402
   314   1       28.78579557686896      31.041196131149871     0.96065431295893233
   315   1      28.691103257495421      32.708240614885803       2.752552115376329
   316   1       26.83696575683965      32.457017140063748      4.0774924285601619
   317   1       26.94667913604804      34.442480036651588      54.190900359379427
   318   1      28.796455096104854      34.685799259512827      1.1168581156170161
   319   1       28.63303320156556      36.439058668603586      2.7820842368567602
   320   1       26.69452078614643      36.427063480318289      3.8228165421847717
   321   1      30.523364047081529     0.17882545360880131      54.031598251976568
   322   1      32.498268072380391     0.24815854973605977     0.98951818464191654
   323   1      32.460302068033741      2.0140762531202605      2.3618957810683341
   324   1      30.806091914422552      1.7685243088048599      4.0121102404871198
   325   1      30.316322378345323      3.9037817855395645      54.254548739570481
   326   1      32.196656711200717      3.9193372658261145      1.3427289929117465
   327   1      32.350487191367627      5.9621174955887701      2.6203383366777544
   328   1      30.673048396941159      5.6050867442284655      4.3563592394180768
   329   1      30.779440625883524      7.9741632210158899      54.196086541369226
   330   1      32.711228968966367      7.6518818916237406      1.1576618162845544
   331   1      32.755584344426545      9.6717065431307354      2.5923928237747402
   332   1      31.117170465899441      9.6174886186506114      4.3281138972472384
   333   1      30.879450647998613      11.811919177895209       0.133060545525302
   334   1      32.946709836565056      11.911065178575088      1.5876340733786161
   335   1      32.782135243494537      13.732544480337912       3.029892623904082
   336   1      30.630301830195069      13.526910135900291      4.4038626906840257
   337   1      30.491876345434175      15.503651334745891     0.15986306893668153
   338   1      32.604981500204914      15.399813082974756       1.318266039263607
   339   1      32.427651949805941      17.245441514677346       2.744830125782586
   340   1      30.662684966105783      17.222277254328873      4.2669312645606183
   341   1        30.6011625416916      18.823007904905115       54.24435290631434
   342   1      32.696285016263175      18.935354242005747      1.3633060678875148
   343   1      32.679638591591939      20.956760366404236       2.977182137594661
   344   1      30.713069660889861      21.211535460770158      4.1622740945672394
   345   1      30.625944841832194      23.165516977732143      54.201036661985484
   346   1      32.521274052537684      22.958714721815419      1.3944806656899029
   347   1      32.773944061636563      25.205907297571581       2.697734884598717
   348   1       30.86418305552764        25.2249154219117      4.3023804358260556
   349   1      30.554166930589382      26.742300940858467     0.25926726745516387
   350   1       32.53066178525399      26.846278848348987      1.3337358994241895
   351   1      32.888411715624066      28.908125790978357      2.4341396955811749
   352   1      30.585686040098558      28.803840033792003       3.765071565776227
   353   1      30.652854309949891      30.758969318201412      53.828253244430016
   354   1      32.410122882629011      30.871634351597805      1.1309253674837456
   355   1      32.861832381075473      32.638888736252127      2.3905159429462381
   356   1       30.62166490003948      32.870557340604613      3.9018044115905806
   357   1      30.734692987945515       35.13191811335745      54.142460107205807
   358   1      32.512970484647177       34.67065276315487      1.1399475838411157
   359   1      32.740804288626158      36.699812152427747      2.3354243747156591