dump/Si_1400_0/steps_1 (written by ASE) 

4000 	 atoms 
1  atom types
0.0      38.395898218429522  xlo xhi
0.0      38.395898217999999  ylo yhi
0.0      54.299999999999997  zlo zhi


Atoms 

     1   1      37.982112473589197     0.02524133085120896    0.023686898828884733
     2   1      1.8359610580025592     0.23551276811270855      1.2485023848446897
     3   1      1.8940356578223858      2.0979485694628401      2.5734482513300572
     4   1    0.018717497069983467      2.0048065245492381      4.2742594451615199
     5   1     0.27282124799115337      3.6632321428071575     0.20073236072396419
     6   1      2.0586514996293497      4.2089333280435479      1.4464517207661189
     7   1      2.1811204426194446      6.1981533128455375      2.7465491420034498
     8   1    0.007966043416188286      5.4878632388720971      3.7938496735965961
     9   1     0.33095489853268356      7.9281431362357111     0.24574078743395383
    10   1      2.5595947841714604      8.0596367166359482      1.0098899211290129
    11   1      2.2930012766112342      9.4768241691319464      2.9388358686745062
    12   1    0.066359686479334823       9.478827531407628      3.8117725865978618
    13   1      38.200459934603352      11.709718543697033      54.265127078865561
    14   1      1.7751945291740274      11.467542991781816      1.3117082380128844
    15   1      1.9838601638603548      13.524038424286102      2.8349526375574463
    16   1       38.13519361334734      13.379600013179283      3.9644675071321411
    17   1      38.288148852211066      15.360625064325946      54.261400970129657
    18   1      1.8261100572163798      15.212770939129385      1.3649967806006087
    19   1      1.8249252684041584      17.340064036488375      2.8033780042428695
    20   1      38.127826068129245      17.221203415057591      4.0253598392173897
    21   1      0.4238774700779645      19.379981720949488      54.292688517244166
    22   1      2.3196893785656845      19.394175195772945      1.5009451912917369
    23   1      2.3739950421849385      21.261170749731583       2.478429505881047
    24   1     0.50771432017448881      21.116508812610356      4.0352119536823707
    25   1     0.04709821229069492      22.922178062322306       53.94337976954538
    26   1      2.0184659660849049      23.116162377248319      1.0408942585693333
    27   1      2.0411296960274803      24.865264090101341      2.7809463522457589
    28   1    0.021867854491970564      25.295794900663353       3.997647736007309
    29   1      38.028686341660588      26.616616322735801      54.288022140869941
    30   1      1.7239222191572827      26.610912550566216      1.2196433347544011
    31   1      1.6967844250037103      28.334602883385617      2.7216636191370194
    32   1      38.188145055104826      28.429365024091943      3.9514599658771572
    33   1    0.024899228884556687        30.3970403753117    0.092090232798557506
    34   1       2.088359322992531      30.045755331253229      1.4347745159915581
    35   1      1.9286615367905029      32.331888329821382      2.7517952534595218
    36   1      38.363147194798877      32.966982222744591      4.0416405122498285
    37   1   0.0035026129057188077      34.854648308611715      54.182426424334331
    38   1      1.7380087354759342      34.596966274466332      1.3853013201346722
    39   1      1.6872876496527873      36.571275412017705      2.3842600721276543
    40   1      0.3006401118217501      36.541028683866209      4.3838242966863605
    41   1      3.6176094014570657    0.021393626001677286      54.129976870964583
    42   1      5.6463294406080653     0.15605553510110812      1.1519759826709917
    43   1      6.1604854790076038      2.2745095021269215      2.5649275811933063
    44   1      3.9346794172795421       2.122233565697297      3.7541558628525555
    45   1      3.8328533206431481      4.1067372141244691    0.058574622872026555
    46   1      5.6775442232077786      4.0744973465450878       1.408152657838206
    47   1      5.5102277007211127      6.2088487741687821      2.5194309665634482
    48   1      3.8871350002580569      5.9340747389963928      4.1715600170673266
    49   1      4.6250272687982212      7.6590338691355271      54.026383075926852
    50   1      6.3615666661159338      7.8310813176230658       1.132455956215265
    51   1      5.9935239924607213      9.7672696589257662      2.8658960803153617
    52   1      4.0281162010124225      9.5229061435518236      4.4126842268767508
    53   1       3.989243008479797      11.592979056987138    0.070360705470966331
    54   1      5.8833949785095374      11.651872479526199      1.4800612909659234
    55   1      6.1486443261120485      13.680123116507504      2.8082254429875184
    56   1      3.7187550755830387      13.474137833115888      4.0949535726333135
    57   1      3.8540519514844807      15.245164832809758     0.15820638360445405
    58   1      6.0544116128536611      15.442087603430876      1.2325933402181024
    59   1       5.457460552111919      17.708684064800792      2.5148115097729802
    60   1      3.8367218652222945      17.346365456380191      4.0406861264243599
    61   1      4.0248185975371147      19.387783197213505      54.171651909004574
    62   1       5.815251976284376      19.642834537791124      1.2300830873029989
    63   1      5.7535340100452936      21.413948735756012      3.0155294838053011
    64   1      3.8016788541788458      20.975796418654582      4.1771717738375189
    65   1      3.8754394944330612      23.148355168890028      54.032650642768296
    66   1       5.731788922607767      23.159849377486033      1.0778484774337835
    67   1      5.6034419887054732      24.762912484020411      2.6494621771954714
    68   1      3.8351508347522416      25.035891943776857       4.049946878609604
    69   1      3.6873142505538068      26.964702031233944      54.148566172196134
    70   1      5.5912772604537162      26.637418384609909      1.3186198777799751
    71   1      5.9309537824127299      28.634957762103074      2.5743211764977127
    72   1      3.8059245382571762      28.777266041049323      3.7777365667709417
    73   1       4.068565681281604      30.474803887816822     0.36942631284268856
    74   1      6.0665334376262763      30.585997351598557      1.3695276809168968
    75   1      5.5299599429515363      32.832582140795552      2.4963131607925768
    76   1      3.5721634730141769      32.702794655027773      3.9437205796820214
    77   1      3.8520710219016521      34.569974210726592     0.16821997816002773
    78   1      5.7661288468308944      34.761234153841144      1.2028687060746144
    79   1      6.0107809210626462      36.625765891595847      2.6417056231343481
    80   1      3.9498022518132734      36.824189621913412      3.7411108921934684
    81   1      7.6997708350134282      38.257202599439843      54.148024328788864
    82   1      9.7160016745481048  0.00012523570212281173      1.4271881367567045
    83   1      9.9953234129003903      2.0474214892569704      2.8201270181994822
    84   1      7.8564145663839025       2.145056551253758      4.1635035151883377
    85   1      7.9256635783614788      3.6923024221222769     0.37607051999302732
    86   1      9.8824710733319474      3.7279046783413712      1.4235586811344687
    87   1       9.700033889476309      5.9923967252450305      2.7632949001242659
    88   1      7.6074743226847028      6.1954069358511852      3.8077655485661239
    89   1      8.2424088866932248       7.376464824764148      53.979760471565989
    90   1      9.7205764818693901      7.6474889398673627      1.4383830616370799
    91   1      9.6464342951987163      9.8529525254439658      2.8162791848926303
    92   1      7.7370146059395912      9.6459790657998887      4.1799229242659877
    93   1      8.0018864240030627      11.198001360272968     0.22126311961062578
    94   1      9.8877378697009028      11.695149033777309       1.554019897993645
    95   1      9.7614908536533775       13.64215343588895       3.002757168477546
    96   1      7.7648770080626655      13.408719448506584      4.4366489569402114
    97   1      7.8155343284412409      15.635616817435061      54.121325956892434
    98   1      9.8262465260927847      15.773334014159902      1.7762713723010615
    99   1      9.4900296440591028      17.391922385286836      3.0588306153711851
   100   1      7.4602629974257368      17.712807222874645      4.4364346037468039
   101   1      7.7508059510935503      18.931972572879356     0.17052602688639812
   102   1      9.6259894117335527      19.194390285949375      1.5090730338810998
   103   1        9.43121067442077       21.12488512516509      2.7425780327028964
   104   1      7.7298587464889552      21.195455060104948      4.1139627077001952
   105   1      7.8481184707074707      22.956707724893057      54.092963952528812
   106   1      9.6284333469385519      23.027690292088383      1.3988437728603917
   107   1      9.4674404256500626      24.861694913419871      2.6946716621351032
   108   1      7.6142807967845121      24.707713314761101      4.2037838228144198
   109   1      7.4561164462172851      26.543798895994097      54.076939820729251
   110   1      9.2626691469997908      26.727711383341024      1.2986290519682693
   111   1      9.7099829886016931      28.827875303685111      2.7220874817878804
   112   1        7.70427851051865      28.512417557128909      3.9455202900905961
   113   1      7.8715547763052216      30.442618028054316      54.056154812433164
   114   1      9.7604845739787098      30.870484105022118      1.1063371355660137
   115   1      9.8690443023638714      32.667212718907031      2.5887975642467951
   116   1        7.43544523427708      32.466970372431476      3.5441306286167755
   117   1      7.8006439874563114       34.30209569192133      54.289418756775213
   118   1      9.8418784618921933      34.619183890406653       1.205391675055919
   119   1      9.8750225121805109      36.379274436340872      2.9097662510966513
   120   1      7.8543284211834017      36.696046038317704      4.0530862262877321
   121   1      11.612678059693945     0.34095003391048728      54.289341972050472
   122   1      13.448778899253199      0.4016155926380548      1.2444811873610866
   123   1      13.749190363339325      1.8921538951972097      2.9569445471104614
   124   1      11.956572728642309      2.0028763638511795      4.3210919740315497
   125   1      11.628533323541353      3.7859396507518976      54.013937630684644
   126   1      13.526182040063793      3.6376958719760961      1.3420095548431643
   127   1      13.690586214598278      5.6568545800279928      2.6288756481933566
   128   1      11.930523400561187      5.5339207329922644      4.3731393703162071
   129   1      11.692052619459361      7.7479454847059204    0.033389275250374328
   130   1      13.026046509881079      7.8955991675539208       1.910377916758969
   131   1      13.308905900273343       9.760607318020238      3.2606145242302884
   132   1      11.222680716523511      9.8934022537817956      4.4300760473372662
   133   1      11.562364946726793      11.471657980503204      54.186831291238732
   134   1      13.310493442393925       11.59280976725065      1.6821843387349411
   135   1      13.374244678766551      13.464711097188477      3.0338203163258304
   136   1      11.487349775300029      13.545760783957878      4.2257728639690386
   137   1      11.794478323018263      15.631347985589333     0.18259757035716562
   138   1      13.614369453258464      15.402673685231331      1.5626100369304161
   139   1      13.119058374766016      17.074051192999267      3.1288969739273305
   140   1      11.213499921982546      17.220546534785083      4.6625607281226618
   141   1      11.613765874103729      19.530581018436031    0.039734517614806453
   142   1      13.303701192466409      19.094446983065755      1.4128818883441885
   143   1      13.620511523193134      20.908247950669107      2.8193064344064629
   144   1      11.474801677225729      21.023228215804139      3.9511803783993846
   145   1      11.355150951304189      23.318231295728093   0.0013202725053474728
   146   1      13.504138781545262      22.562700387150741      1.3063697242560484
   147   1      13.637958120410431      24.789293732435734      2.3108339182129276
   148   1       11.68511884362113      24.853238336118935      3.7634058368301893
   149   1      11.507507331381346      26.731077116692532      54.094281148153136
   150   1      13.426735980750422      26.846387245458317      1.1862717332263295
   151   1       13.57743449257018      28.552749317316302      2.7286580541758805
   152   1      11.765503331754774      28.324573936560945      4.1403115923001659
   153   1      11.840050643624483      30.396691614791191      54.041704483966825
   154   1      13.520958824739148      30.820512369929574      1.7149048452690749
   155   1      13.316718540306155      33.042491737528962      2.7894642281535651
   156   1      11.630761735245594      32.342182271385298      4.2469497403652419
   157   1      11.557333884776854      34.413512725809483      53.912079122731441
   158   1      13.446963129818036       34.75428400457799      1.1821237436883618
   159   1      13.271376729145494      36.771103336630716      2.4311749838320997
   160   1      11.849581065958796      36.385866252261451      4.1416537635429256
   161   1      15.407103964016956     0.14706597106375635      54.278270030381492
   162   1      17.306118716228355       38.20644032685226      1.3709070417721503
   163   1      17.393742936718066      1.9449609695652614      2.4875076863156633
   164   1      15.727479167389134      2.2794479134276115      4.2265130577585435
   165   1      15.248519837109642       3.619260592433339       53.91673067070785
   166   1      17.009193790916559       3.921083431545529      1.2741830482846697
   167   1      17.402834249748242        5.63866942515582      2.8907489760915066
   168   1      15.280340489785221      5.9587453240780137      4.1053230978011346
   169   1      14.935860446520021      7.7469161578359182     0.56419000033109967
   170   1      16.991436017646887      7.6154187187367599      1.4530658468432782
   171   1      16.909440095452812      9.5554970099002841      2.5158547507997246
   172   1      15.445451035360199        9.88882190623025      4.3026688524361383
   173   1       15.22340535099594      11.673319571185246     0.13264090521038266
   174   1      17.231623868276031      11.512359221703401      1.3106062066966293
   175   1      17.034912658420893      13.479037143256646      2.2691913004118049
   176   1      15.496316766374198      13.488828151736637      4.0958702132957434
   177   1      15.190349250610991      15.554440410730686      54.105204514018439
   178   1      17.147126260691248      15.527561212421547     0.98990526838913218
   179   1      17.097667442854519      17.157479381481529      2.8247547767770467
   180   1      15.251121142856785      17.203154434076218      4.0936332173515897
   181   1      15.153216625786571      19.503039775686858     0.15769155824814354
   182   1      17.102086799251136      18.976035989440021      1.5694763414797401
   183   1      17.565580363829664      21.167917245698689       2.851813105869645
   184   1      15.488478113958532      20.834449023409576       4.153580443454838
   185   1      15.237090066066887       23.24382160073695    0.048381062327121076
   186   1      17.127701854428437      22.752718629499125      1.2724374397410749
   187   1      17.628388584403826      24.638188418972586      2.6244495571521491
   188   1      15.448335389716039      24.867796932534681      3.9604122802490465
   189   1      15.594279592892157      26.986713656074649      54.142849002523491
   190   1      17.460508345268238      26.932821524198772     0.92901830784186523
   191   1      16.949089556469787      28.754433965870792      2.2993223830728877
   192   1       15.45181912240237      28.507664737829732      3.9792884463870442
   193   1      15.066904354169175      30.710878557186607      54.064890449483876
   194   1      16.479024771166848      31.024092591295304      1.4013557507267611
   195   1      17.211799739635229      32.674755766497469      2.8061743263549825
   196   1       15.24914700907963      32.583471293552385      4.0275459333390149
   197   1      15.406982596355123      34.871896514526746      54.078997576025259
   198   1      16.982887127604052      34.675422474637237      1.4033395342193991
   199   1      17.266817567662237      36.597507555825743      2.9863078538676993
   200   1      15.281181630709945      36.673867740326074      3.9925079427959993
   201   1      19.096264885619952     0.28006070848951098      54.259266428281634
   202   1      21.129062240552194      37.843802834990598      1.4203820242875604
   203   1      21.003245677755427      1.8851626309925338      2.6395484728043135
   204   1      19.069122565997144      2.0166018181455327       4.190617006768778
   205   1      19.098433552105003      4.1178449204744387     0.34093311171405982
   206   1      21.174091818278484      3.7952223321094238      1.3919645721604095
   207   1      20.890219538739288      5.8834319983156522      2.6739305863617329
   208   1      19.165489619018196      5.8500593672964678      4.2079733668584245
   209   1      18.985041452553297      7.7551673883010537     0.22502150002743498
   210   1      20.898979869326496      7.5341404605730826       1.273062827049696
   211   1      20.709447819188892      9.5185305050239126      2.4640809056387663
   212   1      18.884472265431768      9.8310792270074678      4.1046489354098412
   213   1      19.028892594686024      11.313184330013243      54.137012513900011
   214   1      20.780418173196281      11.385601894680422      1.3133134004497478
   215   1      21.037428874674365      13.492324288454215      2.4968870439661703
   216   1      19.130703401854191      12.873095163375663      3.3994410356849794
   217   1      19.294466711240009      15.023623238774519    0.059169406886007934
   218   1      20.980103611921791      15.343437142026914      1.2581424503848682
   219   1      21.208885668545822      17.175367885792696      2.6527909031214469
   220   1      19.143219034165252      17.256888782125824      4.1186303798188524
   221   1      19.155611373648981      19.295039063144849    0.036646948149223126
   222   1      21.109587665283968      19.178060041259464      1.1471006513928745
   223   1      21.415819636141169      20.987811686813256      2.4576284522805869
   224   1       19.50621331053712      20.855412246682231      3.9298624814806291
   225   1      19.133217283008122      23.035247330976993      54.252415022127998
   226   1      21.307126123945334      22.852903111702425      1.0680725930597323
   227   1      21.080211669714977      24.645525113430097      2.5935411609449486
   228   1      19.456702509835424      24.907461273205652      4.1237707166911246
   229   1       19.58895123045388       26.79924071655757      54.221452869995495
   230   1      20.934978102180953      26.624357200035348      1.6062523540982512
   231   1      21.232552913386403      28.462826875667005      2.9609695236760536
   232   1      18.867825822571124      29.071535713368359      3.8376276781956657
   233   1      18.748186450025571       30.42744856992174      0.2972503905632834
   234   1      20.644490910522993      30.478394861386924      1.7381018147752565
   235   1      21.238201465496207      32.845146788396313      2.7902663717294915
   236   1      19.116733855355175       32.68470065699055      4.0154671244186497
   237   1      18.982507236555673      34.739555212761822    0.096012231762540506
   238   1      21.147183408171372       34.75754667156454      1.2470127404790998
   239   1      21.315711709375453      36.277165887693705      2.9918486160091917
   240   1       19.30826097253069      36.690168213803503      4.2603882933991724
   241   1      23.122829552119487      38.348309518680054     0.18629812090400727
   242   1      24.944989659564872    0.031384008378313254      1.7241179879017741
   243   1       24.99362384966825      1.9562397263137625      3.0066444711332245
   244   1       22.84302456995793      1.9505097007898788      4.2094949210877761
   245   1      23.007552676912894      3.6624145441858307     0.11569215008769347
   246   1      25.081001656257172      3.7107763283857191      1.2332586962623495
   247   1      25.038611075049626      5.4141912304043904       2.856705701957603
   248   1      22.911830216856035      5.7114492778838573      3.9701873909427041
   249   1      23.048556110292964      7.3224280388492895     0.32356132599463788
   250   1      25.146791640101171      7.1318282926950811      1.2507824957613587
   251   1      25.168926078122634      9.5012583496849192      2.2404484681985655
   252   1      22.800935568753928      9.2327207660319726      3.6057014526206239
   253   1      23.026578794735798      11.197828473242058     0.13037997399786719
   254   1       25.23017510984004      11.421465615348732       1.044395131256215
   255   1      24.938872030425639      13.272213533522834      2.6604980729042835
   256   1      23.040839403405272      13.213391668984638       3.798282811025385
   257   1      23.032665330641485      15.268168967032393      54.258424011501923
   258   1      24.993172274042767      15.072776205532019      1.0406077958064337
   259   1      24.818901647146827      16.650434403964937      2.7458401606239353
   260   1      23.052670273223221      17.061478303118211      4.0243930882965602
   261   1       23.22065647898896      19.354116542053465    0.029563549050965303
   262   1      24.937143573081723      18.796154928770257      1.8166617579565001
   263   1      25.082613187655124         21.144052295018      2.3704199932610801
   264   1      23.348551324544495      21.078637227205611      4.0971709443353479
   265   1      23.198663429429654      23.307711513708242      54.286488995133027
   266   1      24.699414357146512      23.230378154466212      1.5226672427563688
   267   1      24.966436551241049      24.974806274394357      3.1399062511020244
   268   1      22.798049284033752      24.770912473063134      4.1504622974862828
   269   1      22.955870908135481      26.819411014699547    0.037362756181437369
   270   1      24.679615925876142      26.634425961187002      1.4994289654188619
   271   1      24.878553341143892       28.92321375814906      2.5737246924413055
   272   1      23.055298612688109      28.958637750484186      4.0679903623992812
   273   1      22.771088525470702      30.604677559168021     0.41652935251921674
   274   1       24.94592019934267      30.784445777097009      1.2909486838905988
   275   1      24.821249252069144      32.916571609201043      2.5810949647335297
   276   1      23.005536479490349      32.640267991213072      4.2047627442329745
   277   1      22.992583665781964      34.517365698288351      54.166168696735426
   278   1      24.885714918222881      34.807781269826656      1.1837055647182546
   279   1      24.977996446195696      36.381997766065659      2.9567126863524757
   280   1       23.10374179995021      36.419148459085463      4.3812622489651636
   281   1      26.662136308615306     0.35627638222684699     0.13371769590527266
   282   1      28.785943092637929     0.13284801439096955      1.2994294300659019
   283   1      28.520402732771224      2.0611141086265081       2.634214515168082
   284   1      26.847493881677121      1.9195317579291411      4.3610355410711215
   285   1      26.913099109446605      3.8987644065147302      54.100497783435749
   286   1      28.778100809412514      3.7794440682085955      1.1612740370184269
   287   1      28.950911119209533      5.4735230663881689      2.8009704970271261
   288   1      26.911595387557664      5.9323684799434417      4.1523393724585826
   289   1      27.132130195729662      7.2006802929388334      54.179827495675831
   290   1       28.87404762279844      7.2471806440486164      1.4561582029365807
   291   1      28.808627238052104      9.3628108639506511       2.541349284549463
   292   1      26.925750411343099      9.6041458345261521      3.7006589596760588
   293   1      26.876550717506792      11.481566334411642      53.833431528646727
   294   1      29.002954429836883      11.267168228682412      0.8242925978489074
   295   1      29.079054533121798       12.95745221770839      2.4148811389108928
   296   1      26.876829464366789       13.21934377601263      3.9308238714690331
   297   1      27.120037025059752      15.449058152459985    0.033028947674836204
   298   1      28.787126063910744      15.196147096328795       1.399963556452863
   299   1      28.851405161662473      17.339536252336792      2.5422753704784764
   300   1      26.942460298494211      17.133484585998378      4.0984191636201226
   301   1      26.408268769180221      19.192557127411433    0.073214171678955636
   302   1      28.720655361274577      19.327456765238711      1.2177942631367702
   303   1       29.30156765165458      20.959508635450426      2.6756118690128252
   304   1      26.904857241138938      20.881279227368363      3.8251370386203551
   305   1      26.818924321113538      23.105261492979238     0.59525493650466887
   306   1      28.966628502037821      23.084182842817388      1.5859362082656505
   307   1      28.985257966895905      24.993502025036094      2.7145610985169677
   308   1      27.170211194134453      25.095120947876239      3.7594192602740097
   309   1      26.854483081307915      26.941003634641461    0.050311720788852182
   310   1      28.767854442072039       26.92048595459363      1.2309828948224408
   311   1      28.774064625985208      28.757556863963817       2.715796308014911
   312   1      26.842405240060039      28.583732810874878      3.9505354186047157
   313   1      26.827800226802886      30.832593905887862      54.276105221341538
   314   1      28.839945352795148      30.923864466407924      1.2425079243513237
   315   1      29.244668910962506       32.78170791229573      2.9643277582286363
   316   1      26.608100295031573      32.958311975232505       3.987224289997275
   317   1      26.712009949350186      34.556925095816062      54.236559119215372
   318   1      28.833719013048881      34.347225882236316      1.4433288801072426
   319   1      28.684582444163649      36.377520301963578      2.6604464911104651
   320   1      26.848308051082508      36.823866064502113      4.1862577716486058
   321   1       30.66837771406799      38.043921560675102     0.37826267576029987
   322   1      32.713782566232325     0.31273438295815176      1.4969989771852414
   323   1      32.572596271089466      2.0371110055216799      3.1405884826682486
   324   1       30.54163054938665      1.9028568563089676      3.8582156246313288
   325   1      30.776605062293818      3.3952993236267019      0.1192428182061802
   326   1      32.832719347825119      3.6220807814919227        1.24913144000667
   327   1      32.674223542003844      5.6823875896299345      2.6657441605812076
   328   1      30.660920891324995      5.8235366707916203      4.0979010265420843
   329   1      30.906982395485244        7.40806543765353     0.26454083765427211
   330   1      32.795243623152565      7.7691531231923658      1.4914135333636505
   331   1      32.600993725387227      9.5885640284332485      2.7432746819086993
   332   1      30.612185734316583      9.3425990487446615      3.8742904620600247
   333   1      31.169118667989881      11.318596186197222      54.227755393876308
   334   1      32.868203786529676      11.418525111488023      1.4814225515928088
   335   1      32.759303741166377      13.306624909093774      2.9934714968561158
   336   1      30.724305791177869       13.47771317525957      3.9504670904630323
   337   1      30.951030207897542      15.195799234291623      54.185234040588099
   338   1      32.748179615238982      15.081172755431405      1.3028385913375107
   339   1      32.880642956300264      17.200005689448261       2.500176080308405
   340   1      30.930140014819397      17.583846049806848      3.6824875919295752
   341   1      30.819082819331371      19.118309818436853      54.183755808457406
   342   1      32.836941785371074      19.038273744217545      1.3177293889272264
   343   1      32.919157826451105       21.18072422278593      2.3910571702501122
   344   1      31.057662208927301      21.039930872886554      3.8705190605100506
   345   1      30.620885241214818      22.904386925382468     0.01523156433419216
   346   1      32.684539538408288      23.035383370775978     0.98614511978399677
   347   1      32.625930504233743      24.784850910745007      2.5318584258801828
   348   1      30.860943210003576       24.92719910653712      3.9485475842736726
   349   1      30.670295369974976      26.833326883418589    0.067508348444187335
   350   1      32.763948276473677      26.744990296535406       1.239537084403378
   351   1      32.730702185236694      28.722461455003767      2.5281482805519673
   352   1      30.772498906508616      28.623554215508999      4.1492258974382468
   353   1      30.729214454798427      30.576802150013535      54.271159641866632
   354   1      32.665089351968909       30.81571579842581      1.4718782147858542
   355   1      32.772204144416847      32.933193804374042      2.7403082389302194
   356   1      31.114065603298744      32.760682148698493      4.3929481936323231
   357   1      30.461297629602967      34.502633138615501      54.158834300513945
   358   1      32.152122070945971      34.645050787522734      1.4011550970019151
   359   1      32.629856594955996      36.260908673796607      2.8906140796070883