dump/Fe_750_20/steps_81 (written by ASE) 

1980 	 atoms 
1  atom types
0.0      28.699999999999999  xlo xhi
0.0      28.699999999999999  ylo yhi
0.0      28.699999999999999  zlo zhi


Atoms 

     1   1      28.591599941283366    0.076227206029729391      28.615490278613208
     2   1      1.4667179350201525      1.6823565389288422      1.4366752116224351
     3   1      28.580938559681062      2.8180944421248353     0.15313934795159415
     4   1      1.5265274408280205      4.4131504747224293      1.3426899990572336
     5   1    0.065747797024393914         5.6234410599719       28.63131357428384
     6   1      1.4494694278045477       7.075826853851618      1.3038591311771137
     7   1     0.10167099272957995      8.6433600123777055      28.641964817731424
     8   1      1.7230111225911624      10.080528784410419      1.4116462373398135
     9   1    0.070726576671939448      11.377322043206298     0.12472668570155759
    10   1       1.495746988789074      12.843695800839205      1.3203790432895954
    11   1    0.059072676002893745      14.192295939020763    0.022176884590612633
    12   1      1.4570449368961695      15.620196339440753      1.3715638438169322
    13   1      28.694700058446333      17.102860542404095    0.020899006009494764
    14   1      1.4327260224046663      18.480085212129357      1.4314738031761187
    15   1     0.18889219079395722      20.096010265687717     0.14630531432553656
    16   1      1.4566978703082665      21.562968461616734      1.5998591590580409
    17   1      28.699663269880556      22.690814983334477      28.640711010927735
    18   1       1.323498080634113      24.455116287693521       1.583584688508564
    19   1    0.028628156472624285      25.703784056334282       28.62923542001122
    20   1      1.1943881704718609      27.390475337642371      1.3127410210613679
    21   1      2.8794377088247556      28.688491188657853      28.649462947768967
    22   1      4.4432088124908686      1.4419567525121917      1.5658225977152358
    23   1      2.9721595696940106      2.8246809171545806      28.668646171748577
    24   1      4.3792738952273469      4.4196198878307404      1.4102399047804957
    25   1      2.9307220384671333      5.8079621444191991      28.604514046502803
    26   1      4.1837612087553593      7.2707577297431047      1.6040937334897298
    27   1      3.1122991659311814      8.6458443863928007        28.6162239757432
    28   1       4.442477761103528      9.9558230707967308       1.375765392206665
    29   1       2.908597334075036      11.439392864717139      28.614947793463916
    30   1       4.151860534687664      13.083270667350979      1.4156855520617555
    31   1       2.800885396828757      14.174702479212888      28.607277603261142
    32   1      4.2092249868265661      15.803896752066811       1.388070493824465
    33   1      2.9574457750857417      17.166236294622419      28.580279585607446
    34   1      4.0433306110288383      18.509794339560656      1.3738351962599027
    35   1      2.7854981890476433      20.195339767449717    0.056915156148852349
    36   1      4.2196941980949356      21.491254785489154       1.409988811569896
    37   1      2.8950363119793194      22.964755543272666      28.621666354500668
    38   1      4.3678341308636774      24.250429095346437      1.5200791636562359
    39   1      3.0214952254737621      25.662739560690213     0.10528217072383073
    40   1      5.6663854743486999      28.344005776075491    0.018642509976154995
    41   1      7.0864619504815822      1.4802712623996634      1.4942786960680459
    42   1      5.5892438935483559      2.8133727704473346     0.13036891476124313
    43   1      7.2135867851870685      4.2707162442879518      1.4180060379772623
    44   1      5.8247670328793335      5.7423873926487099      28.693947148336179
    45   1      7.1831502387267845      7.1288380999342911      1.4826945456521921
    46   1       5.812178618869809      8.4615625152730498    0.096696018989371135
    47   1      7.0863966137921093      9.9738239674412856      1.5667448959121657
    48   1      5.6420973092719109      11.549186064237636      28.566433948957741
    49   1      7.0877273645065406      12.877445546071563      1.5208009365680832
    50   1      5.8295221881201096      14.253064773122201    0.028804475997776479
    51   1      6.9169467720591173      15.819388186009574      1.4644707301579059
    52   1      5.6323747179614587      17.333478211651215      28.600413844665102
    53   1      7.1143022271399534      18.619924056119356      1.3247753531804853
    54   1      5.5082572207814406      20.136052910649742      28.474408640987065
    55   1      7.2129392182802716      21.512649667131953      1.4778594230662756
    56   1      5.7186346028950918      22.835073944132422      28.656736947259265
    57   1      7.2214046324830763       24.25336377506795      1.4234134825463336
    58   1      5.5241037202953516       25.80294273499371     0.08262351357511763
    59   1      7.2787588151781897      27.114628396077759      1.2659131826320391
    60   1      8.6263971668667399     0.08526816938497192     0.12904524417971291
    61   1      10.006960060810957       1.552582361971041       1.457474697466786
    62   1      8.6086008341575191      2.8117967363640908      28.535583252047733
    63   1      9.9602172906312578      4.3347641304413935      1.3429303968737145
    64   1      8.6487819825300978      5.7281766071438431      28.664256994605068
    65   1       10.10666947323908      7.1671103357006851      1.5887511011760111
    66   1      8.5657589872624129      8.6414375389658957    0.010295158976839511
    67   1      10.031163646831589      10.025004471402834      1.5969716237628173
    68   1      8.6252502909639173      11.486384188037484     0.17461867207905479
    69   1      9.8490047719648661      12.960435823297004      1.4753152765006812
    70   1      8.6527018767839294      14.444688107230421      28.651253306077638
    71   1       10.04808255451351      15.877250645439046      1.5292776466072961
    72   1      8.6034204604483318      17.279724911439953      28.655638791120698
    73   1       9.967897802081465      18.595045801728585      1.5168753212340229
    74   1      8.5057292449823301       20.19596380816207     0.07130196452725375
    75   1      10.029151715659919      21.678842031620544      1.3677819331619843
    76   1      8.6558202863242162      22.966437650468336     0.03004256054423422
    77   1      9.9547579980701624      24.507296509240955      1.3352145238964337
    78   1      10.052813546613233      27.226758694461644      1.4787455616359457
    79   1      11.545724604735701     0.11929621365236634      28.604437687754597
    80   1      12.817969359178187      1.5236078088735441      1.4933139986374937
    81   1      11.551453920414126      2.9222321679628505    0.016715108605239948
    82   1      12.916377833804432      4.2766626759078115      1.5549299972251662
    83   1      11.393739488530729      5.7165320962024015      28.684073450479222
    84   1       12.93737552189312       7.032238625324144      1.3669071307864431
    85   1      11.356397050264404      8.5055811670221981      28.649202387123637
    86   1      12.807481022632416      10.054891597794036      1.4122820250212964
    87   1      11.362666502100586      11.536929681388909      28.637269063229017
    88   1      12.823053260613058      12.922861083301997      1.4457938184565822
    89   1      11.352882673070523      14.353812148450906    0.058078328656836244
    90   1      13.067356387288147      15.942871576522068      1.2452387228781852
    91   1      11.552994456398789      17.210403753247242      28.623988543240362
    92   1      12.964516764155315      18.862507008772948      1.2998854760553966
    93   1      11.328852388822865       20.02425772177909    0.021157536200246348
    94   1      12.678386066281259      21.624145182842515      1.3720775874094908
    95   1      11.404326449808527      23.067323135725495      28.640348832184451
    96   1      12.815478234342599      24.519615625658627      1.2775983823691479
    97   1      11.529149317602975      25.901183622045945     0.03435241328138542
    98   1      12.862450663940795       27.48226183952201      1.3878434647873175
    99   1       14.27211465704757   0.0068641230554266517      28.630055570828222
   100   1      15.719045316875906      1.3060467117575634      1.4187118575839928
   101   1       14.38120274423464      2.7353403085666628    0.057194706188511239
   102   1      15.633876759804435      4.2665197715550507      1.3305260440313291
   103   1      14.290440897663814      5.7330213744852712  0.00096591355245436578
   104   1      15.760351051314711      7.1807660345875775      1.5231165945623037
   105   1      14.319547835263416      8.6264584005143572      28.662308535655715
   106   1      15.932582819434082      10.121270044575557      1.4386305978533527
   107   1      14.262356040648688      11.428640328537611      28.629853856107776
   108   1      15.717901566730895      12.924354189308792      1.5541321002216704
   109   1      14.321440832961262      14.378987931671801      28.670351909728129
   110   1      15.929437949174963      15.807236890972527      1.5710836693523895
   111   1      14.560243883207795      17.341715083175423      28.659387795519681
   112   1      15.832744313154407      18.793388090688492      1.4075140047696082
   113   1      14.549069546907106      20.255154839706631     0.20948992731247251
   114   1      15.989978523062712      21.717941569053377      1.4744707423435661
   115   1      14.410849036750784      22.863208852997314    0.081902951848542266
   116   1      15.940360803037635      24.558790722938479       1.266748618701502
   117   1      14.160384789939078      25.848916697165588      28.696062896861967
   118   1      15.729360939574894      27.274220606874938      1.2681945090482929
   119   1      17.075565779784842    0.045089737678815106       28.58449443010716
   120   1      18.637860717472616      1.1659895669195406      1.3858493535364913
   121   1      17.212702539980015      2.9350242437270833    0.052983028120831978
   122   1      18.773734787076322      4.2244109818023539      1.4215556018636675
   123   1      17.288654468426934      5.6052920764172907      28.542313596593875
   124   1      18.473031117606265       7.246767857536117      1.3595284444710827
   125   1      17.045574017165006      8.6827817981107867       28.67013629326755
   126   1      18.581791249146008      9.9354184608330858      1.4304807709522143
   127   1       17.20041212544168      11.389308867040087     0.05667967745578148
   128   1      18.712889555260563      13.004549928905437      1.4828242335117803
   129   1      17.395906002251355      14.411238144625484    0.063258825041248232
   130   1      18.889021446002992      15.642434922897289       1.587441789810258
   131   1      17.421774422870492      17.253315896048694     0.10588478371942085
   132   1      18.692869889310959       18.63960425651868      1.4849509849386999
   133   1      17.373878900962321      20.116486481165687      28.673605587240075
   134   1      18.666768152956116      21.553020292329844      1.5531796039730907
   135   1      17.416965398429905       23.01014225351777    0.025126483462383917
   136   1      18.755796479852918      24.635437276329011      1.5753431187729003
   137   1      17.189988965293196      25.872032022700381      28.586983918353667
   138   1      18.714218580844594      27.308285647736408      1.3435360051015774
   139   1       19.95753415404419      28.607305419115622      28.571743028837687
   140   1       21.60119477370214       1.368444381396501      1.4890991725628853
   141   1      19.999287208938096      2.7482827569159434    0.030144689543112616
   142   1      21.523074568388843      4.3059760201714479       1.457192602710915
   143   1      20.020963021410097      5.7873743587373436    0.084187770312439542
   144   1      21.532956311712681      7.2358892174939715      1.4256718845547083
   145   1      20.008424252759408      8.6174193451799432      28.688924984266794
   146   1      21.399984355274057      10.140072789456605      1.3801020199856686
   147   1      20.104295250634724      11.508425659440073     0.10790504224049767
   148   1      21.621634155720137      12.943561269364594      1.3528858583371528
   149   1      20.267104984284224      14.360157508804752    0.049329115165892334
   150   1       21.59363495754323      15.853084468314476      1.5788733218427511
   151   1      20.081776998541851      17.098801299779009     0.12017879361302446
   152   1      21.659442421784746      18.605827529349547      1.3994079817068725
   153   1      20.092985800515571      20.058035514788283     0.14082365313747675
   154   1      21.614560721037346      21.613891538211544      1.4689129621277401
   155   1        20.0391615493917      23.057106889190706     0.26392187608107626
   156   1      21.586428474986185      24.316935383284786      1.5861369985716576
   157   1      20.087748270887698      25.855479004890935    0.062973492691412503
   158   1      21.481716467624377      27.351084051944017      1.3857488185258027
   159   1      22.752835157104883      28.611892243225032       28.53179154661315
   160   1      24.338282334796549      1.2053003312244062      1.4342387593105728
   161   1      22.977275592849761      2.6582849531331272      28.581019422333725
   162   1       24.24037442886311      4.2773263669507706       1.444646295994892
   163   1      22.784695800290397      5.7236752924374583      28.684824331428505
   164   1      24.203880637548298      7.1792564443214912      1.3768523076307688
   165   1       22.87667632962977      8.6298159895925064      28.652802445833878
   166   1      24.208145788560259      9.8859371231230924      1.4783159926935587
   167   1      23.017992306666315      11.524006954543756      28.570923754754645
   168   1      24.433806366826552      12.788978968912131      1.4786279740101811
   169   1       23.09614703298994      14.194632253197371     0.01547759595146091
   170   1       24.27718341741037      15.703408506682695       1.589536584343751
   171   1      22.879673605591755      17.312761786209904    0.011897104964111794
   172   1      24.292571417490397      18.745662043982524      1.4248993694994838
   173   1      22.914822215161845      20.134279578845494    0.037237925267584217
   174   1      24.383712988136846      21.488791838916725      1.6607735755968072
   175   1      22.922994619637198      22.875520424328055    0.041368244430066141
   176   1      24.428866533459974      24.335477704196439      1.3791613462729637
   177   1      22.909099057176871      25.807989835384628      28.646688353292038
   178   1       24.23880534653415      27.288649669950896        1.27588065390372
   179   1      25.770354783218895      28.626898567429812        28.5402773477837
   180   1      27.179085639007749      1.3287449254310446      1.5351685982095666
   181   1      25.751681791225259      2.6821527855124363    0.036922928544720325
   182   1       27.20622276190749      4.4093423829945104      1.3397971928030306
   183   1      25.692893395116247      5.7880101469049778    0.034836239251217177
   184   1      27.310668006879244      7.2067445977899443      1.2493490623273606
   185   1      25.641497782730291      8.6292260680718869   0.0092093620186688048
   186   1      27.330764505756683      9.9403048303553483      1.4994581611329745
   187   1      25.830632831550091      11.314225442582766     0.11915078894915046
   188   1      27.242220776213983      12.774790381225987      1.2701703426677102
   189   1       25.95693522930512      14.331964264380817      28.542714680343572
   190   1      27.373499072677337      15.629290907972276      1.3710812245003245
   191   1      25.859521229489957       17.05678489025124      0.1592057797597248
   192   1      27.307632328217533      18.530740152585775      1.4461541393643649
   193   1      25.643672079550502      20.047176376793519     0.12593360418849206
   194   1      27.252836458827254      21.481874880888178      1.4376464365503239
   195   1      25.801999374886943      22.813796153127058     0.15968147480144806
   196   1      27.212721316849436      24.359010751487205      1.3560423676903162
   197   1      25.870995943962921      25.801405043574452    0.016749604256983724
   198   1      27.124142904379362      27.433242244491062      1.2401503556974731
   199   1    0.068265408847730941     0.21647213531803128      2.7382544467577659
   200   1      1.3531681961757953      1.4153745223280103      4.2091648768327374
   201   1      28.633215483092261      2.7205796351445652      2.8970603336126697
   202   1      1.4606478822213032      4.3665425804597584      4.4035840764495049
   203   1      0.0220538926808336      5.7241624705194374      2.8251047281763135
   204   1      1.2752828691850611       7.146886504342147      4.4108971285754084
   205   1      28.681500736250104      8.5280047400692922      2.7349754085107176
   206   1      1.2523975439967459      9.9250374513115265      4.3680509458171883
   207   1       28.67626633711113      11.473540803735032      2.7102932631919092
   208   1      1.3340455868867038      12.871466875236955      4.2429195552414258
   209   1      28.685646502968751      14.345034842247708      2.9189385732597675
   210   1      1.3736091873312173      15.836702036300014      4.2550555210906316
   211   1      28.683236426392515      17.076285222624563      2.7958158885005093
   212   1      1.3610974396633773      18.697708435500505      4.5147132955062581
   213   1      28.666258804335754      20.151545946620278      2.8013111798485295
   214   1      1.5565136934519734       21.54596103249764      4.3076818974959412
   215   1      28.571028230433345      22.891664023654656      2.7597423270164994
   216   1      1.5904776782642567      24.304419484363763      4.2251426235368417
   217   1      28.573457775657193      25.936258443521783      2.8488395085375817
   218   1      1.3289057834515134      27.209041099849358      4.2416219595609777
   219   1      2.8396741057683275      28.618885243285522       2.653270791539831
   220   1      4.1529076126914815      1.3212066260440676      4.1147493507513895
   221   1      2.8962587497422954      3.0244610893634021      2.8170738472912502
   222   1      4.4078745590058119      4.3917079531430714      4.1865458720701998
   223   1      2.8570287507196093      5.7365698948688566      2.7923297529336533
   224   1      4.2323513449344761      7.2081203854149942      4.4825382609604913
   225   1       2.766555667068348      8.5056534795096201      2.9462245808205783
   226   1        4.27037578480022      10.013274396062029      4.3584771555745885
   227   1      2.9165053590149776      11.423160421626646      3.0117898859469774
   228   1      5.4827388487648241      11.572395743502769      5.5293050079131989
   229   1      2.8770688954100816      14.331486327108388       3.109136856632337
   230   1      4.3865472333651709      15.830328889181288      4.4018636564837204
   231   1      2.8644118730402952      17.044166803502829      2.9718769910793967
   232   1      4.2637523052086301      18.565947277123922      4.5384072789292231
   233   1      2.9324560979767278      19.979644947211156      3.0015699488224099
   234   1      4.4164606095963581      21.436191066582179      4.2880989885978487
   235   1      2.8534877000584977      22.869775294235886      2.9774961010620604
   236   1      4.3803038685644413       24.47013446761861      4.1391346184680504
   237   1      3.0758204082489322      25.936893391048685      2.8338622025107609
   238   1      4.1522842550521464      27.331036565642126      4.4010780902545683
   239   1       5.653584544666125      28.427130346805971      2.7569859960576868
   240   1      7.2553796316750629      1.2803203485606682      4.2992001415175887
   241   1      5.7628855147296507       2.903571667939536      2.8588070307123981
   242   1      7.1778602227409509      4.1147117691155035      4.3291839747630076
   243   1      5.7009833145985302      5.8781001682908744      2.8943287603837557
   244   1      7.2947563859105227       7.164953494113524      4.3968618733572997
   245   1      5.6094183639837123      8.6275027579168295      3.0192502923184326
   246   1      5.7331185788204975      11.517994010179883      2.8159419798320631
   247   1      7.1973096417613673       13.01513128745496      4.2232013255092387
   248   1      5.6611949062012537      14.264327188350936      2.8535747332813122
   249   1       7.068190824248946      15.861338469619286      4.2241038168109748
   250   1      5.5334783158374767      17.290643241478769      2.6836327725669205
   251   1       7.037846126958228      18.769016892462915      4.5914439522218924
   252   1      5.7864086134187449      19.972610017892528      2.8549748930631837
   253   1      7.0447289169899125      21.348515042295922      4.3694187063466137
   254   1      5.7271146674054503      22.826753962085078      2.8887330147470109
   255   1      7.1254389915279406      24.197897695581524      4.2746848001953488
   256   1      5.8103800831950627      25.877920546881281      2.7919363398858659
   257   1      7.2462780739582469      27.336949671452409      4.3612841003732168
   258   1      8.4928234331072634    0.094787552543391718      2.8113458725438263
   259   1      10.059565077581363      1.2831117526204696       4.406689419144576
   260   1      8.6880724189991714      2.8897664344654572      2.8169762400248257
   261   1      10.083015342982725      4.3150729193069326      4.4362747069091801
   262   1      8.5965729825120913      5.7858152007640857      2.9560283628284814
   263   1      9.9037643458546416       7.225772841364364      4.3156468960644681
   264   1      8.6434436034086648      8.7114557377840196      2.9974288278394177
   265   1      10.050495664630688      10.279753508582841      4.3982262893084041
   266   1      8.5109821840697659       11.39196091678707      2.7952581712173359
   267   1      10.171896009797541      13.030104177095765      4.3730856695357856
   268   1      8.5842006945785396       14.53021241285796      2.8992494943665785
   269   1      10.076134059192423      15.994589826664024      4.2197059257156049
   270   1      8.3871539044332497      17.397546867392599      3.0311356353729804
   271   1      10.105417306228585      18.507788927429104      4.2613087695010439
   272   1      8.6570076542979546      20.096120223739302      2.8766575740388247
   273   1      10.211102974700271      21.596444289584944      4.4386318026547595
   274   1      8.5662710603146692      22.874679057895047      2.8169832898494631
   275   1      10.155965624232454      24.332040479056282       4.324485155453746
   276   1      8.5270057464133533      25.731285875595862      3.0042629511927927
   277   1      10.014850954508582      27.296661714627401      4.2586957953207492
   278   1      11.457901968372983      28.658544661644129      2.9698313766766753
   279   1      12.918081872560323      1.3278140555000717       4.344898897366491
   280   1       11.31658601901162      2.8910299938655055       2.764680552841138
   281   1      12.808867876215681      4.3153368179658038      4.3598244326744817
   282   1      11.372308289281806      5.8361717459538989       2.960049395318439
   283   1      12.890238481544413      7.1030490135213586      4.1236555556639027
   284   1      11.630718849188892      8.7713275653417266      2.8963496063937355
   285   1      12.957439633074964      10.156869569537953       4.307236099749618
   286   1      11.477935888645478      11.465080235036803      2.9678082159493582
   287   1      12.973119308180159      12.923021135499173      4.1796386558299341
   288   1      11.658183308016959      14.551543582662417      2.7182342877874359
   289   1      13.034963772998735      15.813001082250638      4.3428639584025204
   290   1        11.5421658234504      17.216533741244518      2.6824966352513355
   291   1      13.044643977160996      18.617543353578068       4.392529337314528
   292   1      11.529168968708655      20.063044487818384      2.6636729251539002
   293   1      13.140003294164318      21.683829689716244      4.2793529613964276
   294   1       11.30949030486148      23.039653036605994        2.66730761958679
   295   1      13.045252590204035      24.500341657119844      4.2551002952078294
   296   1       11.53826790763037      25.880617940021367      2.9366976161133485
   297   1      12.975900821204114      27.232479443358962      4.3704808958924177
   298   1      14.226725376812526      28.568337050668251      2.8630714144251321
   299   1      15.777914048642849      1.5149846710936918      4.1650491424871658
   300   1       14.28203664090565      2.9406711148386679      2.9254538383161037
   301   1      15.962378483462063      4.3059106804540637      4.3423569204601016
   302   1        14.3785888854015      5.8094442856051431      2.8779608908158179
   303   1      15.913663589460864      7.1015413067071007      4.2000102487243609
   304   1      14.311637143933751      8.6800891764127286      2.9442144320742933
   305   1      15.823745045201752      10.080678053626588      4.3357471318962215
   306   1        14.2577057378827      11.459943796034135      2.7600653246933464
   307   1      15.715217321562609      13.065124368444824      4.2928592240927559
   308   1      14.286197334996821      14.489070602934962      2.7463328178456563
   309   1      15.696950984120335      15.824217700147539      4.2887531140770072
   310   1      14.261483537857533      17.133169294424494       2.826285238394119
   311   1      15.778042162923137      18.775423216603702      4.2599734767007602
   312   1      14.299923831294095       20.18301232563709      2.7876387082827812
   313   1      15.942509714630464      21.460119820318837       4.244771364678857
   314   1       14.39208834727798      23.034582292902005      2.7063858381339849
   315   1      15.864788593243574      24.444863106659252      4.3319903564589683
   316   1      14.308308293219671      25.860075508219317      2.7243930112220593
   317   1      15.588667808092362       27.17643817571108      4.3629998551178382
   318   1      17.098315911228816       28.61269638267844      2.8136267308509337
   319   1      18.597885840801077      1.3667054719808094      4.4897807865612567
   320   1      17.292613252071341      2.7039177316850451      2.8557771513144523
   321   1      18.551905152237353      4.2446731700018319      4.2472736287521951
   322   1      17.319044908788928      5.5410027502105503      2.7797917742457008
   323   1      18.572322834168816      7.0693424526857624       4.317891419469321
   324   1       17.19451187495503      8.6804617374963513      2.8716023144312004
   325   1      18.700185778921949      9.9572980183496043      4.4739532237831341
   326   1      17.275048127598453      11.580193359783676      2.8809235369689992
   327   1       18.59354147095921      12.876208700587833      4.2361636260905078
   328   1      17.228793072602034      14.344941871992168      2.9251442491139623
   329   1      18.574532763058695      15.714475157128126      4.3496887481519524
   330   1      17.371530094498898       17.13915945886437       2.773770056502701
   331   1      18.516394418184554       18.58842491320798      4.2905413587081727
   332   1       17.24797749107271      19.973934004180492       2.792457865314987
   333   1      18.508801132531598      21.583042386352449      4.2887332428424116
   334   1      17.259219666741043      23.019811092831926      2.9316799428857467
   335   1      18.691900786212702      24.544779806867325      4.4194033241985933
   336   1      17.121325752885738        25.9566734214857      2.9856556418511744
   337   1      18.752184707550473      27.261035897388883      4.1703505806683294
   338   1      20.236739242735492      28.636143123506816       2.934220879503179
   339   1      21.658565932094803      1.5630212302993405       4.454337063092364
   340   1      20.307773697806184      2.9057709110442858      2.7786186863775932
   341   1      21.737769557117172      4.1928161857586854      4.3347122910795095
   342   1      20.130500545586369      5.6069236905950897       2.963540586635709
   343   1      21.362863594220372      7.1731091229180315      4.3838246281029454
   344   1      20.069899076887509      8.5556150904470041      2.8577997845004917
   345   1      21.397906019696748        9.98947466633647      4.3233063209934741
   346   1      19.957755082829674      11.368476984064094      2.8151628374080828
   347   1      21.577470358528611      12.851021634428459      4.4294974043053106
   348   1      20.180776605440009      14.222326242500859      2.8378447207095516
   349   1      21.499001126577763      15.676589846849001      4.2969374720738287
   350   1      20.169185696288046      17.300406308650466      3.0409607231010591
   351   1      20.008611914837914      20.115175048782717      3.0049174613183594
   352   1      21.481993883885991      21.681279223680455      4.3471775445473089
   353   1      20.030396731214068       23.04354646766452      3.0117669624265706
   354   1       21.64228081954386      24.347092228069481      4.2039890371535407
   355   1      20.160772462032497      25.778619448151083      2.9607679704034782
   356   1      21.749860441860946      27.097225619167652      4.2977613014554956
   357   1      23.121077228317219      28.675996069951765      2.9009560077795653
   358   1      24.435762064238389      1.3475256473344064      4.2323614541643853
   359   1      23.146513802802261      2.7705851831148616      2.8560445862712296