dump/Fe_750_20/steps_51 (written by ASE) 

1980 	 atoms 
1  atom types
0.0      28.699999999999999  xlo xhi
0.0      28.699999999999999  ylo yhi
0.0      28.699999999999999  zlo zhi


Atoms 

     1   1    0.068315808568755743      28.590649531745143      28.651933957107705
     2   1      1.3473519292364007      1.4095187081465503      1.4003364815342936
     3   1    0.044779073657379972      2.9281687727687515      28.667241532326159
     4   1      1.4390112759720288      4.2499840643805955      1.3685319725895744
     5   1    0.039736181560126572      5.5426425774968848      28.623679224040831
     6   1       1.356530028883856      7.3529828596011289      1.5473420169995391
     7   1      28.677308074023472      8.5154405869742877      28.664266408451368
     8   1      1.4814607409463407      10.134277658868095      1.4209278632234934
     9   1      28.577561245385695      11.568929475144186     0.11726586451246701
    10   1      1.5564964845971323      12.967259237829799       1.443459958874052
    11   1   0.0095149017575872248       14.41184357555214    0.040608055799862132
    12   1      1.5819329041214381       15.64496446653459      1.4256738344765592
    13   1    0.049683282057402495      17.208654397758696     0.14221587010868009
    14   1      1.5725825204406876      18.766374425360556      1.3728138885442598
    15   1     0.18163886606450061      20.044113126444987      28.618405425119334
    16   1      1.5080528206992996       21.47650721121736      1.3654679083749557
    17   1    0.039585373295020314      23.128608621394349       28.50020758244051
    18   1      1.5726947060142054       24.38727203690754      1.2592859028103931
    19   1      28.674607336605252      25.871868381119338      28.593715453530976
    20   1      1.2843926365126901      27.081409642224685      1.4067940954912856
    21   1      2.8766414526531872    0.036035300719870128       28.65564727703952
    22   1      4.2765508568133646      1.6057072561926029      1.4069811664917786
    23   1      2.7551142690929078      2.8611048285520408      28.653651071121956
    24   1      4.0849276196922313      4.2697568808637074      1.3414135026229586
    25   1      2.8627475261832638      5.8113324545333898      28.687273875606454
    26   1       4.480512085913448      7.3050134838236493      1.4755030265935489
    27   1      2.9933261062117351      8.5397866130993574    0.038179377594963308
    28   1      4.3387738963395295       10.17223487213214      1.4174369767181465
    29   1      2.9488522105844432      11.651909306035741      28.559416430085168
    30   1      4.3578378178685595      13.079239605263306      1.3696430819589627
    31   1      2.9474879791323523      14.420757337982877        28.6734834167857
    32   1      4.3852079472383343      15.792253499004747      1.3195318740853172
    33   1      2.8443421839112486      17.120525938444946    0.068917069487576935
    34   1      4.2837571936727628      18.741260585240148      1.4769399542789758
    35   1      3.1494553856001932      20.139806717926302      28.558319517453299
    36   1      4.4735523285554564      21.489187644092066      1.4353050025482055
    37   1      2.9594165473785878      22.742365384130331      28.672177879819941
    38   1      4.3993745881432211      24.371715492391424      1.3218293134462997
    39   1      2.8980998122429349      26.028059806140785    0.029731678322229962
    40   1      5.5503687487285838      28.692818404465029     0.10586873067339876
    41   1      7.0393380810389772      1.5261727906585507      1.4237972161222721
    42   1      5.7857522239263988      2.8835749166942191    0.043488260446724644
    43   1      7.1867393972214897      4.3417560936584465      1.3723104238804675
    44   1      5.6614130328966468       5.646865698916363    0.082326558921670373
    45   1       7.150759336265283      7.1075890996709505      1.4226102204615145
    46   1      5.6936872995469203      8.6474751309528255      28.619897780028396
    47   1      7.1157321293021649      10.202400313732115      1.3762653415948531
    48   1      5.5602369795951629      11.613057931951676      28.599859986809182
    49   1      7.1333533458537826      12.791082248832586       1.385708941504777
    50   1      5.7921680216914897      14.231656284638721      28.616816981787839
    51   1      7.0426525738913286      15.701176951070602      1.3769124304572296
    52   1      5.7421037559726091      17.241414259922607      28.622553930515327
    53   1       7.335620511310001      18.751856576977278      1.5248420413732333
    54   1      5.6807694280796328      20.215258518241654      28.658578561633608
    55   1      7.0633320288443127      21.589340000255234      1.3761998036159524
    56   1      5.8628010470564682      23.022682899019646      28.461116107809886
    57   1      7.1518859579348293       24.66112234286507      1.2493644669710193
    58   1      5.6285173500651817      25.965284581830915    0.018740313275600308
    59   1      7.1954205090440739      27.294570965550413      1.2930576619139391
    60   1      8.5144351826231386     0.11331114016865053    0.086460279624645905
    61   1      9.9194583558709226      1.4884264971217029      1.3168679656700759
    62   1       8.689213451479338      3.0064285657479406     0.12544068301533579
    63   1      10.115778423969623       4.404101177397556      1.3494903735154584
    64   1      8.6617178136155601      5.7922717082786246      28.681798028018935
    65   1      9.9566648756668918      7.0781844882679552      1.5838666467777327
    66   1      8.7372252030928141      8.5060992187015216      28.683008159421565
    67   1        10.2333706575739      10.109157755228772      1.3643047743420529
    68   1       8.750613521152987      11.428652160251778    0.072046150900371198
    69   1      10.254913322564475      12.816319318082302      1.4742283391733166
    70   1      8.5456404827752266      14.333744862017639      28.587434700520422
    71   1       9.986671348313509       15.82062018667067      1.4035259653769798
    72   1      8.5554606024997284      17.190286901384255      28.647534717299521
    73   1      10.083098578556385      18.621218790864905      1.4730936940624935
    74   1      8.6482251948482283      20.164133115054483    0.092277499194278634
    75   1      10.063156652358202       21.59274234659814      1.3564775336053576
    76   1      8.4062069582786201      22.957023461505564      28.518997482794582
    77   1      9.9108882681357411      24.488261468403138      1.4076197731484155
    78   1      9.9413646523099484      27.177171734367331      1.5548626541541226
    79   1      11.536464638032689    0.045120617583177113    0.040177702895050571
    80   1      13.027491153973246      1.4708876839667249       1.374592205928878
    81   1      11.611593080740576      2.8143160955897879    0.091458266305880942
    82   1      12.808192180007467       4.298993898966498      1.5512913865464149
    83   1      11.612615607932323      5.7605847856643084      28.588028149286263
    84   1        13.0107800303026      7.3207174391494174      1.5647125429128657
    85   1      11.635907127064028       8.417710490545538      28.632844543324513
    86   1      12.901896233101931      10.108056253657034      1.5543102370288351
    87   1      11.586727085446679      11.409753018663093       28.68757204362473
    88   1      12.956967751493993      12.908744826688277      1.4795044703856315
    89   1      11.441642006874156      14.396546295780453      28.697516244183429
    90   1      12.871886616357207      15.941199074582322      1.4991094561075895
    91   1      11.346962995979238      17.266138580492754      28.583546083914303
    92   1      13.039054805519967      18.756246702357661      1.3846840727134337
    93   1      11.608187466025598      20.190983189991599      28.622816591016889
    94   1      12.926653894758134       21.57285592656573      1.3866925358223956
    95   1      11.329528280062418      22.909824216140674        28.6584216282901
    96   1      12.917318048798363      24.232762311112758      1.4194503021449578
    97   1      11.668296284632252      25.763843014771588    0.029593475521107748
    98   1      12.916161168868493      27.316283657207435      1.5254744789850863
    99   1       14.31984131772019      28.684063653205161      28.668708180482142
   100   1      15.749151308389106      1.4624588282928124      1.2546284730053106
   101   1      14.360512668857158      2.8842101666348823    0.066136723281181378
   102   1      15.784626615678171      4.3523964797507908      1.5665838372189571
   103   1      14.353869529787467      5.9173620456874216     0.15744533001131891
   104   1      15.700500134151637      7.1760036089462771      1.4926053408735347
   105   1      14.325305069671183      8.6603216194459005    0.083965754416635757
   106   1      15.836356329975256      10.088089428706981      1.6066864712615139
   107   1      14.245691476998754      11.517376889761792     0.21577283222927698
   108   1      15.877637129578741      13.063880686521131      1.4148612874405098
   109   1      14.240007064762365      14.314125751052913    0.017239329864457878
   110   1      15.755506778357852       15.73394453944011      1.4549945323196212
   111   1       14.41554854607957      17.326226412426781     0.14305861332446737
   112   1      16.028870051532948      18.661896416151642      1.2645878738512122
   113   1      14.443236722986478      19.923755797194943      28.657396801695079
   114   1      15.839266360468464      21.606797332250711      1.3937896590310408
   115   1      14.177306514289366      22.978225245723895      28.684277859954662
   116   1      15.687222094016116       24.34452188481832      1.2238141102161288
   117   1      14.276088700519011      25.857696568141527      28.651299839842522
   118   1      15.746124112863049      26.871146904373433      1.4475430619947713
   119   1      17.228491263441907      28.530914189145665      28.528178858173391
   120   1      18.418242440080608      1.3804633388506775      1.2534989118323334
   121   1      17.195958191310897      2.9405832313791977      28.554313665353902
   122   1      18.399758481965961      4.3001723797738007      1.5806015980730981
   123   1      17.106574168262075      5.8974261028082458      28.626786093413905
   124   1      18.577020853472412      7.0985798759776246      1.5204742419324582
   125   1      17.101132159372096        8.51002485085864        28.6474723395892
   126   1      18.670605712577068      9.8864101259825361      1.4943801358500424
   127   1      17.182390898739335      11.459355716083913     0.12569337671365011
   128   1       18.61159765518719      13.082319961104025      1.4756958530904294
   129   1       17.33863116587726      14.328686150906108      28.650802500787329
   130   1      18.480398951517735      15.853039910237875       1.461620539243164
   131   1       17.38072797724584      17.263940015077381      28.654066229309187
   132   1      18.608306608485979      18.874367172796784      1.3418632478402521
   133   1      17.250696936415515       20.11229629983627      28.671080664286521
   134   1      18.805104370510001      21.604683371217458      1.2412850606711128
   135   1      17.356246075980561      22.937646985703559    0.015732572016304399
   136   1      18.794141048336193      24.397569452872744      1.3823398158925686
   137   1      17.346832119268004       25.68367832404731      28.543406561061417
   138   1      18.548807570770922      27.207611503875984      1.5927577541522491
   139   1       19.92136507814962      28.549587998845709      28.483315971484956
   140   1      21.234514810498844       1.179482794390583      1.4034873980618374
   141   1      20.004876151131665      2.7858174217491278     0.13775399193389137
   142   1       21.43578434333234      4.4386936783846895      1.4709219532086646
   143   1      20.006002958853291       5.711163609712635    0.080336461664035283
   144   1      21.405107954976771      7.0054623553761584      1.6385543658547244
   145   1      20.092578204799519      8.5644736179593597     0.11381085067656621
   146   1      21.485315731642444       10.11209754040966      1.5872226560446037
   147   1       19.97851129811291      11.608970093942228     0.01282330291012385
   148   1      21.563349832436966      13.086343924470558      1.4934653832816465
   149   1      20.028329180686427      14.363191841892464    0.069655293378025465
   150   1      21.428881402547425      15.889682749201041      1.2682707562556397
   151   1      20.131209156747556      17.285838024495359       28.57770260863812
   152   1      21.726273440635154      18.672192898035686       1.339830615974914
   153   1      20.283749196240645      19.921410288648374      28.655726671960139
   154   1      21.587316981903992      21.705199486065698      1.4194078844862346
   155   1      20.302785325128465      23.041874307925276      28.602952647178199
   156   1      21.546184129219604      24.454723795241676      1.2919867095279172
   157   1       20.01519382649845      25.878203686327652      28.681725529960687
   158   1      21.546172066752813      27.173741219073293      1.2212183516838313
   159   1      22.911363549929082     0.11961651409284461      28.644528253256656
   160   1      24.211547796461463       1.286775292424623      1.4310294086185193
   161   1      22.644279597595538      2.7370821481117322     0.12516279078121223
   162   1      24.253157201961365      4.2932735924412411      1.5477382815984004
   163   1      22.881206083040276      5.7090803880870329     0.10465253976022947
   164   1       24.42539433544588      7.0503800388182878      1.4986063112254997
   165   1      22.951064053935923      8.5681293755647605      0.1458471504653516
   166   1      24.292999049333798      10.180767823132205      1.5140468409610091
   167   1      22.878662080289665      11.343803080507842    0.040247659870237866
   168   1      24.317762748383579      13.010485686362264      1.4474290376405754
   169   1      23.050726829983684      14.298193371380968      28.652398155561968
   170   1      24.271309563763204      16.040843512264683      1.4758613284209101
   171   1      23.074930398512393      17.216636072524725      28.630332323286979
   172   1      24.466479329082894      18.830065129695875      1.4774466525528398
   173   1      23.104001109678688      20.133446815342268      28.589089741818995
   174   1      24.412689847399854      21.489818121693435      1.5183657447327952
   175   1      23.139888417858828      22.940414975352855       28.51246574211072
   176   1       24.44307395424849      24.278412916502663      1.3680903358816081
   177   1      23.020457423077389      25.727627634771714      28.646929669825088
   178   1      24.253836325388402      27.281961992303184      1.4482088381346336
   179   1      25.822170787248307    0.082593247852741941   0.0014256837538368936
   180   1      27.412021437362785      1.4429928051178074      1.3583475353973198
   181   1      25.790572836277256      2.7452681716208405     0.26813997026999908
   182   1      27.294331585679149       4.160921036261815      1.4592982825080989
   183   1      25.810746347990719      5.4766027628063645      28.677007421719523
   184   1      27.292408269143589      7.0760115512997936       1.547046406794403
   185   1      25.836816445726395      8.5616755315883051     0.18247446293513575
   186   1      27.311827855765966      9.9920037224345819      1.3102762793483971
   187   1      25.717011313166037      11.546405293930876    0.059347100598472417
   188   1      27.151496507977082      13.037796558630804      1.4111735558771563
   189   1      25.772503466839012      14.471880876544619    0.056490983477010648
   190   1      27.369353492575229       15.76485834611967      1.5397683849059149
   191   1      25.851465929055713      17.078042759872577    0.091722209968725002
   192   1      27.202581582788614      18.778874041742409      1.1613728098309808
   193   1      25.894638755928195      20.096491606712778       28.58291982390233
   194   1        27.5605413029521      21.399462351888641      1.1681519820066797
   195   1      25.802729407862511      22.884662852096241      28.647573667931468
   196   1      27.368631511626496      24.261092789710016      1.3969730814756411
   197   1      25.785301778463911       25.69983271433583    0.015853778410814805
   198   1      27.259689459510394      27.252011897146517      1.2747803682124401
   199   1      28.646958747376448      28.569334954952769      2.7820547439530272
   200   1      1.3869575981371547      1.2802018236529296      4.3020852062635964
   201   1      0.0774510055632847      2.8228574119966998      2.8182921143383743
   202   1      1.4870283252440797       4.373737442895993      4.2227748995196972
   203   1      28.684738975832804      5.7017255273389313      2.8026586826828179
   204   1      1.3217513569168768      7.1075702032080352       4.438232177542023
   205   1      28.621307543043248       8.557928004771771      2.8664528692585907
   206   1      1.3420948067831993      10.090441648554917      4.3115348491758718
   207   1       28.60033591444537      11.484970560420557       2.845060876346587
   208   1      1.2154706966481172      12.741218088318268      4.3923145819557554
   209   1     0.13938729288446555      14.331722834582486      3.0252447753284968
   210   1      1.4779093346412189      15.722875177953354      4.3759201866183401
   211   1    0.070254213124657128      17.131073402094977      2.7905321668710377
   212   1      1.4970996539796397      18.747390225180226      4.2634337868737955
   213   1     0.14261768368422856       20.00464363874605      2.8443907472464942
   214   1      1.4297728827062084      21.597093000133508      4.2250055243036577
   215   1    0.077110675260077324      22.786250429640152      2.8558976252402424
   216   1      1.3676319370206333      24.384389453987026      4.2261532397182764
   217   1      28.690399819862794      25.733391571609221      2.7710092090482479
   218   1       1.705925899326292      27.152953720735866      4.1763878823791538
   219   1      3.1356901564359632      28.562947977965507      2.5958799580434846
   220   1      4.3123274701467134      1.3284974243287464      4.2664903253662727
   221   1      2.9098808703954182      2.6970895661876519      2.9762365225996361
   222   1      4.3473491611527955      4.3591214305191759      4.2609431259285095
   223   1      2.8374121166535362      5.9205888456872477      2.8755879736153545
   224   1      4.3339218312845631      7.2280152362475514      4.4594069274782679
   225   1      2.9777659229584925        8.68442814300818      2.9342978166843818
   226   1      4.3545300249140277      10.004400954137052      4.3147587452042799
   227   1      2.9369026444871769      11.487620326763453      2.7586854854744605
   228   1      4.1692621021972718      12.751480119910202      4.5873424761989225
   229   1       2.868894900561747      14.256044018561822      3.0599022031795804
   230   1      4.1935469613339773      15.615581816468254       4.238007131373851
   231   1      2.9233219576896134      17.298877298184639      2.9895385345482057
   232   1      4.4202506426145343      18.766512798519649      4.3471338299827371
   233   1       3.017095952720958      20.167013544841925      2.8710966852667106
   234   1      4.3265192522434797      21.565945069343481      4.1973948936601424
   235   1      3.0537093958927466      22.974675006428832      2.8746391498087753
   236   1      4.4045687218233418      24.548198840546956      4.2644020311182711
   237   1      2.9905023214420341      25.948572430668069      2.7182623170836795
   238   1      4.4127887767871767      27.278487300528234      4.4847533993151423
   239   1      5.6655033036556226      28.673989222494427      2.7344659173805099
   240   1      7.1478693875559287      1.2438327780682115      4.2979635256183899
   241   1      5.7029111270250477      2.8196938946318371       2.815120198661202
   242   1      7.1986394945661685       4.232721685530815      4.1301187431730657
   243   1      5.7157874304895335      5.6849040831084672      2.8409522777056266
   244   1      7.3083357131627409      7.1777544605484307      4.2771362205017658
   245   1      5.9360508544015653      8.7307722621518451      2.7949810723164314
   246   1      5.7446187507203375      11.396181883953933      2.9727321480200208
   247   1       7.110524576856398      13.017860066747575      4.4548276775225224
   248   1      5.6375343168654801      14.297249093918259      3.0138643392442948
   249   1      7.3127974864772751      15.577070852877517      4.2781302480563355
   250   1       5.837467730336936      17.122524597338209      2.8146433125755501
   251   1       7.207591326031686      18.639628980697069      4.2089544795176792
   252   1      5.7650400507745241      20.048642424804111      2.8454213629530281
   253   1      7.1190034910884386      21.424414032547386        4.14104300461298
   254   1      5.7742395168826839      22.975561473279807       2.823031365917724
   255   1      7.1179870596065271      24.267708482375038      4.1243309129377144
   256   1      5.6755575082585201      25.974875267535236      2.6172269507384605
   257   1      6.9352350030563779      27.205806775024676      4.2383403171427689
   258   1      8.5768517886977182     0.13967253247254827      2.7380056089269704
   259   1      9.9668238355551821      1.5169444747155916      4.2609069241652886
   260   1      8.5395837615335388      2.9141994571229937      2.7749848123494769
   261   1      9.9567385934442729      4.2303087706700895      4.3096503240454052
   262   1      8.6057260383136693      5.4873876396088725      2.8441080578202556
   263   1      9.8658448944413824      7.2429441242419266      4.2895414249283421
   264   1      8.6027319757388661      8.9242984971901613      2.6784234432523482
   265   1      10.085153241853339      10.020123921331393      4.4295885741280241
   266   1      8.6886937515447258      11.560178449268724      2.9214124457439641
   267   1      10.136512830387447      12.923344576154994      4.3893770348585486
   268   1      8.5010384915863888      14.191487482868405      2.7396261444444021
   269   1      9.8981061573492237      15.692014608988883      4.1803476014946748
   270   1      8.5588434814560976      17.027878242110397      2.7007626439359096
   271   1       10.11755665681479      18.596674489966439      4.1996712816599917
   272   1      8.6356783107808628      20.166239619537233      2.8788103449414257
   273   1       10.12575276636171      21.573900183848799       4.135575015573985
   274   1      8.6238065033527871      22.927620721925731      2.8698573567894079
   275   1      10.071221094888896       24.43777853580254      4.3419159234460656
   276   1      8.5636901315315583      25.853616764050269      3.0764802943731717
   277   1      10.089009017157942      27.341575460028078      4.2740707533170266
   278   1      11.503070082058143    0.045594726017191299      2.9643652608149327
   279   1      12.894152612138276      1.3917673462531646      4.4191119082733517
   280   1      11.391990114959684      2.7844143604918945      2.9208210176622198
   281   1      13.010243753392636      4.2066421568549508      4.3493163067417582
   282   1      11.415207439718273      5.7678743203858138      2.9414009068294291
   283   1      13.052038763118622      7.1789699216259706      4.3733347894203893
   284   1       11.46614492688553      8.5357090108255775      3.0036235587498354
   285   1      13.030009393623653      10.102304712748976       4.481427779020108
   286   1      11.401634579976591      11.380996323695669      3.0258192338239405
   287   1      12.913627217618851      12.911559416158099      4.2816566433394518
   288   1      11.434517353628475      14.330056056760677      2.9463756825723877
   289   1      12.941086105759465      15.739535351150051      4.3063919964794781
   290   1      11.455464759385587      17.223284345022563      2.8829596311740651
   291   1      12.918338972941049      18.645020798297722      4.3070128655588862
   292   1      11.611107930783529      20.118152819441018      2.9242991884042158
   293   1      12.958033773588003      21.607469715895341      4.2304318573678339
   294   1      11.673811160498513       23.05388609049448      2.7951214250432721
   295   1      12.982853357645405      24.250900230888647      4.4021554896378223
   296   1      11.525591448645635      25.786420092217341      2.7605538534817122
   297   1      12.896197662945664      27.409770178779354      4.2647592048576737
   298   1      14.341693246972707      28.681135937628458      2.7351810423287248
   299   1      15.719966563096492       1.266372241334796      4.3267844817349541
   300   1      14.291788551259602       2.812588416434505      2.8377048545430621
   301   1       15.72197001967783      4.1796420092211077      4.2955066363394492
   302   1      14.409447499732611      5.8123367581519743      2.9695178378501019
   303   1      15.951127220489681      7.1634117227661802      4.4415597592211444
   304   1      14.385350840643632      8.5983655803971448      3.0795455721745042
   305   1      15.908766024639247      10.261155941538529      4.4140144266941626
   306   1      14.357691317404733      11.634223260804713      2.9423509349073798
   307   1      15.705530109917193      12.968564338402569      4.2167873411042862
   308   1      14.319132841443627      14.313249740869109      2.7673677071883054
   309   1      15.612457563410684      15.895703939745374      4.4101575140743963
   310   1      14.408906227770323      17.165593539867761      2.7278848148908761
   311   1      15.639195159388759      18.691099503881631      4.2789448319136394
   312   1      14.376196592607204      20.225205344209176      2.7735136502493676
   313   1      15.777139222945575      21.528478317297736      4.2311693130030434
   314   1      14.336467744824473      22.957836517345484      2.7658280696483746
   315   1       15.79763758206002      24.503308696170059      4.4153951880686462
   316   1       14.26791820369905      25.653249546108061      2.7964733553441072
   317   1       15.65115472813943      27.099945130027702      4.3908893953011807
   318   1      17.003287721355704      28.573762134959583      2.8883333842473697
   319   1      18.480050434834908      1.4703902763745293      4.1748131252464029
   320   1      17.125984046588883      2.7074460993969072      2.8641986931630634
   321   1      18.528063337558773      4.2533078483387934      4.2476150711196992
   322   1      17.119518119890092      5.8055024359921461      3.0557505221765222
   323   1      18.708588893845931      7.1435701677398313      4.6120803986665546
   324   1      17.144628622212306      8.4619382472783276      2.8912287008864519
   325   1      18.566703264840964      9.9332682542496844      4.2913310826476048
   326   1      17.444123363998077      11.606546087386215      2.8879946222931747
   327   1      18.693402525930665      12.992428942516312      4.3340575686688529
   328   1      17.213122817163992      14.424259951244238      3.0084271166453971
   329   1      18.534889681268204      16.046837680331794      4.3753723828061171
   330   1      17.143243158361908      17.329147255560006      2.8475008165492679
   331   1      18.625676598195263      18.712479330337757      4.2087673236220766
   332   1       17.24928986337401      20.051947583935053      2.9856512579823398
   333   1      18.680670559442433      21.625871354859136      4.2356285132083737
   334   1      17.376983054257906      22.855945286792913      2.9122361879083409
   335   1      18.869827605460458      24.453417886421381      4.4154861123223048
   336   1        17.1629509400864      25.606148068866226      2.9228949779290385
   337   1      18.687847289060674      27.088327748681593      4.3887934078476158
   338   1      19.923301034643611   0.0022789169990803096      2.8251903065274631
   339   1      21.478620240401231      1.5477349674882235      4.2878644335579743
   340   1      19.926245940654944      2.7733945158156748      2.7017501648914499
   341   1      21.431264884319578      4.2164292850547884      4.3499000517359514
   342   1      20.065609326617178      5.6860295805401453      3.0412203301503755
   343   1      21.316574928685061      7.1737192664483729      4.3262015693941152
   344   1       19.95513418140882       8.584863325116169       2.896899292078591
   345   1      21.462514513655467      10.302785944731646      4.3144747604024323
   346   1      20.083399032567787      11.559998095954889      2.8641549228892114
   347   1      21.622823156052728       13.13137811627846      4.2980065733424819
   348   1      20.173508438572448      14.541273020369582      2.7928222010577648
   349   1      21.365655799470257      15.841494893894181      4.3090716351833622
   350   1      20.141892227948095       17.25981415143837      2.7933463176492288
   351   1       20.10733796081994      20.065769164414995      2.7541057502308726
   352   1      21.468622514073324      21.714874911183639      4.2847692325806408
   353   1      20.169228108791497      22.994951902018766      2.9531907883897164
   354   1      21.604325933392563      24.629257502681746      4.2557116463474163
   355   1      20.137905950656787      25.779408613911425      2.8237632080443413
   356   1      21.389405496048479      27.294931325018119      4.2811114397960761
   357   1      22.783342286683805      28.635375416853098       3.027535432187046
   358   1       24.33584523958995      1.4637460669849804      4.1301582927350013
   359   1      22.804284942699891      2.7907127467578103      2.8285427678514559