dump/Fe_750_20/steps_71 (written by ASE) 

1980 	 atoms 
1  atom types
0.0      28.699999999999999  xlo xhi
0.0      28.699999999999999  ylo yhi
0.0      28.699999999999999  zlo zhi


Atoms 

     1   1      28.673359833884362      28.524653996046574      28.613232949065107
     2   1      1.4900880318750638      1.4132203179023231      1.4455384651910663
     3   1    0.041596283669777703      2.6403753890799195       28.56698087034076
     4   1      1.3542884277743834      4.2672202276368099      1.4180089012255155
     5   1      28.628526626829128       5.744113636962731     0.05271136050371282
     6   1      1.4073957035374405      7.2934573992507952      1.4679034092152516
     7   1    0.055224857946916922      8.8027816067420943   0.0098825074744809203
     8   1      1.4243316177831171      10.024981935259845      1.4167390793402657
     9   1       28.63536691356633      11.472709877615998     0.09804578894306798
    10   1      1.3323208195368481      12.993567761305608       1.414550610041545
    11   1       28.37812697701921      14.450700983310194    0.017439317927505724
    12   1      1.4780691633781999      15.851536184645136      1.4252099917601868
    13   1     0.10999332293478395      17.177923663633734      28.678817664703946
    14   1      1.4766658837637807      18.598316733789442      1.3655821355292461
    15   1    0.038613606511901911       19.94808969624955       28.52729482229859
    16   1      1.5883089344535626      21.422163093429159      1.3704695117073704
    17   1      28.609318980212098      22.777940594136226     0.20698688778286384
    18   1      1.4911857432107474       24.41465455632061      1.3610623288834285
    19   1      28.639573906896349      25.736179591816231      28.629598952547514
    20   1      1.3940112607682993      27.082681174897004      1.3047772304446548
    21   1      3.0249804774710518      28.435640320676001    0.034326450748301436
    22   1      4.4068808703726123      1.3452157731414665      1.5309541996384024
    23   1      2.8036879128361312      2.8868821594798812   0.0060252974102013518
    24   1      4.1682170420666314      4.2014025447274008      1.4988979113560841
    25   1      2.9191604232056729      5.7839002106611064     0.18033052367241006
    26   1       4.462851356924177      7.4675844687863657      1.5032189378515222
    27   1      2.6935341077894814      8.7086252083376703      28.695925834250591
    28   1      4.1942573092314079      10.052216057166017      1.3130460512795243
    29   1      2.7009584748139916      11.390028576911615      28.692343494485304
    30   1      4.0410775808231598      12.971938896035971      1.3558450816567065
    31   1      2.7178112213557717      14.359622467528286    0.059346648685925603
    32   1      4.2058838988209635      15.761193681529512      1.5647798633987222
    33   1      2.9776647183469542      17.140177779145855    0.024421069530887969
    34   1      4.3148170266234986      18.623723759923774      1.5006325547981192
    35   1      3.0130019410270221      20.050723942409729      28.673348617512122
    36   1       4.410602086070238      21.640170417925525      1.5462142760320492
    37   1      2.9563795559374451      22.945658526905291      28.589438959383244
    38   1      4.3508411115894292      24.129315723701172      1.5359969448046971
    39   1      2.9152186309920789         25.466021548571       28.53212425168174
    40   1      5.7265132995642842      28.507866989719318     0.10567277709074002
    41   1      7.2229621506386934      1.4645118997224253      1.6103589189607295
    42   1      5.6815034881942221      2.7442382570469799    0.063876292309328203
    43   1       7.013784123415113      4.3837292465345126      1.4683880750460059
    44   1      5.6661764187705481      5.7753517466920101     0.23127491898320623
    45   1      7.0823413714662191      7.2877068982760438      1.2512784010550377
    46   1      5.7567685526586496      8.7242862468955806      28.656159202416905
    47   1      7.0561705200592097      10.083323772506352      1.4209834196659119
    48   1      5.6390782334237981      11.535624476311513    0.042827584118288187
    49   1      7.1779511041767385      12.933866574188492      1.3723293388076288
    50   1       5.657093469837748      14.443081805029909     0.18566308901384893
    51   1      7.2530442909813369      15.822795946039941      1.4926079332007014
    52   1      5.8634113588598487      17.086814042598096     0.11714831232410464
    53   1      7.1334186399831676      18.819154107808348      1.3578298595384928
    54   1      5.5805713696955719      20.073635971875998      28.578907587730669
    55   1      7.2290663406236773      21.454020168693585      1.3982984914591141
    56   1      5.7702203874214222       22.93959430683033      28.597076487682063
    57   1      7.0734037172559763      24.337250115832163      1.4397329270994066
    58   1      5.4899546456850166      25.907677963095235     0.30512129656298059
    59   1       7.315293621971211      26.941782827066785      1.3590231340344088
    60   1      8.5309324155639814      28.646274895749446    0.062310584870215339
    61   1      10.115019613264188      1.4612957772789044      1.3758245197122494
    62   1      8.4414470479974852      2.8567713142757252    0.029067973043618044
    63   1      10.099098571404726       3.961264126635887       1.175950545873526
    64   1      8.7256160827859794      5.7161813520172329    0.048858723939667989
    65   1      10.119908204187309      7.5218963069694285      1.4845811168693654
    66   1      8.5112170583921145      8.7140706416567699    0.037515823860928672
    67   1      9.9431386314822436      10.298315310346673      1.3776957560773224
    68   1      8.6215512457100623      11.518517495704307      28.675202893416984
    69   1      10.127582452026651      12.856746167339651       1.359174931711437
    70   1      8.8298649696092255      14.634401070183614      28.676999879216769
    71   1      10.172952138382463      15.851341223430493      1.3402458809572531
    72   1      8.5706265357090263      17.020799387449518     0.10402575410267891
    73   1      10.050742308944621      18.612614956665336      1.3865425195560199
    74   1      8.5956667001651397      20.082865249917894      28.511418091421348
    75   1      10.020474723421653      21.395769494065494      1.3080965485068987
    76   1      8.6340109792434685      22.989659984926014      28.606869126210555
    77   1      10.024221963264047      24.371417226159252      1.3416397738784906
    78   1      10.167665444771513      27.208419588061222      1.4062911231467083
    79   1      11.538392516890067      28.597813317232539      28.597729864887427
    80   1      12.796243826482137      1.3364199794623461      1.4282055884962441
    81   1       11.30010024599728      2.6622625752863764       28.45276302153383
    82   1      12.837605101763865      4.4652931417773525      1.3073488631983414
    83   1      11.288761298397942      5.8491981492290268      28.689642162860029
    84   1      12.760419836586445      7.2939126742692162      1.2229021306139773
    85   1      11.417062665900868      8.6782969153347178      28.579462308854932
    86   1      12.880331639425656      10.087992644449066      1.2818254158315989
    87   1      11.446892779891453      11.465594807912236      28.666277259945421
    88   1       12.74838038484085      12.936635931830558       1.609738722014139
    89   1       11.44766362917337      14.431149327529974      28.677231869629114
    90   1      12.861745009438915      15.787451776532421      1.5593274405713495
    91   1      11.269374053328466      17.319828953523043      28.550543327037492
    92   1      12.748476787366071      18.653311537719862      1.4458696385063368
    93   1      11.272416512508808      19.955474367681717      28.606916073341118
    94   1      12.802698315568808      21.430569190514579      1.2961507917363859
    95   1      11.438691362675648       22.90056843798148    0.065367492951247594
    96   1      12.911788017929483      24.141159782640365      1.5037120844556389
    97   1      11.439235686088466      25.743252660254846       28.63508924245626
    98   1      12.649548328761103      27.264858167347651      1.4818499275527086
    99   1      14.220689340880361      28.540011458786523    0.092393676632593749
   100   1      15.492327538021206      1.2076743639738545      1.4502732667349945
   101   1       14.25014491126017      2.8580712076807702      28.663431466104132
   102   1      15.668533580116609      4.5007268058003005       1.325136888451516
   103   1      14.215270176100475      5.7032591860429847      28.607814051041334
   104   1      15.669277218970256      7.0811302416479442      1.4174603857286909
   105   1      14.038268888780449      8.5044900193097082      28.562760095206688
   106   1      15.643866193678727      9.9190706499515873       1.355919798973809
   107   1      14.370763285386259       11.49429767477177      28.575728094468975
   108   1      15.753601028225892      12.917135614779385      1.4302321705203775
   109   1      14.271049692558288      14.503455109660369    0.018639879258739715
   110   1      15.973980132496591      15.806452036734676      1.4337187734067798
   111   1      14.374109145838807      17.240331514705353    0.016062172215595184
   112   1      15.769343186619496       18.60402923773642      1.4362712603273504
   113   1       14.42301447108683       20.12676437768619    0.007608184338846519
   114   1      15.781710672998571      21.710020449012283      1.5652711933831833
   115   1       14.38328343156871      22.980984204773552     0.11235853401876751
   116   1      15.826930217176088      24.394574751579611      1.4091046020335498
   117   1      14.090544042483046      25.759285756137743    0.047382232995027952
   118   1      15.783491768801582      27.247943970598879      1.5490636042037624
   119   1      16.971889025538523      28.615826991663244    0.068935729383542949
   120   1      18.492233572951985      1.4298132545947058      1.3932980771640029
   121   1      16.947440630349902      2.8797521277460087    0.095506478282857271
   122   1      18.552255911330313      4.4006411818999025      1.3739414497927891
   123   1       17.16877790563704      5.6253669221144005      28.634263441375101
   124   1       18.53884172078412      7.1804490004570845       1.493510136552733
   125   1      17.172274995854568      8.5683502495872279      28.654141195389627
   126   1      18.473260905351161      9.8727095146286601       1.443939513437646
   127   1      17.215086740445283      11.544675838729013    0.082583718104820014
   128   1      18.556380454450462      13.016445444279613      1.5225880203983246
   129   1      17.273270475298958      14.460668928267159    0.095136052696795995
   130   1      18.811727698592918      15.905291798062994      1.5141147166045807
   131   1      17.121600294675027      17.181532486321291      28.689887356176857
   132   1      18.471172084103515      18.648497392589121      1.3508315615649285
   133   1      17.234260023792629       20.11106214684154    0.061938640360221939
   134   1      18.597252314613925      21.541752710659786      1.5934102039554436
   135   1      17.187933066303966      23.028934802704416    0.099328792123196646
   136   1      18.593276407965792      24.466499898275419      1.4508769147468339
   137   1      17.311465385612749      26.016126375070957    0.032863949802867769
   138   1      18.767804525086053      27.202725417578872      1.4646335151006604
   139   1      20.194650986649844     0.23106759230074828      28.643446127560981
   140   1      21.691840736353992      1.3745778755367843      1.3820865462948408
   141   1       20.11775823918088      2.8995838641545988    0.036799729165761609
   142   1      21.517891743919353      4.4346563507610712       1.436151370402535
   143   1      20.096752432177748      5.9312953264399422    0.031402539220766731
   144   1      21.620141343102137      7.2778031741985583      1.3838787911142398
   145   1       19.91112283510282      8.5894163341556808      28.477606706918326
   146   1      21.360569163557297      10.107795599085126       1.316312848401253
   147   1      19.935974544989012      11.416002463515396      28.511727062235728
   148   1      21.336016434543975      12.886740987227592      1.4023610131876352
   149   1      19.974575891771021      14.475359161716707     0.02433889794725699
   150   1      21.525067161541223      15.835663052762341      1.4068397364332788
   151   1      20.169467145042979      17.126755773635779    0.044521775325074356
   152   1      21.337901695340722      18.730732887781706      1.3036872285013135
   153   1       19.93160067377767      20.051725466865985     0.11442354597080572
   154   1      21.483081895291988      21.593803729469087      1.7297207515456292
   155   1      19.962118582285225      22.895887927199198     0.10297622481000414
   156   1      21.462561339800938      24.378817665040184      1.6583847450052061
   157   1      20.138708107046323      25.868392871350824     0.10733578055335335
   158   1      21.604662381928044      27.442151766309966      1.5562898054360734
   159   1      23.140725614505882      28.622162330742814    0.022031648637823757
   160   1      24.450879089102695      1.4561225011358139      1.4293141008334933
   161   1      22.950264694546526      2.9229124472183035      28.670255526903787
   162   1      24.537873272796229      4.3464382911612898      1.4949829946528543
   163   1      23.238405518611021      5.7489694123279218   0.0066586613148729209
   164   1      24.413346694377623      7.4294950634706378       1.509002452756669
   165   1      23.154299945753053      8.9028744858154614       28.69500623066509
   166   1       24.42852247596478      10.271964372282435      1.4917176741885905
   167   1      23.024970149208567      11.627507123476247      28.611343067049511
   168   1      24.403102159551104      12.773065072291717      1.3170305568605165
   169   1      23.020559854232239      14.454448987759992      28.694893969976746
   170   1      24.239726131043973      15.737658271564632      1.4630173233749588
   171   1      23.012513602705301      17.277018778469035      28.676634282289385
   172   1       24.19537298381022      18.751784273155884      1.6115960121277895
   173   1      22.910825011045148      20.088518650843447    0.034358810488106559
   174   1      24.322938996994303      21.450709379185337      1.5000003225313532
   175   1      22.903212954743324       23.12172320473028     0.13454668911657561
   176   1      24.429111952493272      24.378651262663183      1.5398850135487463
   177   1      23.016779815361339      25.899690489094844    0.047399253784635706
   178   1      24.316075379596462      27.259053670840284      1.4684690968831193
   179   1      25.924014989886324      28.641421455601819      28.617825983542819
   180   1      27.293400628905182      1.3820535017951565      1.3795836572232936
   181   1      25.866325201417297      2.8254726770692735     0.10076351840225471
   182   1      27.324488806130972      4.2792231692964933      1.3333195264438018
   183   1      25.810948937471128      5.8175349334450193      28.613992133931916
   184   1      27.257954926844107      7.2560682426064087       1.562853195233924
   185   1      25.862778644623482      8.6934587949533455      28.698737289175845
   186   1      27.159902433764824      10.123313635542033      1.4280902881247028
   187   1      26.023617696842912      11.356137821694789      28.621981994128053
   188   1      27.106597699907034      12.973545968400467      1.6136105987718337
   189   1       25.82954265692894      14.436555192490077     0.04949516175933022
   190   1      27.217700333334726      15.856366892525367      1.5242323190295231
   191   1      25.777073396796705      17.329706621104982    0.038509369954920242
   192   1      27.270950804477987      18.625985399320577      1.3544455388693688
   193   1      25.799165005890426      20.064408225036015    0.033302195799615103
   194   1      27.159083381319732      21.474800646581482      1.3652686968873251
   195   1      25.627188657963373      23.035245252177763     0.10550293447628289
   196   1      27.174196606799061      24.287660836152462      1.5328639992955677
   197   1      25.882274386422303      25.875254969700723     0.23382560542524966
   198   1       27.33182339773802      27.165211365095455      1.6449346113128396
   199   1    0.032836645209854146      28.606201606337368      2.7464159513487512
   200   1      1.4597089062868454       1.198374972850798      4.3413035741926311
   201   1    0.078846466559457762      2.7986978522338637      2.7783736060470585
   202   1      1.4361627897331235      4.4691792375314572      4.3681634714769064
   203   1      28.653742456304958      5.8149065015579158      2.8723970720057146
   204   1      1.4067675291650075      7.3492004603335124      4.4047852716048395
   205   1      28.652580866207074      8.7558904050275732      2.8877391207948162
   206   1      1.3022123733088633      10.144679779737622      4.2376798422636268
   207   1       28.50117587320128      11.595402530162467      2.9174746071060689
   208   1      1.3974824494053215      12.847799363437131      4.1990169849745733
   209   1      28.506199647197693      14.462854618703744      2.8506304754961427
   210   1      1.5021524347961539      15.897055256999694      4.3245317218826447
   211   1    0.056687882567190609      17.388028196541971      2.7820097491424809
   212   1      1.5200516321672575      18.633936770988701       4.260423954217079
   213   1       28.57186942437616      20.043891743068187      2.7752904621724159
   214   1      1.4761367661947371      21.534074930238901       4.292450836838019
   215   1    0.047594784190336387      22.860769729714722      2.7689350272038498
   216   1       1.477233429883827      24.387645373887917      4.0687281368817168
   217   1     0.15812405810951458      25.775979840322883      2.8392212887960211
   218   1      1.4545955316765014      27.262338282564485      4.3157819724062776
   219   1      2.9851657170620722      28.585529760242938       2.882328830537948
   220   1      4.3533704539471385      1.4795826794077824      4.3291857540756746
   221   1       2.808644233192946      2.7115571071124469      2.9458571921590084
   222   1      4.3766414470500461      4.4164307979758748      4.2778310461213529
   223   1      2.9525238077403047      5.7580403366621216      3.0195711456424457
   224   1      4.3441334975813986      7.3441843502964117      4.2153423631670313
   225   1      2.9314014259339962         8.6401333917412      2.8544551391225004
   226   1       4.395329757506671      9.9561730558853476      4.3776475165287181
   227   1      2.7810047061543286      11.591801654674068      2.6390607625897569
   228   1      5.6600470461070378      11.640229231589373      5.5950773794638256
   229   1      2.6534509023712429      14.317560996693834      2.8940054915313018
   230   1      4.3786288049549364      15.796603426828677      4.3651594055863558
   231   1      2.9018176392914392      17.193627808665926      2.8836215836242607
   232   1      4.2950167186143338      18.735319680690488      4.3110951400362216
   233   1      2.9021177202508541       20.09212388018608        2.96427310331286
   234   1      4.4127461765349452       21.47780421703682      4.3126119193772432
   235   1       2.961346039017966      22.837783589520733      2.8716502000411914
   236   1      4.3108193246212405       24.22378452664811       4.460868537385557
   237   1      3.0367294876585014      25.759066262490418      2.8265987886796902
   238   1      4.4184117016302942      27.092642269152261      4.3440750458303201
   239   1      5.5861216094021957    0.012634200505567772      2.9803048087907622
   240   1      7.2616264669138024      1.4024380535748502      4.2174691443605887
   241   1      5.6943544725097528      3.0982998260274699      2.9081456009600033
   242   1      7.1579801508392773      4.2002059901557107      4.2021962505767814
   243   1      5.8323388775228393      5.8192682116219983      2.9761107803185873
   244   1       7.252233918311771      7.3538023629407574      4.3338260497116581
   245   1      5.7525450951698813      8.8733183996657559      2.8308653934735508
   246   1      5.3482681953340032      11.528654602320277      2.8018560363657117
   247   1      7.2207740255046566      13.053786792636144      4.2643262755286386
   248   1      5.5410502474251668      14.259320912129766      2.9580661230450707
   249   1      7.2703679065914484      15.851003628659294      4.1361911677003391
   250   1      5.7416535924921481      17.370582546628107      2.9950635643154908
   251   1      7.2097526829398504       18.90659094981271      4.2969421553513651
   252   1      5.7961284963111757      20.172518310150284      2.8108823848377367
   253   1      7.4032015847861876      21.544909629267497      4.2987977383225129
   254   1      5.9441370445873467      22.862833108100663      3.2029919497299009
   255   1      7.1490638560812361      24.425619443851463      4.3017123700465865
   256   1      5.7004712955262473      25.858098332905385      2.7533828277715418
   257   1      7.0868929926130741      27.153688214967634      4.3157462397473711
   258   1      8.5894941312836757      28.575479632305335      2.8394816288426217
   259   1      9.8935969685894154      1.3940357106779411      4.1045487523443667
   260   1      8.6002437270853225      2.9183778915256764      2.7661629871222639
   261   1      10.106610924403022      4.3462047474659933      4.1395451658774256
   262   1      8.5128034427814132       5.620940450330326      2.8443334237791658
   263   1      10.018395130196618      7.1581792261469195      4.3300354002764907
   264   1      8.5604826936892913      8.7494649908184012      2.8232634233009208
   265   1      9.9472980200047889      10.176346526814431      4.3235064721253513
   266   1      8.5674374361766574      11.631908274307026      2.8392542589101142
   267   1      9.9650585018630018      12.932101684180028      4.3465129730703769
   268   1       8.702618319374821      14.419380908135228      2.7620749177924941
   269   1      10.032560342776097      15.941946459059588      4.2307792084794871
   270   1      8.5813837915399258      17.237225682621062      2.7855682556141677
   271   1      9.9585521590678603      18.696396661187865      4.4098366015955781
   272   1      8.6814601199655588      19.982635567897525      2.9760961410230178
   273   1      10.034145017791095      21.352463406844446      4.3386948236868683
   274   1      8.7071905845566135      22.997537616084717      2.7116506017019213
   275   1      9.9283379785541968      24.293808268746044      4.3864154822271137
   276   1      8.7853604995877088      25.814798177408459      2.7821961662231938
   277   1      10.050094167035677      27.206080168741238      4.2587862510867724
   278   1      11.307810924717767    0.047449746505594852      2.8304625366529419
   279   1      12.826980916754593      1.3222322606370203      4.3245038279767893
   280   1       11.56618589668148      2.7884667176303766      3.0378429949795347
   281   1      12.834997175849084      4.2954715350934274      4.0597921832427026
   282   1      11.493805861218963      5.8743217476149399      2.9871234136316165
   283   1      12.910256346411876      6.9944008823415844      4.5660333962402007
   284   1      11.526567956924668      8.7082674099100448      2.9005964166225717
   285   1      12.904520390809395      10.084219829822946      4.3682898809410551
   286   1      11.456496475194957      11.478880117551036      2.9439526348916427
   287   1      12.804546999793299      12.913108070417678      4.3820494185763401
   288   1      11.331207414487009       14.33929767695758      2.8514078714998732
   289   1      12.774465491382355      15.711273078621373      4.3359236833812371
   290   1      11.413162231346396      17.186649935642492      2.9057878944812354
   291   1      12.797748420475624      18.576637427113074      4.2269481336750454
   292   1      11.544815088625313      20.243036159623305      2.8594882959929695
   293   1      13.084549241269995      21.534237680351129      4.5502732665932779
   294   1       11.49139900716902      22.947638896952864      2.9623855219322781
   295   1      12.853516866831434      24.309943675842813      4.3334630575036135
   296   1      11.485660915729634      25.717068109982847      2.8682034431366898
   297   1      12.807969405798213      27.087715904733383      4.3099120819796841
   298   1      14.271055758919109      28.643172116371876      2.9061782461399481
   299   1       15.68412777297679      1.5184126349925473      4.2298801649751328
   300   1      14.159377309776998      2.9580591469567072      2.8290004514322047
   301   1      15.762590402408433      4.2031256744880894      4.3041044553260193
   302   1      14.298017491085801      5.8458600975443158      2.8084357172872032
   303   1      15.839481864136888      7.0230966532272543      4.3341114362698674
   304   1      14.194379254886172      8.3970092246617423      2.9894952865461595
   305   1      15.657676404491319      10.227792847619325      4.3077931817860931
   306   1      14.394535860063296       11.51174376278342      2.7638103376272265
   307   1      15.682095150426782      12.853799880408292      4.4203231773810758
   308   1      14.349843161245424      14.624339391267473      2.8637607530680138
   309   1      15.792717668211148      15.805753545887136       4.282758121471149
   310   1      14.436453693726245       17.04533843688754      2.9487112951334367
   311   1      15.624923257929147      18.751707854017891       4.365564324497754
   312   1      14.251689404412886      20.099955445816292      2.8442084884209522
   313   1      15.688473977197823      21.564386994548869      4.4022699801043323
   314   1      14.542675984502694      23.090584889872101       3.106556144389037
   315   1      15.680177673078774      24.588084958692317      4.3705847229403387
   316   1      14.260744584800337      25.732957994377028      2.8445968874921168
   317   1       15.78885505583033      27.183396408327589      4.2562748988447447
   318   1       17.17068663362026      28.680380159961505      2.7611383316004559
   319   1       18.45099282398704       1.601035222953509      4.1886935461860091
   320   1      16.994302147321626      2.7876851756233343      2.6345839256770214
   321   1      18.660207482509971      4.2944858074741328      4.0453732092389822
   322   1      17.049803097236243      5.6570924167585801      2.7621642842197165
   323   1      18.623152875568348      7.0732165939134619      4.0263289242015343
   324   1      17.015731019911367      8.5146314997711752      2.8653497103120098
   325   1      18.659565733187637      9.9811821556118492      4.2466415769156702
   326   1      17.153985496432533      11.411515737084015      2.8915778475628344
   327   1      18.587031107893239      12.905686899732135      4.3039474615389173
   328   1      17.175688607288389      14.408402377745553      2.9055969729022291
   329   1      18.853990832676978      15.821625923476246      4.1315249747679061
   330   1      17.174486466080637      17.275995019112155      3.0475635267147902
   331   1      18.482498821137039      18.723054388266366      4.4894595090194418
   332   1       17.08494625937491      20.115306688440281      2.8590086833774202
   333   1      18.509167903151265      21.494635862019081      4.4102376291401013
   334   1      17.349793842723965      23.164881124061587      2.9493647638704634
   335   1      18.736650589497945      24.445317014993311      4.4649784979210816
   336   1      17.161531961242058      25.694230300721376      2.8374579632930015
   337   1      18.610887204312139      27.208005064066811      4.3375085688508968
   338   1      20.001794811024482     0.13572796342954244      2.8173118996808282
   339   1      21.622846284817079      1.5165371435255119      4.2578363416936229
   340   1      20.065599492067136      2.8209677751683904      2.6861982892280021
   341   1      21.512619277983916      4.3079403300894548      4.1892787067056148
   342   1      20.198398539771166      5.8450322380152908      2.7864724656805606
   343   1      21.505352574014545      7.1359710066952013      4.2629831254033332
   344   1      20.041542790701588      8.6912751911210737      2.7748819908970068
   345   1      21.508059274483173      10.215335701391581      4.1939601519149061
   346   1      19.886985833751702      11.506706656683329      2.8235547973642929
   347   1      21.451241371771587      12.904534739522171      4.3040901215993204
   348   1      19.960265893617816      14.297258740869665        2.87865874724868
   349   1      21.477293305862222      15.749430659560346      4.2135018494779244
   350   1      20.072663564743131      17.517339214835253      3.0400563526446089
   351   1       19.88092727394141      20.141367033757405      2.9644315478702672
   352   1       21.34199732162752      21.591725468564487      4.3081344651730786
   353   1      19.873315149994976      23.095268033730814      2.9196457433020595
   354   1       21.47405942057096      24.436360466163663      4.4432158737386196
   355   1      20.140299642525392      25.986368700540158      2.9684364126785865
   356   1      21.634442885256533      27.371076410099793      4.3945386385322793
   357   1      23.110844893067334        28.6371512635172      2.9737681901813651
   358   1      24.482286509634147      1.5631509679559721      4.2739168227755187
   359   1      23.034732668293067      2.9408972062610559      2.7479721670778061