dump/Fe_750_20/steps_1 (written by ASE) 

1980 	 atoms 
1  atom types
0.0      28.699999999999999  xlo xhi
0.0      28.699999999999999  ylo yhi
0.0      28.699999999999999  zlo zhi


Atoms 

     1   1    0.016410696973866847     0.19354707502144483     0.04948827586490543
     2   1      1.5196972003517095       1.222804998582683      1.5894566752593846
     3   1    0.035100318138053935      2.7439731619996928      28.646356271360233
     4   1       1.336253671090218      4.3199619062604082      1.3366582510672294
     5   1       28.65123498765945      5.8128050687219908      28.686823875977897
     6   1      1.4317447188716308      7.2074986608164506      1.4282975347083835
     7   1      28.673658178009674      8.6516106101745667    0.086623417633052105
     8   1      1.5596711225136002      10.229834177858217      1.4324794313920608
     9   1    0.059768014174415733       11.51512935984513    0.061781166238222378
    10   1      1.5594452776521632      12.877259635232473      1.5299483857782323
    11   1      28.693508809872956      14.260772509937818   0.0096217773227863235
    12   1      1.4821513502000925      15.850617097473091      1.5254387236953117
    13   1      0.1813523109235699       17.22851283726413    0.079951552395698428
    14   1      1.4024086496721246      18.598375050218603      1.5499373008677026
    15   1    0.044654605008566946      20.143885365386492     0.16222161120113013
    16   1      1.4724554671874104      21.546674782392373      1.4956485063124212
    17   1      28.627563725796964      23.007389160694558    0.040957498243653703
    18   1       1.457030598980033      24.353997350876362       1.459816018190587
    19   1      28.633135678306942      25.827945959364406     0.10476762706687175
    20   1      1.2446231755793433      27.366115969966142      1.2942161981125537
    21   1      2.9367466186427063      28.601269052223358      28.670164974021773
    22   1      4.4302940799044119       1.386393119266176      1.2664590119338526
    23   1      2.8399695031043293      2.8840951824820529      28.650592894007634
    24   1      4.3754433222597413      4.3687657379977027      1.2406978071292303
    25   1      2.8278466337984605      5.9269293183777139      28.664937207171889
    26   1      4.2699460741897859      7.1402285780670702      1.3417568448346753
    27   1      2.8357060746549205      8.5673242792084956    0.053519977271275845
    28   1      4.1754401901811145       9.952223297799538      1.4205601670353412
    29   1      3.0257671206990739       11.43630689161232      28.655160443531717
    30   1      4.2833354561682331      13.047673061166893      1.4485975933254407
    31   1      2.8098152967438184      14.482562499232721     0.22611148831406352
    32   1      4.3473006438460482      15.957675207438431        1.31681469440673
    33   1      2.8711245102423986       17.29990909680415    0.068742183116808075
    34   1      4.4032516062479274      18.757870061147379      1.3897875999149847
    35   1      2.7892434451458756      20.220007388601271       28.60443719426566
    36   1       4.289855487553738      21.566400258089907      1.3538887158512463
    37   1      2.7930889038003244      23.108401009312328       28.66857664458691
    38   1      4.4119785864892656      24.099364599544856      1.4433080051269256
    39   1      2.8676433400819423      25.787159819184236  0.00052763721481596652
    40   1      5.7411765380682329      28.652009354789673      28.660332883009804
    41   1       7.293415647424375      1.3559684732838246      1.3844970946247819
    42   1      5.8321622628175787      2.9377897752062663      28.526272284409746
    43   1      7.1742122320349369      4.5906029115708851      1.3912984176347325
    44   1      5.6099613947355857      5.8611508003022363      28.511698703695632
    45   1       7.241744114322719      7.3295937059943839      1.3496125928402432
    46   1      5.5896171758374704      8.6830310334565226      28.556243004213716
    47   1      7.1922039962801145      10.068776784465708      1.2333385431703272
    48   1      5.6926044265971063      11.497636761117075      28.521186331142363
    49   1      7.1709652293085755      13.002768233067961      1.3783113452445728
    50   1      5.6333799804422506      14.538164477351632       28.64556746249281
    51   1      7.2227621616000572      15.698058842710722      1.3830418744001562
    52   1      5.9040392125038679      17.213540404844494      28.673550286553198
    53   1      7.3777787377842801      18.738183736759421      1.3690479045046227
    54   1      5.7293803260420333       20.13043970586131    0.017785650431596869
    55   1      7.0909933674499683      21.625705928943923      1.2878807076091323
    56   1      5.6906729166146981      23.043534253124594     0.12231636531167855
    57   1      7.2165074868545194      24.528224415175938      1.4506637217008918
    58   1      5.5574046919400315      25.808798305175547     0.16114256649585734
    59   1      7.2071062013973117      27.339448723531781      1.4102572640085667
    60   1       8.526826398701516    0.089789423685114569      28.524322589298297
    61   1      10.022791881262151      1.4943963891087502      1.4377142736731345
    62   1      8.5221275680180959      2.8420698196995664    0.023050873814611354
    63   1      10.115463207659507      4.4157814896964052      1.3961714740999462
    64   1      8.6493937766421336      5.8033620824197811      28.615422724695975
    65   1      10.080167168861154      7.3305933456382197      1.5940662517661062
    66   1      8.7201086871027851      8.6768079362764237      28.591328927587657
    67   1      10.248066115196973      10.021283280355783      1.4559620327930121
    68   1      8.6276425816080362      11.402509183141117      28.573947494967431
    69   1      10.166908290116231      12.953086324941649       1.375926428497406
    70   1      8.7641125620222873      14.383520625773423      28.594753349093679
    71   1       10.05944259601457      15.881699111227007      1.3541779263503471
    72   1      8.7145268264581972      17.226320442348754      28.520542254276592
    73   1      9.9312307635087684      18.617729436886158      1.1397584332291901
    74   1      8.5364902724591705       20.13562556511814      28.530010865046993
    75   1      10.037743500979055       21.52391748995646      1.2911119114201381
    76   1      8.6597460795500414      23.058699566194012     0.11371381194865088
    77   1      10.040489841317697      24.434159442313891      1.4482023364591887
    78   1      9.7600585737033256      27.262376955829666        1.28349425739848
    79   1      11.389910831437538      28.593414440834749      28.571110556034768
    80   1      12.887861320019047      1.3356685480081185      1.3826527661926422
    81   1      11.395289770356085      2.7267363569417626     0.12017971862355804
    82   1      12.767217129390311      4.3520774027539835      1.2854720852259003
    83   1      11.384941213159879      5.8500080407349415   0.0045394231526529527
    84   1      12.781067252322014      7.1390304806256557      1.4194009573139721
    85   1      11.532229008593491      8.5791168066452013   0.0034797549743757492
    86   1      13.173998108375869      10.140091939048499      1.4597373229898367
    87   1      11.603935793602906      11.517316494014119    0.061044392299118046
    88   1      13.293482949576173      12.974913878970307      1.5995706517765487
    89   1      11.691963315731737      14.350838185102981     0.18818475607558857
    90   1       13.19810383612193      15.833375240867261      1.5341138942304489
    91   1      11.597173741142022      17.177670695503547      28.593298743775382
    92   1      13.130222017312505       18.69576809972191      1.4432939898213488
    93   1      11.653448441471282      20.016815016894942    0.021267181367727515
    94   1      13.248154587605304      21.402124918286344      1.4526759446299691
    95   1      11.596545017057498      22.878962170907027     0.13825328406444456
    96   1      12.755904757589171      24.345007614244309      1.5422130766474413
    97   1      11.468042548856243      25.869945362259948      28.546088549417536
    98   1      12.952581120445236      27.435502582237813       1.377468440849122
    99   1      14.334058206024967    0.010644477104223759      28.568237405189908
   100   1        15.7155821241094      1.2799667971236426      1.5230717444542172
   101   1      14.261634620388115      2.9237713654635993     0.11444799001064901
   102   1      15.765286880208961      4.3867014262465753      1.5221846981081846
   103   1      14.249895989372821      5.8543369810378874     0.18600294337389853
   104   1      15.732346347654392       7.086560722790594      1.4287125246682775
   105   1      14.238038117301651      8.4298016952374333      28.662133897038434
   106   1      15.833957524278198      10.046648299342133      1.2823001959546685
   107   1      14.532921526965845      11.618034908627923      28.648829050366761
   108   1      15.969643816254155      13.023921761898549       1.341907113636194
   109   1      14.419377760771054       14.32806773478287    0.028390259484262964
   110   1      15.857668218758528      15.788331410901224      1.5964803299629462
   111   1      14.470633570778498      17.250235114450103    0.019789331272545486
   112   1      15.764033001527164      18.842953191552564      1.5421368960536699
   113   1      14.354096686788855      20.006220582253381      28.432844372528585
   114   1      15.893224696851659      21.501327845469582      1.3179693106986066
   115   1      14.368465984916675      22.890540197702947      28.538976879445038
   116   1      15.809893538798496      24.364467676633318      1.5797475865361992
   117   1      14.345874788375289       25.92862049569219      28.674884084789724
   118   1      15.833070343657646      27.281064296647006      1.4936652837903908
   119   1       17.15100522890064    0.069470205769313814      28.678498953267709
   120   1      18.783842501826101      1.4294596467240801      1.3529746073489379
   121   1      17.069515822189786      2.8622254447709348      28.671622765634471
   122   1      18.545406678999498      4.2324723079036222      1.4120245743743911
   123   1      17.181014717700705      5.8058579015579763    0.068214244979344502
   124   1      18.707654810488645      7.1690129851821602      1.3830947350940508
   125   1      17.097576799272677      8.5088669576004481    0.094805042192592753
   126   1      18.842993817588038      9.8687496774352255      1.5107049605847351
   127   1      17.421837176776538      11.425175151051358      28.695323272450157
   128   1      18.509156106091432      12.938228436795541      1.2167008114493922
   129   1      17.202070703715187      14.373678004746205      28.608622230606731
   130   1      18.646645499711802      15.844739899397705      1.5374382412260501
   131   1      17.159333501470023      17.327403827583314      28.637223255149465
   132   1       18.72161640245417       18.63234263361263      1.4718293737061106
   133   1      17.339696401049473      20.040997911396918    0.052771149736986461
   134   1      18.701867251334239      21.492686744443347       1.481257528833259
   135   1      17.296625218315452      23.088200669921342      28.559887291267287
   136   1      18.637317827843898      24.230768854926936      1.5676593582501472
   137   1      17.261671423485829       25.87974281355395      0.1795966015519298
   138   1      18.702273406071686      27.283276343340209       1.549131300141426
   139   1      20.074147663443526       28.65711611867161      28.609419691122625
   140   1      21.521217513556561       1.314378316917679      1.3236105711272199
   141   1      20.077441947516846      2.8328558769763745      28.581745080181481
   142   1      21.612974134748519      4.1763570876341722      1.1810714856435984
   143   1      20.211190447027448      5.6306143065706866      28.587184070361605
   144   1      21.588775231682447      6.9816140828775657      1.2407320267927378
   145   1      20.121379132958833      8.5221730368924398      28.603714087969706
   146   1      21.637857587099372      10.039271016871311      1.4107822738177209
   147   1      20.089905681274384      11.401601928498945     0.10575378166431612
   148   1      21.524935466014533      12.881560133695762      1.4930892923017618
   149   1      20.123995747080251      14.382191356411639      28.606066380485345
   150   1      21.480108151152816       15.77386324058322      1.4416028128266145
   151   1      20.141153420046873      17.131436068025103     0.07135139770866776
   152   1      21.486672527125897      18.636981385236954      1.3726778527235743
   153   1      20.075041544310999      20.211643037988004     0.10255268512047439
   154   1      21.517797839660975      21.395663978469802      1.6429292610181179
   155   1      19.971713182134177      22.835038061544033      28.669336659695858
   156   1      21.428389667683891      24.205790780469613      1.5073179632545359
   157   1      20.109103899851895      25.617924376220532    0.090246899362728075
   158   1      21.454502763114956      27.152335259272597      1.4310386160038535
   159   1      22.926118536481528     0.12655946676383273      28.599674816511016
   160   1      24.416090801836845      1.3921139233931281      1.4539969870912848
   161   1      23.125953915049315      2.9426180008433507      28.619841339068575
   162   1      24.417220203135276      4.2369380492089537      1.5561047458353419
   163   1      23.190566586435498      5.4517823677476001  0.00074662331863919573
   164   1      24.461193438016064      7.1221690084038523      1.3791305522131891
   165   1      22.941082026325684      8.6269277515495215    0.092378988548182286
   166   1      24.464625839173184       10.00081605824874      1.4086961751780667
   167   1      22.933848498699696       11.47223299352394     0.11562439990777858
   168   1      24.423831666370155      13.090488240732144      1.4460338517223141
   169   1      22.847142003739396      14.360641090748866    0.034934203766215421
   170   1      24.339719307251027      15.727222567616062      1.4062293214108414
   171   1      22.984764904021343      17.326682839253845      28.617612270265937
   172   1       24.34871336701141      18.771326551300444      1.3946195327234465
   173   1      22.954925888879941       20.18263489876075     0.11029291413302658
   174   1      24.291924179439192      21.487865450458365      1.4443219981950386
   175   1      22.829371858276403      22.910817150688999     0.14639179996688639
   176   1      24.565018273149271      24.452725844724522      1.4939363995060815
   177   1       22.88917762058475      25.594416817819965     0.14899611129912949
   178   1      24.373182811874283      27.228506242394602      1.3309419092275558
   179   1      25.730197398155845      28.653489779122996      0.1034444771518678
   180   1      27.190389919442353      1.4105715031423185      1.7435693643629964
   181   1      25.813847285115969      2.6784150758910763    0.068789733590301619
   182   1      27.317066864093793       4.090220981202596      1.4260754234368493
   183   1      25.726027317609685      5.7216903976980698    0.086769303776225201
   184   1      27.355348645449034      7.1144841253921181      1.4646010357233201
   185   1      25.882610047305114      8.5229256861750269    0.014345856564182198
   186   1      27.367880280688382      10.151739979292367      1.4786135519330614
   187   1      25.769130380492506      11.433420036349133    0.069637385834357607
   188   1       27.30825711183634      12.931686303446192       1.532241047585966
   189   1      25.832969752387893      14.358383977150007      28.617322834856296
   190   1       27.25724210667796      15.892015475651322      1.5064848105565474
   191   1        26.0199873564796       17.30288608349024    0.070360470491345944
   192   1      27.278778263124863      18.754278370452589      1.4728559697323715
   193   1      25.803456629997076      20.235518133227483    0.095003515139410522
   194   1      27.340868243321044      21.476196806100084      1.7140116611961729
   195   1      25.801742558377398       22.84751869097866     0.12069096138146733
   196   1      27.301995617875242      24.371770627934335      1.5851422731048155
   197   1      25.860161614751238       25.81300174033866    0.084784659956869776
   198   1      27.203057205193598       27.17977808284947      1.4765474239524101
   199   1     0.11108164320837671    0.040551373344624261      3.0368250807289434
   200   1       1.642290932477066       1.420949899369897      4.3751389873860385
   201   1     0.11794512178333912      2.6937319653568572      2.8477966875509857
   202   1      1.4893439483360007      4.2485602138573908      4.2268733040323925
   203   1    0.043321979560528745      5.6909338982965743       2.836114663874469
   204   1      1.4368576495959466      7.1598831592953571      4.2381001552961202
   205   1    0.045656496671506987       8.752942748028298      2.7801613593867955
   206   1      1.6130263336984183      10.012684173811268      4.2884446418366462
   207   1    0.050255972392484104      11.488103341503525      2.8121167976763211
   208   1      1.4004848076052003      12.868562176671624      4.3191436947725572
   209   1     0.10707366846037396      14.373922667152904      2.8620449847892471
   210   1      1.4986108435229435      15.681975835654208      4.2327035363041121
   211   1    0.084668006382891112       17.26510900607358      2.8953195998999357
   212   1      1.6314206665241062      18.480101114730367      4.6138887192672406
   213   1    0.086277830299810884      20.013556180238947      2.9967122828696282
   214   1      1.3833811995907941      21.316024374436331      4.2588839438421244
   215   1     0.10432715093795794      23.027327968802535      3.0144342045941208
   216   1      1.3605668984575703      24.605354646003327       4.275632810553466
   217   1      28.634440362783071      25.975421475506003      2.8668862639331656
   218   1      1.5001641478903149      27.368968061880139      4.2204934335170634
   219   1      2.9329870693158102      28.587715630685612      2.8506853542948773
   220   1      4.1878064124031384       1.501705490340999      4.1193412447114603
   221   1      2.8480635690565013      2.9253251531578646      2.6435921547248764
   222   1      4.3039020570366349      4.2671809266228715      4.1346190636842435
   223   1      2.8722814784280706      5.8709394167523117      2.7635331366688218
   224   1      4.3635123745260946      7.2466181539711343      4.2232330410557211
   225   1      2.9787080498886183      8.6378083405803689      2.7030332965741759
   226   1      4.2594503850956595      10.148328019983529      4.2999326571865382
   227   1      2.9329455248247913      11.590090249104803      2.7901805971128173
   228   1      4.3061767386704952      13.141606327304304      4.2275917548303594
   229   1      3.0178752915825515      14.463420418413317      2.8327424236502114
   230   1      4.4274608812786225       15.82061015689677      4.2340065559531332
   231   1       2.981392010872487      17.142205663727051      2.9738735063996491
   232   1       4.365687446437148      18.669809090318413      4.4077136149645693
   233   1       2.876197076713185      19.954384327990905      2.9939289839617107
   234   1      4.3770143181203922      21.437907580540777      4.1304969345687637
   235   1       2.720936690783208      22.967522474211201      2.9645234817000388
   236   1      4.2783516304020974      24.382842029024609      4.2892548308718466
   237   1      2.9665710602407014       25.91322757123891      2.8511112531314322
   238   1      4.4199909186782413      27.189128921137829      4.3059612743156759
   239   1      5.6698830900094901     0.12154825357166621       2.847137620565535
   240   1      7.1607971768174119      1.4161462811840799       4.080442493826844
   241   1      5.8381757175799258      2.8330329715727873      2.6517094360657882
   242   1       7.213025395523883      4.4561784350675122      4.1771371546641012
   243   1      5.7337893982663912      5.7691246296227874      2.6628456280097001
   244   1      7.0781690524546548      7.1204155267205271      4.1634937971198047
   245   1      5.7503854295437034       8.686327945672911      2.8143463790553351
   246   1      5.6535373897759822      11.585165754887498      2.8090763821975862
   247   1       7.201425189957491      12.974583221381666      4.2433368053676732
   248   1      5.7480028220779937      14.416080477262968      2.6719267423838895
   249   1      7.1861046581654531      15.824457817675388      4.2660949748899366
   250   1      5.9417049827188739      17.241150273516926      2.7114998976804037
   251   1      7.1873693811006669       18.69176776120095        4.24286385088923
   252   1      5.7173763848100529      20.014366010116856      2.8924634123376274
   253   1      7.2488656536121656      21.500568099417038      4.2598922163977466
   254   1      5.8331742003270355      22.844622046224853      2.8151115146864183
   255   1      7.2940284699748226      24.257854542678285      4.2793708148296208
   256   1      5.7179481004680541      25.732601483546464       2.944696695604089
   257   1      7.0846702812777345      27.270645828964152      4.1992519206051488
   258   1      8.6474381663832709      28.633379602246254      3.1585252606792666
   259   1      10.067924608312907      1.3506338236057218      4.3208800078543392
   260   1      8.5897304003832105      2.8881423845174887      2.8785238629331751
   261   1      10.087335856329162      4.3126779069945149      4.2091686964602033
   262   1      8.7044792400457567      5.8447635063255543      2.8696898097101897
   263   1      10.079294515442298      7.3137108225707799      4.3657033122825784
   264   1      8.4439661721114643      8.8951123995303867      2.8877432627457256
   265   1       10.35744440686296      9.8981410926127236      4.1493978936319333
   266   1      8.6535172852680837      11.461058138126123      2.7628668892679324
   267   1      9.9833284745088093      12.937353338551452      4.3140500533570032
   268   1      8.6309285959662674      14.251206061659017      2.6825757408322941
   269   1      10.144206966894568      15.766763758814843      4.2587433438626423
   270   1      8.8287610177764222      17.228912148752102      2.9521178126685652
   271   1      10.150566652446106       18.60041521228591      4.3476662124522027
   272   1      8.7276437945392793       20.07292631431131      2.7712113275645498
   273   1      10.132478757164545      21.444479551433687      4.3202978098964513
   274   1      8.7186071642704626      22.834486634607206       2.883545816764856
   275   1      10.116638338769159       24.60190812733957      4.1620316216757711
   276   1        8.49614345547689      25.888722841058467      2.7859905057424146
   277   1       10.18048249161764      27.252269064819501      4.2060869726723844
   278   1       11.46831901818121      28.684859099435347      2.8285645516845865
   279   1      12.895266780410463      1.3546924589692144       4.369323724355219
   280   1      11.486658859445242      2.8130114870556198      2.8378722176486111
   281   1      12.757400317468987      4.2085229506235402      4.3549198307336381
   282   1      11.500253318087102      5.7752055592966496      2.8237330910213689
   283   1      12.971194169442285      7.3217844023037122      4.3344045089500218
   284   1      11.667267726148422      8.5427402121658869      2.8298824492125392
   285   1      12.925087384269142      10.112194441182607      4.1914156028357343
   286   1      11.594733707293376      11.700889238060071      2.7559329849854395
   287   1      12.803761071989094      13.093674830290684      4.1736583468645314
   288   1      11.563777733111639      14.411351900825455       2.779322403607567
   289   1      12.959077821352832      15.924301128622293      4.2626780103553177
   290   1       11.51880946955086       17.25922563257463      2.7676697947707227
   291   1      12.826033098993767       18.75030365345188      4.2917432253763801
   292   1      11.412632045075842      20.121652833761487      2.7798205386959594
   293   1      12.903516069535717      21.610577135481321      4.3024383902165901
   294   1      11.459123789882076      22.702127855918565      2.8374402330179245
   295   1      12.736572281707531      24.468956199047437      4.1296404673806384
   296   1      11.437105385733279      26.014261409475374      2.7042215182953662
   297   1      12.895138318229559      27.160533067256875       4.445818006239894
   298   1      14.184393670392929      28.621899066831435      3.0084331661276851
   299   1       15.70898069048526      1.3678377599545002      4.1404593239875478
   300   1      14.320036327730167      2.7907275698737055      2.8743639470846931
   301   1      15.815648140309278       4.124980158062173      4.0385012010333314
   302   1      14.256840647404836      5.6872758098523031      2.8310764023407713
   303   1      15.780309124772614       7.169117836335511      4.1852441663654689
   304   1      14.394172548331291       8.806665940923434      3.0183015731959357
   305   1      15.831417158032973      10.111569126684687      4.3050839990776018
   306   1      14.668868842113612      11.614406491901244      2.7338131792295473
   307   1      15.742736395893486      13.070926892464728      4.3780840389775264
   308   1      14.472331541026639      14.501444685000891      3.0851368797242111
   309   1      15.832211396200368      15.952654542502396      4.6072363442919899
   310   1      14.471986862866238      17.309439025714351      2.9847172754426738
   311   1      15.855036958270974      18.496360648011191      4.5459549378791042
   312   1       14.60132604469765      20.129726468639223      3.0450205119600349
   313   1      15.993935852677248      21.514319651870775      4.5537805183664029
   314   1      14.416166670288799      22.815965972833787      3.0151004213506738
   315   1      15.829038721925881       24.50326022147236      4.3439247910719629
   316   1      14.406057100565004      25.830810860273356      2.8055548991565957
   317   1      15.762274291425411      27.242759144948788      4.3148402717788938
   318   1      17.246588578364523      28.649278587152342      2.8950316864567984
   319   1      18.742708163997673       1.385022851604891      4.3179939843864403
   320   1      17.205857113566331      2.6819878644978634      2.7270861212358803
   321   1      18.517301354888499       4.268518725158593      4.2726861125175377
   322   1      17.207953906954096      5.7827290809077541      2.6826323826785692
   323   1       18.57681832452694      7.2660495058506935      4.3016811433281186
   324   1      17.106812988038978      8.6395772043123671      2.9774885830988964
   325   1      18.708942198748101      10.032682393716925       4.209761082138197
   326   1      17.392020958352848      11.368256042501425      2.8089465379840344
   327   1      18.741491404839618      12.938623012654165      4.1366664336789958
   328   1      17.306733067652992      14.325001292578483      2.8846585207228101
   329   1       18.74995929956609      15.737297340608844      4.1756212813277225
   330   1      17.176511741678013      17.250823204358444      2.8726247760828247
   331   1      18.683142486354129      18.559877987040078      4.3374987420435058
   332   1      17.363806812386308      20.052774868804555      2.9552627053660339
   333   1      18.746394196588575      21.609667770037817      4.4084639434969093
   334   1      17.063864118079962      23.051702174525278      3.0275530367818546
   335   1      18.643751375767643       24.30699689522838      4.3985410461591021
   336   1      17.247332881768184      26.100687847009137      2.9813101555173627
   337   1       18.61577024199082      27.374712351086835      4.4508249462997833
   338   1      19.976040940359432      28.674418410976603      2.8104970159631422
   339   1      21.534711361970132      1.3121273760440542      4.1094684649364366
   340   1      20.067518399890766      2.8392848476606902      2.6893577676815772
   341   1      21.271960631858597      4.3050100660035202      4.3822242085505847
   342   1       20.15443920146221      5.8282476110481882       2.856441474785048
   343   1        21.5627313439315      7.1679769946319674      4.3550070532093503
   344   1      20.159500949289423      8.4069123052767569      2.7295582539461867
   345   1      21.498390735696869      10.124684088061205      4.1983350046780439
   346   1      20.075411162647956      11.585578448454024      2.7787625253638466
   347   1      21.629632938768058      13.036829859455159      4.2467472205212822
   348   1      20.055948167672693      14.254289975449666      2.6531392496654918
   349   1      21.487368817738396      15.680847415401841      4.3292672395551266
   350   1      20.249440106762954      17.167004360320899       2.941432623932255
   351   1      20.272627583700146      19.710760453526067      3.1027638305476501
   352   1      21.541349134287952      21.641578966048566      4.4989027663471193
   353   1      19.966329032458784      22.842944782915421      3.0331646356141038
   354   1      21.447744014000207      24.350033416801228      4.1739670761688412
   355   1      19.964600633739217      25.740288090259476      2.9078399988491674
   356   1      21.454963694117247      27.188809303904133      4.2093444360041685
   357   1      22.841515033518089      28.650298599572313      2.7664453367005066
   358   1      24.390789299497609      1.4334546320077255      4.2049391439109352
   359   1      22.964117469041746      2.8536478397577958      2.9191363169745683