dump/Fe_750_20/steps_11 (written by ASE) 

1980 	 atoms 
1  atom types
0.0      28.699999999999999  xlo xhi
0.0      28.699999999999999  ylo yhi
0.0      28.699999999999999  zlo zhi


Atoms 

     1   1      28.646307635150084    0.044690587465117941    0.017095016155337827
     2   1      1.5519602289369234      1.5634482012927391      1.3449381402519747
     3   1   0.0083125185796708492      2.8674630535089367      28.665575904862621
     4   1      1.4458542288999408      4.3440249160613407      1.2635632365335594
     5   1      28.654049132554793      5.8122803090400028      28.423969541082798
     6   1      1.5022065764962342      7.1630328880124257       1.270896168259912
     7   1      28.573785971698701      8.5183041351963169    0.019099871618482214
     8   1      1.4469657222142358      10.047676858429581      1.3379110115963269
     9   1    0.077355741397380121      11.410406045948172      28.493001905351093
    10   1      1.3962486761399322       12.85031328429222      1.1914152611688904
    11   1     0.12734884031638366      14.106517550467768      28.622753943644927
    12   1      1.4081869383547094      15.773158217986891       1.575690024275763
    13   1      28.686357453739262      17.219277412315634      28.675193906056123
    14   1      1.3775495416887122      18.624948091778641      1.5377794921545715
    15   1    0.011500993515133619       19.96520415132014       28.65458683949338
    16   1      1.4850821707162372      21.340628976033443      1.3609433962481492
    17   1     0.10651607732730906      22.972044045982951    0.044726283365184777
    18   1      1.4400941463572867       24.68469362516657      1.3032140134481327
    19   1    0.072016276141213198      25.848743557848074        28.5513776853136
    20   1      1.3967862887897717      27.414123272748188      1.3902893749803986
    21   1      2.8511885351788364      28.534400086026384    0.012945868370343292
    22   1      4.3704551355003343      1.4753367438344975      1.4803922155346849
    23   1      2.9232964493399858      2.7528538182537883      28.462250268840098
    24   1      4.2229519780630813      4.4087491897182884      1.2508291261362381
    25   1      2.9295165602573072      5.8340616585150196       28.39889863713255
    26   1       4.520604290481093      7.2695216548769057      1.3880345160043703
    27   1      2.9756170435337514      8.6995879352850807      28.621892962980898
    28   1      4.4178155903395178      10.116094722828647      1.4747596068377462
    29   1       2.917721502614107      11.294456607037274      28.603114055889595
    30   1       4.301343412442173      12.851225510403093      1.4521001971768548
    31   1      2.9035025777239198      14.385056745371996     0.02877006457553084
    32   1      4.3969492239114416      15.857942435725027      1.3386782626521498
    33   1      2.6634514159630505      17.077505173224079    0.093337116978420814
    34   1      4.3020345422645487      18.583834260017099      1.4388151229238708
    35   1      2.9918295930589229      20.156799408247092  0.00012545904936587249
    36   1      4.2755075273827314      21.652908914309279      1.3533256250132228
    37   1      2.7605967651824117      23.022154197530934     0.12288081879797803
    38   1      4.2365092832674893      24.489165871001557      1.4736673552832478
    39   1      2.7874223721437059      26.106616907726586      28.632775618536716
    40   1      5.7521813163728419      28.596678854202953     0.29575156195852575
    41   1      7.2912973976234428      1.6429964890326112      1.6898298822464295
    42   1      5.7952033028675993      2.9553978267672756     0.18608751857342448
    43   1      7.1434239426948656      4.3718802339317415      1.4564395592186197
    44   1      5.6979140940671149      5.8067703786607128      28.642220507285206
    45   1      7.2307623869578155      7.2251068235839089      1.3609537855774296
    46   1       5.771238185039544      8.9579703389758016    0.059428099964600238
    47   1      7.1563655618689532      10.342335898868537      1.3231384256499958
    48   1      5.5759877826662274      11.580165275861441      28.538898303392404
    49   1       7.233485791824398      12.883988505336603      1.4729301780018209
    50   1      5.8447201477664024        14.4126962684202      28.644703633533997
    51   1      7.2081119953771617      15.971049473453769      1.3392256618919645
    52   1      5.6946021017230999      17.222745620076783    0.034163357835223104
    53   1      7.1841657318238816      18.868379093835578      1.2713932273902853
    54   1      5.7273802552646451      20.175164119217445      28.697733088272223
    55   1      7.1543700236206558      21.559315245575643      1.4503065042724426
    56   1      5.6597775200628355      23.010735391668774   0.0049407598029347312
    57   1      7.1804036275420833      24.446355775393759      1.4257682700871901
    58   1      5.6134570117411506      25.787003964223036      28.660570357424824
    59   1      7.4082953396660436      26.946797152074751      1.3067690449334248
    60   1      8.4700460637164454    0.026722769041407454    0.041613539306820359
    61   1      9.9662061406667792      1.3179657792003026      1.4107975654016727
    62   1       8.761559695587712      2.9909417259818389     0.11169813519577468
    63   1      10.061798221983953      4.5987825171479075      1.4614882843007879
    64   1      8.4810007237404346      5.6362138181974926   0.0093093924582831333
    65   1      10.019259251100458      7.3061727839020545      1.4447981393773939
    66   1      8.8153276116936556       8.808485630431246       28.65529944627815
    67   1      10.185311741901783      10.150424080073785      1.4992610191264235
    68   1      8.5427166100327465      11.623582245798763      28.666828785908592
    69   1      9.9821566161955975      12.919058201994819      1.4949769217207285
    70   1      8.5295717048200448      14.340601924347377      28.677477025182156
    71   1      9.9909882551071867      15.611908510629849      1.4500352407122032
    72   1      8.8211975005280081      17.327465631599896      28.549285211721241
    73   1      10.041016482947372      18.714611813387062      1.3405536387983485
    74   1       8.577005937544202      20.280691493628954      28.646643006915106
    75   1      9.9802709147201742      21.590600222986019      1.5038715584042035
    76   1      8.4712401138089337      22.793798563890412      28.615436749484914
    77   1      9.9561828584957404      24.197860795282828      1.2592917035913502
    78   1      9.9279428334360098      27.247538670571423      1.3385216027421061
    79   1         11.551862947415      28.563282865543872    0.032611312812230273
    80   1      12.893422051298451      1.4640795988501845      1.5625229719973717
    81   1      11.553861496416733      3.1032399510861972     0.13799915800134388
    82   1      12.871610369471179      4.3504241886482031      1.5605431898987703
    83   1      11.480333361891601      5.8818831683694865      28.639119981241663
    84   1      12.855808839699639        7.27695295347523      1.3138938737086059
    85   1      11.439791061168389      8.6612626021599759      28.646828252174746
    86   1      12.913906739794067      10.220501063009335      1.5664152201559325
    87   1      11.426333015104118      11.716870550760184    0.044167973202922997
    88   1       13.05189022163033      12.893749629950632      1.2491814658817912
    89   1      11.529695124114031      14.303219842334778    0.030401248460168642
    90   1      12.965056075996195      15.795176623431036      1.4830256706060596
    91   1      11.535960427362774      17.134134156189862     0.13133924146628725
    92   1      12.937156869441219      18.519199171897057      1.4676620537372742
    93   1      11.380866561081772      20.008182109214385      28.604079874174452
    94   1      12.681113636770446      21.337486774891769      1.2758775500654791
    95   1      11.341464985648212      22.856765137928754      28.637776939138284
    96   1      12.970352353468808      24.309470291697647      1.6177891546261671
    97   1      11.625674572102906      25.904824191227743     0.12380576833003271
    98   1      12.959009534369793      27.271412161026067       1.734135062776248
    99   1      14.154867419417934     0.13059166897925248    0.026406745684460008
   100   1       15.63604687750705       1.234997396701204      1.4586204495004491
   101   1      14.386403194507205      2.9746690583156021      28.683519025562845
   102   1      15.728822077434362      4.3064332451117222      1.4897379448235584
   103   1      14.295712492385945      5.8501876048070987   0.0090466983872715921
   104   1      15.789416662369399      7.2395181847027175      1.4786548222564881
   105   1      14.418521658319664      8.7722559276709742     0.11202483697369418
   106   1      15.889569142597756      10.138137959040698      1.4361425007835233
   107   1      14.497571085696956      11.452860605448143      28.649493714907283
   108   1      15.894901482305952      13.024373649752414      1.2899568160364867
   109   1      14.303953334693945      14.366462376226286    0.033228681876187098
   110   1      15.791869779188096      15.706603512463136      1.4071527601988343
   111   1      14.281382941487784      17.201995529496696      28.593977543252485
   112   1      15.747391095400147      18.669425684958558      1.3466054447993649
   113   1      14.404908955036692      19.961255266072477      28.677290615521073
   114   1      15.692805804388138      21.612350287132656      1.2948221831038713
   115   1       14.13028867971898      22.886269501756921    0.084322743363395444
   116   1      15.666426073457815      24.163585065381533      1.3695979866733747
   117   1      14.460600753244265      25.876665588368535     0.18791199182074939
   118   1      15.920443697218605      27.225175131083489      1.5161841921881773
   119   1      17.299503346544512    0.055932548117380042    0.022986434643200947
   120   1      18.760424318629735      1.6363079162258372      1.4868347890137543
   121   1      17.252503775732087      2.8552220057211568     0.13982666644712924
   122   1      18.662684952714528      4.4138078604851625      1.4130968122072873
   123   1      17.032164061788286      5.7019704804165317    0.027080102077820797
   124   1      18.438980602044253      7.0931023462668241      1.3893851697527553
   125   1      17.134618729937525      8.7182291285305027      28.572964229099178
   126   1      18.777848223505327      10.024174562028314      1.3378964660543935
   127   1      17.363116476879224      11.500845006081212      28.562202071830942
   128   1      18.911900927308618      12.937251494872449      1.3973259495753731
   129   1      17.374557308290182      14.405979831986478    0.065499125835208255
   130   1      18.668559326297345      15.792172742633298      1.4178055472681979
   131   1      17.119112422944777      17.236158661121134      28.692538285379499
   132   1      18.830680729131199      18.711148492597605      1.3641256458553133
   133   1      17.164826994982398       20.01664924062225      28.624336450685973
   134   1      18.868634475702905      21.400048793991946      1.2727944739137673
   135   1      17.341008123251711      22.895301694356348    0.014491998746757424
   136   1      18.727927353398922      24.544248586614803      1.3836046889791314
   137   1      17.037306688149894      25.857229512426265      28.621128348897301
   138   1      18.577082346542976      27.255372976219999      1.5084258121641723
   139   1      20.004234178838537     0.15195329875109739      28.652293386024613
   140   1       21.47655152478859      1.5865276937947317      1.4520558955344531
   141   1      20.157615047056446      2.9967482219764472      28.649333732539151
   142   1       21.47298257763422      4.3357489438826882      1.3629608197247198
   143   1      20.036029533229371      5.8072244488367746    0.062512713729631783
   144   1      21.503402655793643      7.2488722070227452      1.4419594875710802
   145   1      19.890211884378193      8.3827569939369226       28.50545656023569
   146   1      21.499572074463426      10.059266384615739      1.2589111053202158
   147   1      20.067559770871945      11.492420556773244      28.598983647228167
   148   1      21.552789686268365      12.963064386636278      1.4162569742200266
   149   1      20.253959813524283      14.377479588990896    0.097213993963248549
   150   1      21.554391911307668      15.737879502228775      1.4751070614947486
   151   1      20.021477568241757      17.155820492735486     0.17851304915408259
   152   1      21.593106977413367      18.598991188164785      1.4344567080750277
   153   1       20.19604823716476      19.964697144002482      28.625423133758691
   154   1      21.711306723070333      21.608064810705905      1.4337716675640766
   155   1      20.014426394679575      22.891847157468572    0.012686896251250359
   156   1      21.535486213962432       24.52865362776377       1.505761862653811
   157   1      20.026493464133988      25.989448984889407      28.557205424039811
   158   1      21.365218206381801      27.328081959737013       1.486378055900001
   159   1      23.005350531411629       28.66976240223882     0.11293976731315077
   160   1      24.462220973402729      1.5560332113230639      1.2889226815468302
   161   1      23.127914184825965      3.0319136750936879      28.632578447745633
   162   1      24.557820933827415      4.3776611172776771      1.4026346041248985
   163   1      22.964968253889005      5.7405988147506459        28.6695408036828
   164   1      24.483985019009761      7.1485969914395469      1.3452266238193489
   165   1      22.752739543674515      8.5041177402603179      28.684971809758792
   166   1      24.214630523443304      10.149438545100713      1.3161687877525872
   167   1       22.88919560105554      11.429991153991478      28.654534969213088
   168   1      24.573194373894935       12.80787340468698      1.4294461021933658
   169   1      22.892116231332658      14.459590347324969      28.651818760952011
   170   1      24.347771611539386      15.663363040546342      1.3869706393529786
   171   1      22.830690496227817      17.074211171955017      28.633353663146679
   172   1       24.40412343158135      18.666935246680648      1.4011529014152175
   173   1      22.890755498587584      20.140733697854213      28.608658234658208
   174   1       24.33928430375876       21.49446771456283      1.4415563314559661
   175   1      23.207315934010278      23.041107655722747      28.594951990434229
   176   1      24.447247963824218      24.394701700455148      1.4209512107757059
   177   1      23.002838928428979        25.9366849777062     0.09805475175778601
   178   1      24.332125264612554      27.219104545118274      1.5686475459124269
   179   1       25.90434301233833      28.534693217484477     0.10099176235080451
   180   1      27.310767092786921      1.4485014934260672      1.2409390604420296
   181   1      26.049204771984925      2.8783142270377562      28.667205366057448
   182   1      27.270727212360008      4.3262955346997165      1.3884762692240995
   183   1      25.779170520537658      5.7674467270142511      28.672263193685893
   184   1      27.293141546741204      7.2260405967325632      1.3236397543007004
   185   1      25.756570813149576       8.665124717180527    0.072116812662579799
   186   1      27.293909682733702      10.043434885078444      1.4833779182233122
   187   1      25.953358039817171      11.308783890486518      28.529692836793064
   188   1      27.313932772600165      12.829032401765733      1.4216468661186814
   189   1      25.964480803167877      14.367634935897298      28.595946191867327
   190   1      27.319956128291231      15.797927310103157      1.5434307570148229
   191   1      25.750091939996821       16.87738057768702       28.68814039277996
   192   1      27.232438688987305      18.712729393997325       1.378982123125513
   193   1      25.687353221984754      20.205866895713829      28.630653958857181
   194   1      27.391707777898869      21.567974875437237      1.4953261668687912
   195   1      25.945601479894258      23.031363168681018    0.034988913427286973
   196   1      27.322903916595848      24.286420035637821      1.4554418800061615
   197   1      25.955109173349147      25.858929420288927    0.012662171260433289
   198   1      27.477123880411011      27.235849660133901      1.4405529819228375
   199   1     0.10387664322428246     0.11246820311897647      2.8403058082718418
   200   1      1.5279548094915743      1.4103548237521302      4.2831790953438729
   201   1       28.59939487982648      2.8219739659682079      2.8086189743995198
   202   1      1.4100278024437434      4.0979919904308053      4.1239500379017917
   203   1      28.673609343577144       5.869141895156333      2.7835033598639249
   204   1      1.3770832668198865      7.1924881547908361      4.2073185104546003
   205   1    0.045737379127809424      8.6238236424128161      2.8183346019583149
   206   1      1.4608563601022309       9.895789500712576      4.4616075692886259
   207   1     0.11536550700976798      11.661542331345807        2.91500464463574
   208   1      1.4526062719436161      13.006376102688071      4.2633001319173935
   209   1      28.571186636916995      14.284325868303299      2.9499598825811524
   210   1      1.4126554284488411      15.698336619447833      4.3856944336204355
   211   1      28.674134371410076      17.249263556692529      2.8139953784425078
   212   1      1.4985778844338946      18.609828428408591      4.2028758293847668
   213   1    0.065280296946731625      19.952616426201224        2.85152371053888
   214   1      1.4972036696768585      21.390931718095406      4.4266411618820625
   215   1      0.1208895144074873      23.003775457916628      2.8242708593301917
   216   1      1.3798444625306046      24.399019963466074      4.3214848506786492
   217   1    0.057021711739846097      25.825408483817476      2.9476019835996889
   218   1      1.5275547568492722      27.363980364496886      4.3494356704336861
   219   1      3.0357565022345794    0.012783193912935257       2.975835806249127
   220   1      4.3803508533380828      1.5655499206003258      4.2949878958804462
   221   1      3.0495940387473262      2.7781122498954685      2.7450632246346012
   222   1      4.2900465775591208      4.4263028361462844      4.1868976313390958
   223   1       2.764824216033595      5.8844497336429287      2.6225808243809854
   224   1      4.2401769960388425       7.291339436782895      4.0689649838807753
   225   1      2.9085886784018817      8.7663852439927403      2.7098266590433342
   226   1      4.1916788825064977      10.012473019295388      4.2397747294316019
   227   1      2.6751062055102475      11.405251975412927      2.9626061985415371
   228   1      4.2963483854938129      12.858125945667927      4.2223781078363576
   229   1      2.9994358182878602      14.486059931471239      2.7974114818151854
   230   1      4.5086201076132122      15.730316808817618      4.3333333346960412
   231   1      2.9871518029269679      17.148093327585944      2.8985469627903631
   232   1      4.4126409709782104      18.617191585290776      4.3294406213126706
   233   1      2.9246360310808979      20.030836275173851      2.9439865332236272
   234   1      4.3774695104493802      21.866582170709354      4.0999612118078526
   235   1      2.6682541388462382       22.95164953691274      2.7365401820187678
   236   1      4.3415303897374615      24.559871670212392       4.327178355397197
   237   1      2.7965108178710265      25.923774488162344       2.897582223148806
   238   1      4.3423466447223786      27.263437857628308      4.4488709196109468
   239   1      5.9324940921444727      28.688209437697978      2.9098699996643025
   240   1      7.2227974801102146      1.4973864225835323      4.2846767486276907
   241   1      5.7457266432048257      3.0285937275957933      2.8320005995042141
   242   1      7.1040141047374581      4.4404667808556475      4.3207297448084292
   243   1      5.6977320179003161       5.601689050513742      2.7405451193006574
   244   1      7.0101132993010671      7.1055525375133319      4.1782665582465128
   245   1      5.8958630491676747      8.6455762022584253      2.6914426950336274
   246   1      5.8538384007126725      11.356245160142109      3.0953165182854629
   247   1      7.1511066061133182      13.022269515099149      4.2944413033481359
   248   1      5.6738825483052944      14.359117680117173      2.7321849377392016
   249   1      7.2347214421726234      15.653792035378293      4.5322317273838468
   250   1      6.0397293597208908      17.227919763335056      2.9368108962135242
   251   1      7.2109237779801232      18.755191683918461      4.1427128531391695
   252   1      5.6277550179565612      20.102959368701054      2.8530108830302652
   253   1      7.1631714582551558      21.591697533977911      4.2057128989555173
   254   1      5.8594987863697572      22.973234687023965      2.7584228670680648
   255   1      7.1002743806395188      24.375641577019028      4.3368434589870768
   256   1      5.7059635831456097      25.851293109284988      2.9395297767537301
   257   1      7.1270333209759729      27.236565170739983       4.416297143290314
   258   1      8.5326921395193747      28.614828881392501      2.8610800605867217
   259   1      9.9096503074097608      1.4689900732070444      4.2191879349301384
   260   1      8.7720242083248952       3.082855352504704      3.0536356811464809
   261   1      10.009053566422692      4.5308717196160746      4.3856822067829508
   262   1      8.5589924467641225      5.8240069250591979      2.9697992310589147
   263   1      10.051090859067992      7.3744365699085748      4.2491634238334299
   264   1       8.433626816456874      8.7396677047923497      2.9899050777596385
   265   1      10.201678201781457      10.215325309207341       4.186679067759675
   266   1      8.6120686307357968       11.56987258099957      2.9108877351650082
   267   1      10.058997954263029      12.846161102212564      4.4380377587797044
   268   1      8.6522822075108028        14.3220552599148      2.9665225970705307
   269   1      10.032713393115262      15.784560801998168       4.243504229677054
   270   1      8.5850190337663523      17.396784226811175      2.9780428971775335
   271   1      10.105103210762959      18.688645455334285      4.3082927999140104
   272   1      8.6556697287801114      20.145215396409391      2.9445279039740728
   273   1      10.029045420219481      21.584758152787732      4.3044315703586919
   274   1      8.5964555184229461      23.058324639551923      2.7459376965590421
   275   1      9.9797950235638524      24.300352102314243      4.2646053620368836
   276   1      8.6297243979142912      25.697731754428201      3.0841687547126786
   277   1      9.9803756616527792       27.05426857438918      4.2740045350548161
   278   1      11.349463756548683      28.596862305808234        3.04533308159108
   279   1      12.733484262095113      1.4418393097030853      4.3710885754676942
   280   1      11.437682515894444      2.9553705232020513      2.8075214795253252
   281   1      12.884294395406936      4.3053824705830914      4.3818338145405464
   282   1      11.487564783930207      5.8459096971617877      2.7631842736906935
   283   1      13.068400866732835      7.1465525724398402      4.1994223392071115
   284   1      11.459289713979771      8.6008851540222331      2.7372299917301692
   285   1      12.924250704816979      10.164276727674974      4.1588016242536909
   286   1      11.652330275842994       11.71736429644274      2.8628571011545993
   287   1      13.021033318784539      12.873331303568079      4.3262424710556449
   288   1      11.616090169423188      14.307524775185021      2.8060837743019516
   289   1      12.917975696604033      15.786956546824989      4.3360882921348916
   290   1      11.419649871900795      17.138284682114953      3.0121216544579181
   291   1      13.006759120755408      18.573314507868631      4.3049563604239651
   292   1      11.405454234781571      20.158397556356782      2.8102919797030959
   293   1      12.815758151748797      21.524801638445602      4.3220728735883958
   294   1      11.563745950047807      23.092752911260277      2.8078424668921924
   295   1       12.93713468962013      24.325827081260936      4.3419736758818344
   296   1      11.285413478610344      25.838471242283077      3.0034051682691247
   297   1      12.749552001715745      27.218565378319184      4.5072523079202824
   298   1      14.268097328505339      28.566366276106113      3.0331609369195127
   299   1      15.704747582912825       1.596458277189253      4.2916342688058435
   300   1      14.284459832587352      2.7998229205176477      2.8645569477710069
   301   1      15.766580831533705      4.2726494487270532      4.2171454141106341
   302   1      14.414011269673731      5.8580791510280061      2.8091698814822492
   303   1      15.695682762416077      7.3917040211229716      4.3471634006053597
   304   1      14.461988475172802      8.7585193089326694      2.8313896463722581
   305   1      15.731113213662034      10.177759351697951      4.2784638090877962
   306   1      14.466073487169185      11.531041424996799      2.7823171051290951
   307   1      15.735055057304054      12.702918992644275      4.3465030619975789
   308   1       14.29295945386899      14.241983483779231      2.8964742457855297
   309   1      15.803092325066668      15.759573392321801      4.4099762596599197
   310   1      14.424843225065507      17.210718213266841      2.9231242960508412
   311   1      15.839561197145645      18.768197248391651      4.2522977951882499
   312   1       14.24898842574232      20.014906881761451      2.9029223212143518
   313   1      15.671108651590533      21.474906542382886      4.2905338641785304
   314   1      14.199333907218323      22.690133542074147      2.7351116197760788
   315   1       15.74461178443512      24.128281596892148      4.1673581693440678
   316   1      14.385526037242604       25.71396749262626      3.0770073182804452
   317   1      15.713239776203364      27.349071709540546      4.3815078105346119
   318   1      17.219033181282082      28.694134295025751      2.9829921775340509
   319   1      18.735460296778477      1.4765079332614053      4.3060395297089151
   320   1      17.245057204226168      2.8058386796737751      2.8699159739356901
   321   1      18.439751014725985       4.448768073573194      4.2161264178984261
   322   1      17.090565865340899       5.888710713319119        2.91357894849954
   323   1      18.707976180798735      7.2090251795052005      4.3393298848868884
   324   1      17.306640474124983      8.5485580328009902      2.8468045368573827
   325   1      18.704939555833374      10.123181810256551      4.2580175261566744
   326   1      17.290292725785086      11.633165509616727      2.7651841359711167
   327   1      18.571418484760777      13.017793815570109       4.464639035764117
   328   1       17.21684990244551      14.244579342156859      2.7739469752204853
   329   1      18.632193208355744      15.762343506424033      4.2326169906922706
   330   1      17.190361775704627      17.203098989506238      2.7343700551476453
   331   1      18.621291934488521      18.782462035488191      4.2230386923818743
   332   1      17.095813743059345      20.105463731033453       2.644151128647557
   333   1      18.612437602058694      21.488114224230376      4.3428565583606531
   334   1      17.261852334326171      22.777990101748934      2.8011780551643946
   335   1      18.575806085592362      24.435062461551702      4.2620820889047373
   336   1      17.004802558517522      25.683590152765383      2.9858406950600749
   337   1      18.449000608028783      26.978720285749688      4.4534036965064132
   338   1      19.949393289830503      28.572366343396482      2.9573022965064428
   339   1      21.403728663929922      1.3857484115421805      4.4921672440214122
   340   1      20.222932595122664      3.0240797013089811       2.985749733597296
   341   1      21.730654567218526      4.4643771560127439      4.4212017161268911
   342   1      20.000506431320336      5.8642087357710571      2.8361017382568203
   343   1      21.763489162772153      7.1484937033233527      4.2413513694223433
   344   1      20.035161811371744      8.5905168965856369      2.8344543268701163
   345   1      21.319241683554857      10.081961831789876      4.2670612061881075
   346   1      20.060661404197464      11.600734819871304      2.8731863595537819
   347   1      21.471560291877459      12.910225521959013      4.3267295624871291
   348   1      20.060017506388299      14.395270744759078      2.7952625849898585
   349   1      21.501212511667301      15.738622128484971      4.1947281599007518
   350   1       20.20157186836024      17.258361113173734      2.9930177613907363
   351   1      20.137243266795032      20.210844449715314      2.8796150707140211
   352   1      21.498743689044105       21.79187167844465      4.3817674201289005
   353   1      20.006467683644853      22.987768678689591      2.8978703074067091
   354   1       21.37539248885075      24.454712735590462      4.3407020277548938
   355   1      20.021003489434101       25.91020543743748      2.9242572325932938
   356   1      21.619028070135844       27.22829782672898      4.3520556535751824
   357   1      22.941746292850393     0.01106808727049627      2.8460741722430836
   358   1      24.394414812076676      1.3279393447885823      4.2837692722741432
   359   1      22.878686292137992      2.8749447702729469       2.714343488415397