dump/Fe_750_20/steps_91 (written by ASE) 

1980 	 atoms 
1  atom types
0.0      28.699999999999999  xlo xhi
0.0      28.699999999999999  ylo yhi
0.0      28.699999999999999  zlo zhi


Atoms 

     1   1      28.569180173520408    0.053265679143771776     0.11218822037168351
     2   1      1.5341962179394375      1.3961014346734948      1.4949036373752966
     3   1    0.038098455701049375      2.8673279839766233    0.016826588592346065
     4   1      1.4029007152673902      4.3212389060258953      1.5233546604272989
     5   1      28.658412099033232      5.5218574934251885      28.622891830323589
     6   1       1.263353594628053      7.0443738840469061      1.3627762479927252
     7   1    0.047656840546280901       8.519264173360348      28.632610471883993
     8   1      1.4103870092740762      10.026652670086577      1.5133882854213769
     9   1      28.684570824562329      11.469214974386496    0.085074204894226624
    10   1        1.42469774043765      13.022754356606217      1.3439726198553439
    11   1      28.693380023264101      14.416694031371819      28.627868052534851
    12   1      1.6536079797249956      15.977342411860816        1.22305177956274
    13   1    0.059360442051755134      17.377869578609452      28.674053930371485
    14   1      1.6301082167081986      18.795335698241228      1.4369590075498746
    15   1     0.11176391543522497      20.106519675559888      28.654790055990048
    16   1      1.6838238221194521      21.566958376558681      1.3416185658436237
    17   1      28.673012088230195      22.835021854078885     0.09384569604167152
    18   1      1.4043572671827302      24.362495523136548       1.398014260660797
    19   1    0.030603870578492023      25.856033108224523      28.560242587049419
    20   1      1.4068806997456493      27.240610072326383      1.2705451377499348
    21   1      3.0783543650355782      28.611254963454613      28.670695465928119
    22   1       4.321227791406085      1.6283124629038963      1.3678840167784057
    23   1       2.746696286362305      2.8823350838187642    0.023813250910870918
    24   1      4.3522169091236389      4.1491065391095372       1.443248234994154
    25   1      2.9689458603187546      5.6172859732938996    0.001413988637307282
    26   1      4.1346794785193399      7.0755779672776953      1.4584489586535474
    27   1      2.7607288623743451      8.4532495738622746     0.26972099332367616
    28   1      4.1987731605004539      10.147434560707291      1.4782455263379126
    29   1      3.0488561115183099      11.414803905687924     0.04640090788827806
    30   1      4.2149607224763272      13.047597745097642       1.478623526389242
    31   1      2.7652051090737144      14.433723174535739      28.666190198548225
    32   1      4.2210282189825099      15.891021396909753      1.4164433200409223
    33   1      2.9204716131225101      17.236860817199865      28.536160862664531
    34   1      4.3942630536806684      18.591819658320762      1.2489060412244712
    35   1      2.9471880894618248      20.112475863226539      28.688752983067122
    36   1      4.3544768166751648      21.470631236719417      1.5182763555213572
    37   1      3.1120916053964458      23.062944943382668    0.087143765653536348
    38   1      4.3412312961507187      24.361651580119467      1.5316926411943199
    39   1      2.9093864434082999      25.904330917034642      0.1461728503837208
    40   1      5.7001843936038181      28.571655679386371    0.062490732401738656
    41   1      7.0682678861282904      1.4540989606595767      1.3601103028191452
    42   1      5.8376549822538388      2.9697669621003189    0.053606278876964057
    43   1       7.191857274339819      4.3797446915349596      1.5122866090999414
    44   1      5.7005739956967103      5.6445181890455753      28.674376306157942
    45   1      7.0740239256256832      6.9787788076512216      1.3595763434357635
    46   1      5.7367954279783788       8.537123843699236     0.10054919987533144
    47   1      7.1113253926869051      9.9405854718970676      1.5483671429592156
    48   1      5.7073364873125394      11.374860733273559     0.14607739226646582
    49   1      7.1792160234255471      12.842073023645776      1.4691433934688791
    50   1      5.8639250606557844      14.104221782439934      28.686827435130173
    51   1      7.0033893313374058      15.689824160987053      1.3491010804696324
    52   1      5.8218637733316596      17.071571644343059      28.500588518544848
    53   1      7.2622874037223442      18.519377647188364      1.4329397290759871
    54   1      5.6801012675646678      20.212683008705827      28.621943146349736
    55   1      7.2922939884269873      21.484527968238787      1.5463785572841859
    56   1      5.7813116041447232      22.918793790462637     0.13145101224500866
    57   1      7.3565969156927071      24.461731827401209      1.3791678061289407
    58   1      5.4764222564372682      25.812740613882525      0.1172958171647451
    59   1      7.0018838211919281      27.219315960381802      1.4845930867897308
    60   1      8.4743879893628353     0.14121582918136258    0.069972829997925506
    61   1      10.083477141077374      1.4017907036581261      1.4773403998095542
    62   1      8.5337565513992288      3.0675669986942702   0.0094141025504654915
    63   1      10.139490847746957      4.4503739893229559      1.5253088155077978
    64   1      8.4518912838705216      5.6495711992541073      28.663336588092054
    65   1      10.078406220953102      7.1501881595161683      1.3125380135070375
    66   1      8.5648068793309093      8.6388927582760324    0.010343928730640075
    67   1      9.8698351737546091      9.7923602134330316      1.5722101979012688
    68   1        8.55935506957616      11.442595486697488     0.04047569026120082
    69   1      10.021722589765021      12.759702254861361      1.4505330516467194
    70   1      8.6185723190145591       14.17025427326551      28.693866137553471
    71   1      9.9622512790825439      15.637192342635116      1.3342213765115727
    72   1       8.538953249414881      17.233932136272859      28.645662430028302
    73   1      10.039856492692792      18.619502188180629      1.3457338179688918
    74   1      8.5757200482793703      20.184966295663948    0.054193739731408737
    75   1      10.034997896991861      21.457511459937734      1.4545539044568832
    76   1      8.6976586347061886      22.757577686110626    0.087982882788617045
    77   1      10.117244896400328       24.47032932692257      1.3593695493519353
    78   1       9.824717606075394      27.230537855841611      1.1169740577974159
    79   1      11.279354985645305    0.038888720213425945      28.603443963511058
    80   1      12.956949212951814      1.4098103212043944      1.2640212524382608
    81   1      11.422418846214605      3.0233647525852634    0.065011717470463345
    82   1      12.924709229413684      4.2394278881865839      1.3895961005376194
    83   1      11.348708091742408      5.6873584414271976      28.600996917103974
    84   1      12.899249673506388       7.205423355667345      1.3731671718662126
    85   1      11.629355573466693      8.4309056607152986       28.59891826255414
    86   1      12.908972600713547      9.8677003959857839      1.3282421945182574
    87   1      11.352955132730377      11.239535995411355     0.23951735114213765
    88   1      12.942076707344867      12.897253571825887      1.3777327931791996
    89   1      11.301564965717038      14.184600386551015      28.686130416784909
    90   1      12.938022304742868        15.5858402080706      1.3350268762591335
    91   1      11.378568265323945       17.22492876947107      28.629556312867468
    92   1      12.802223866803915      18.482606580040152      1.3813282506014724
    93   1      11.446814584491545      20.107582490244212    0.090988484256490657
    94   1       12.88429109092206      21.347104145251517      1.4758555633383812
    95   1      11.624685256385275      23.030240319905673      28.689881071290817
    96   1      12.968755188483565      24.458073471856572      1.4054418356203073
    97   1      11.701138812020464      25.973709969683565      28.645728387345461
    98   1      12.981241732408133      27.363355696858019      1.4123230152159736
    99   1      14.323273618761144       28.69779349384094       28.60093028803087
   100   1      15.939250331006418      1.5172806735284794       1.387720396495103
   101   1      14.355914989030442      2.6745822442449612      28.630638367182598
   102   1      15.693615385277566      4.3419446446738474      1.5347688293731934
   103   1      14.295101951653889      5.7010515658440113   0.0028133561920526524
   104   1      15.730250582966095      7.2058197666718744      1.4928818364315133
   105   1      14.346490456150196      8.7027419165036495      28.644768518157584
   106   1      15.722980754752861      10.120939325776558      1.4746448082573571
   107   1       14.48699417986486      11.394905954162473      28.541827289374424
   108   1      15.769315015537735      12.883516520774744      1.2302346432386233
   109   1      14.430347331928571      14.337519896419776      28.630538327897501
   110   1      15.565732588315305      15.692134627944881      1.3415324712927377
   111   1      14.286356710167002      17.139148083467543      28.655043781688136
   112   1      15.567995651903511      18.523036915847324      1.4934672291002145
   113   1      14.188213036974135      20.114930440985702      28.661793518393395
   114   1       15.59782826198134       21.37173740498346      1.6526485678251448
   115   1      14.151232685159181      23.043385169891998    0.077031875212117032
   116   1      15.629911538080046      24.402712351760744      1.4495376320655151
   117   1      14.386933364528966      25.874310705804785    0.018735733161645386
   118   1      15.834327113680509      27.338331013675951      1.4693791277217207
   119   1      17.265261003320528    0.019246840705352514    0.034781723756839196
   120   1       18.84157170147142      1.4951829109666626      1.3853545611013593
   121   1      17.238364524223957      3.0107678154804596      28.699879400893156
   122   1      18.721011240249481      4.4245532759978685      1.3952929210988947
   123   1      17.272468754889655      5.7328459999945443      28.681961084889366
   124   1      18.709548094729911       7.420550665474539      1.4009596271169358
   125   1      17.118176342442975      8.5974096938974007      28.633336610171064
   126   1      18.693380799434934      10.023063299766818      1.4380467907776269
   127   1      17.322310685475916      11.423570973610484   0.0066233245982289333
   128   1        18.7164741845151      12.935683207214487      1.4042235447611802
   129   1      17.297084949793785      14.329138547634713      28.651132455336185
   130   1      18.622450950369451      15.713334147510498      1.5269468142358629
   131   1      17.194808561026825      17.197050864570834      28.621305367723053
   132   1      18.522702265809833      18.533173346943709      1.4349305909443033
   133   1      16.880727736977008      19.979022045363841    0.079875324977308648
   134   1      18.583906100280984      21.342726985699702      1.5172157011743934
   135   1      17.041025404523548      22.817068542934091     0.12841173350069537
   136   1      18.537087904704986      24.418507822600905      1.4654492959108671
   137   1      17.028458908540106       25.80989589790147    0.078454220492358159
   138   1       18.61565788799421      27.345414863937325      1.3509727657421995
   139   1      19.980927391974024     0.10270504685943428      28.620775159376308
   140   1      21.413546182589428      1.5194799999262938      1.5001298331712976
   141   1      20.059234992079514       2.872713951752996      28.560728063242014
   142   1      21.367710149680804      4.3941186238708969      1.4156335682682322
   143   1      20.064812280584476      5.9408085190679669    0.071801726659384849
   144   1      21.514030768690493       7.346700709940519      1.3585162938510498
   145   1      19.916711132450505      8.7213063301975957    0.028352621081978668
   146   1      21.594953921384306       10.04250907703198      1.4909905637041909
   147   1      20.092588365650364      11.430714181317592    0.061444638116222514
   148   1      21.499743884968076       12.75890411361677      1.4787054399072639
   149   1      20.076073880886714      14.344746435193269      28.653072518105475
   150   1      21.550964949539182      15.687343534116071      1.5434597217299701
   151   1      20.076431231392228      17.128933142896198     0.16061570966415969
   152   1       21.62232203922381      18.524215892566204      1.4252385392269045
   153   1      19.976081129882814      20.132634569107196     0.25422006088419935
   154   1      21.492793627842588      21.431285676091377      1.4785608607161627
   155   1      20.023025452673405      22.956876138155604      0.1778440148253822
   156   1      21.509819581552048      24.404966022518437      1.3679739641819755
   157   1      19.895549722642816      25.813441608798165      0.0606462287598446
   158   1      21.425624780352354       27.27356345633487      1.3149147153347829
   159   1       22.83573707550844      28.602626253240093      28.669268207852696
   160   1      24.310006636611167      1.4128271569328841      1.2859096775638938
   161   1      22.743582476790188      2.8140637013850123      28.640870903819764
   162   1      24.027075715121025      4.2203156032674425      1.4231934272874591
   163   1      22.837797428246198       5.727247133425692    0.094980744409985954
   164   1      24.257481945925608      7.1816263721007401      1.4020067677700236
   165   1      23.137578369160892      8.5181297753585934      28.627535517411477
   166   1      24.441958504431749       9.946331870074653      1.4745725445130671
   167   1      23.131448928252404      11.458241421566992    0.051077187302280488
   168   1      24.263089355894248      13.016786880676168      1.4645124443967228
   169   1      22.917900947642561      14.426272769718105      28.671133182217091
   170   1      24.503452853179343      15.761843393105629      1.5273863825655787
   171   1      23.071646232896203      17.193746637299078    0.079206126649876377
   172   1      24.419665481448892      18.800271146877549         1.4891504157535
   173   1      22.928687533900913      20.064106641913749     0.17068361528550885
   174   1      24.333221954560781      21.484542681900393      1.4774854906977106
   175   1      22.988936134829569      23.062082450302363    0.021281736505591183
   176   1      24.416168360404335      24.388045022910529      1.5191838648064493
   177   1      22.874763521189902      25.934001764653512    0.086592123713705754
   178   1      24.299816052525369      27.387411135208517      1.2649104586517965
   179   1      25.878722927468452    0.048137598500285921      28.573297032205478
   180   1      27.178916898225417      1.4538680996517421      1.4891509682291828
   181   1      25.799030451830248      2.8513503133971869    0.053976057620286594
   182   1      27.425178237894922      4.2600667620069306      1.4327442257157359
   183   1      25.634152110462779      5.6613571026729836    0.090384715305253965
   184   1      27.165765445057541      7.1066411698912395      1.4374577679399181
   185   1      25.760678385319594      8.7496772347285745       28.62949364368523
   186   1      27.185880941558114       9.799938892186864      1.3743613775426402
   187   1      25.893614157333591      11.615519073050175     0.18425390358854657
   188   1      27.285149917970298      13.086198666709153      1.5747962448556445
   189   1      25.896812517285039       14.37685166366893    0.049500888575596605
   190   1      27.260860708666364         15.824737161104       1.309880771630616
   191   1      25.729495400578021      17.326528153834598      28.674744560972186
   192   1      27.171678109931364      18.651893517786661      1.4137032718921081
   193   1      25.933311397572208       20.20461043964529    0.038682253066645085
   194   1      27.239468859063599      21.538732538353401      1.3952979129438619
   195   1       25.85658641108262      22.986495379547048    0.039358904355481013
   196   1        27.3238027874485      24.308647961917561      1.5107858157215117
   197   1      25.905403288244774      25.727990102352202     0.10829217823136335
   198   1      27.205221419695587      27.243357490678637      1.4642518510253815
   199   1      28.610856154565344      28.563802162844201      2.8367157112161276
   200   1      1.5237339056395629       1.189568375693637      4.2144873656050272
   201   1      28.553385162459438       2.811188993960104      2.8522467973362704
   202   1       1.361691977397697      4.2204253459570946      4.3005773449714972
   203   1      28.667489067311127      5.6721055329426342      2.8454138279221071
   204   1      1.3698716212018112      7.3017996348195942      4.4762062263853819
   205   1    0.056087037996258748      8.5209216054503418      2.8648065980877293
   206   1      1.3777530763373096      10.004535389695139      4.2726300170944356
   207   1      28.590664713623568       11.55449995043576      2.8573229561764046
   208   1      1.5708820057765269      12.935232574887468       4.305158008475372
   209   1    0.051008131956315261      14.448125014093042      2.8559037695235472
   210   1      1.4292699108412654      15.895918615840632      4.3426442480489911
   211   1     0.18820340338036326      17.162129995144969      2.6414575290683393
   212   1      1.4458250376346888      18.736687867816279      4.1998839169673268
   213   1    0.047357150028029919      20.127344354527064      2.6987302171579022
   214   1      1.5671660803961482      21.490192889286469      4.1025543960693787
   215   1     0.17996776011571147      22.940847436572749      2.8493971922137908
   216   1      1.4235274091858308      24.491120947836308      4.3231737796120555
   217   1      28.657974422511419      25.890801903890505      2.7159416086965833
   218   1      1.3509351004739216      27.230079044512244      4.3079733064387602
   219   1      2.9379724643086309      28.641010169773992      2.5216261062776208
   220   1      4.3108174854000785       1.125747082509031      4.1648951159961349
   221   1      2.9196277958215768      2.6940107836293006      3.0032988632979873
   222   1      4.1882904820430493      4.2777771015440953      4.4347838075129298
   223   1      2.7563686021572025       5.662742387029561      2.9674248187334724
   224   1      4.2485006106827203      7.2616938966745046      4.5481093090507967
   225   1      2.8662150179202417      8.5978883187715986      2.8926445171032156
   226   1      4.4105479638883134      9.9454989954661581      4.2718512441480527
   227   1      2.8462619031962979      11.438894244210378       2.863276509853018
   228   1      5.6431928958740629      11.481754741509951      5.7729827693014402
   229   1      2.8675166102063621      14.538013052868555      2.8722229413772919
   230   1      4.4829373401688661      15.889987491531487      4.1985227851085494
   231   1      2.9598931806941784      17.325737217881162      2.9484392358679181
   232   1      4.3190748833217905      18.865590100331666      4.3674339272804241
   233   1      3.0125687266554397       20.11104503577317      2.9592904215148059
   234   1      4.4175583182598102      21.671210442963055      4.1361240698068062
   235   1      2.9083638772325098        23.0719194777894      2.8933034584899557
   236   1      4.3390255455692239      24.414106336832667      4.3019179610499645
   237   1       2.859543965831167      25.806981780680452      2.8667668883776511
   238   1      4.3610263061652281      27.322295239171027      4.2949768160291644
   239   1      5.8764303844923402         28.676015987223      2.9600896144322917
   240   1      7.2409716174772401      1.4390369312558737      4.2241570380456279
   241   1      5.7128802144622597      2.8747491130417431      2.8636332013454977
   242   1      7.0653994550392154      4.3297839602844048      4.4134929863820487
   243   1      5.6773057060751944      5.6151922746835581      2.9060968196423511
   244   1      7.2913315918370145      6.9640046365034705      4.3274406878768348
   245   1      5.7590726617233639      8.3888487363030091      3.0110033623597579
   246   1      5.5965661875801596      11.584454750721056      2.9099965817181705
   247   1       7.166914221029713      12.888650204750101      4.2116467465839591
   248   1      5.5771067067221693      14.226376228893006      2.8756503249327818
   249   1      7.2402675733428321      15.610722494726344      4.2272910619142197
   250   1      5.7595398834505112      17.311708865122775      2.8110209177179981
   251   1      7.1616934211518766      18.654547656859148      4.4222456825204475
   252   1      5.6585315890989714      19.924990995715461      2.8056727336924157
   253   1      7.1969596111663146      21.463368325599603      4.2247379148059903
   254   1      5.9143646691362193      23.119009148395023       2.853471943869657
   255   1      7.2320476753985909      24.347472446422003      4.2817642695309326
   256   1      5.7078386200213229      25.832719006696166      2.9048097635828385
   257   1      7.3095617721481077      27.222957143096306      4.2771035461452822
   258   1      8.6805044561364308      28.656664205586395      2.7928718164868203
   259   1      9.9566130204934034       1.543944448588364      4.2005836708690616
   260   1      8.6239921171356553      2.9310376003678096      2.6722176499923638
   261   1      9.9849426428504415      4.1842630634399196      4.2118544858914255
   262   1      8.6897895124201963      5.8307030203187278      2.9691005634126308
   263   1      10.162130638049314      7.1406884643495356      4.2555725088582541
   264   1      8.6007437386170285      8.4444539137365968      2.9378884267683771
   265   1      9.9548186194282184      9.9237049118581684      4.3195905893066859
   266   1       8.526000914519372      11.374935668507355      2.9002540811091717
   267   1      9.9702026193428495      12.814532713131722       3.955786200134503
   268   1      8.5317586762987183      14.304078149876252      2.6578045385150624
   269   1      9.8957707589200457      15.595355089618343      4.1183130909044312
   270   1      8.4894858996321716      17.114709888270486      2.9479160568063998
   271   1      10.009449828783268      18.487012088102176      4.3052751633217072
   272   1      8.6049785689217142      19.877076645791664      2.8429400801132152
   273   1      10.155803036050324      21.405411274182732      4.2720038360098869
   274   1      8.7050884965903776      22.934096617168489      2.8537653297765346
   275   1      10.039873006487051      24.465340771220678      4.3383861173919529
   276   1      8.7608793399400433      25.765068686604717      2.8579120804418934
   277   1      10.137107492966742      27.345547781436153      4.2746834118719947
   278   1      11.505973987136892     0.15806295951294955      2.9123040615616116
   279   1      12.789363558473795      1.3960683416721054      4.4754149333236484
   280   1       11.55862765321436      2.8372081100065207      2.9256378993037822
   281   1      12.980904058523517      4.3664062757996494      4.3079674105598782
   282   1      11.696401570463967      5.6985471271454431      2.7988045511667221
   283   1      13.110200165122089      7.2314002484011946      4.3586847756948277
   284   1      11.461592733829669      8.5112497275868222      2.8511217742195969
   285   1      12.941899430709633      9.8955332088926173      4.2549884788867791
   286   1      11.443424187895026      11.282882141715108      2.8448188202612532
   287   1      12.977749183565219      12.826909977969853      4.2761012660543205
   288   1      11.549491038266876      14.278402298856474      2.7770841842822604
   289   1      12.973852124536823      15.664617631389147      4.4489146911931767
   290   1      11.522688865837846      17.084070246032699      2.8865565235485198
   291   1      12.813911134423323      18.431142857907112      4.3910757017888553
   292   1      11.393373577508717      19.866480994271221      2.9062726509724732
   293   1      12.851059545575737      21.509501383449177      4.4446939901967442
   294   1      11.440126172528357      23.054429971310075      2.8785986123465546
   295   1       12.79483787172061      24.467909890421282      4.2198649302335767
   296   1      11.511260136592316      25.868062521050561      2.7001288708778484
   297   1      13.054119210466334      27.258580445313463      4.4645295470745996
   298   1      14.346652126617444     0.15666117907592264      2.7902756193770859
   299   1      15.769564558263223      1.4394810931847475      4.3721881492068153
   300   1      14.298331380230751      2.7964238937240222      2.7635735451530197
   301   1      15.756521076786045      4.2981959056415091      4.2476044470702226
   302   1       14.28991379630391      5.7055359758614275      2.8346923460736324
   303   1      15.731632963201189      7.2024201623343709       4.400111879247846
   304   1      14.371607503425807      8.5753074984332009      2.8250728556918361
   305   1      15.743970879234935      9.8788379280156207      4.3846055920832123
   306   1      14.299321622593578      11.454279765704843      2.7388327369726646
   307   1      15.856288606967418      12.751898953139898      4.5043869338937625
   308   1      14.392837667147814      14.117660570981769      2.9359119323185499
   309   1      15.635564307573098      15.641383102598143       4.341378743259134
   310   1      14.252744141982651      17.071144170093483      2.8993989860967186
   311   1      15.630880309249116      18.434812303460131       4.360968734420724
   312   1      14.240203919305362      20.073619367055791      3.0326002983165288
   313   1      15.699474632697731       21.33685060447916        4.52128093880403
   314   1      14.212909210613869      22.859271539619968       2.971212429828102
   315   1      15.677674353981613      24.442391273321761      4.2151595735211043
   316   1      14.308373703877113      25.898270557277677       2.803465200388644
   317   1      15.858611272943978      27.271824000107763      4.3738995406611352
   318   1      17.276270290277008   0.0056828859189410642      2.9432757798858571
   319   1      18.652128146823859      1.4774029020679447      4.3335529459547004
   320   1      17.370843515111918      2.9278250261543008      2.9326517296731662
   321   1      18.702562661832527       4.338129492618271      4.1082699308524457
   322   1      17.252579200678117      5.9327280812397456      2.7877418401396294
   323   1      18.616600688114257      7.1600173039346036      4.2121198343646054
   324   1      17.198206024430924      8.7234430347516838      2.7198566197538185
   325   1      18.583559674744318      10.095633375917547      4.3535643990078299
   326   1      17.281133852206576      11.407522227775898      2.9321626771120752
   327   1      18.784022271961188      12.863132950586035      4.2549836302074704
   328   1      17.244372402856502      14.247535022946524      2.9454336388146332
   329   1      18.634098508549151      15.939452218372059      4.3211398772892151
   330   1      17.006568860286109       17.00321797789244      2.8868312797926721
   331   1      18.579551666457874       18.40627882586039      4.3444699188756672
   332   1      17.120754110676891      19.897779612461992       2.897519916851663
   333   1      18.540874190076586      21.386751339353562      4.3579809077881766
   334   1       17.06034960851056      22.801041080420543      2.9991759869821975
   335   1      18.619472174986864       24.43025061547679       4.323139771248286
   336   1      17.088913391449761      25.813270039885222      2.8190563917193212
   337   1      18.511818847268195      27.261755711748737      4.3565118627344175
   338   1      20.164544153477944      28.568537986780559      3.0283766143396744
   339   1      21.430713416232159      1.4213423268330418      4.4081274315910859
   340   1      20.033218174358062      2.9369021876282058      2.8259865342599024
   341   1      21.348313029259838      4.1704493863591443      4.4024043172038256
   342   1      20.070399352152318      5.7440879225599888      2.7779925026893246
   343   1      21.441779990057007      7.1215852383838634      4.3355952470858039
   344   1      20.114969801340422      8.7742877177829595      2.9503190828695445
   345   1      21.496511014059021      10.155837048897206      4.3247882005671556
   346   1      20.146065100613232      11.334103079581425      2.8830519255804758
   347   1       21.52919960422021      12.884425228973676      4.1338767281283095
   348   1      19.986519104667135      14.221634088364233      2.7342954003917033
   349   1      21.561123138225895      15.652812176889332      4.3476043483476969
   350   1      20.134803211796818      17.350309562565993      2.8240731789302558
   351   1      20.182362074727902      19.865686603844669      2.9384708442808924
   352   1      21.368470815781176        21.4778450330789       4.226599452461663
   353   1      19.892050815074771      22.864824566933105      2.9532661139407015
   354   1      21.359072268975201      24.391873046434121       4.423929613066961
   355   1      20.047097872199732      25.836444751797139      2.8500873743164794
   356   1      21.418141788608573      27.337802670045981      4.4321251267395505
   357   1      22.935114540147122      28.637413746260751      2.9587727366865182
   358   1      24.405643384777321      1.4152673728366736      4.3813131876409921
   359   1      22.795178258423128      2.8062076924980266      3.0087267829046489