dump/Mg_700_20/steps_61 (written by ASE) 

3980 	 atoms 
1  atom types
0.0      32.100000000000001  xlo xhi
0.0      55.598830921999998  ylo yhi
0.0      52.130399999999995  zlo zhi


Atoms 

     1   1     0.18021627770014001     0.12610594336324257     0.20199082806381985
     2   1      1.9952921186165238       2.882338819929152      51.998119351736776
     3   1      1.6986345156838989     0.86440941409834227      2.8323204174532881
     4   1      32.041760321420419      3.5475209155086906      2.3177891530588051
     5   1      32.047027974986534      5.3550089763792164    0.069041646203938767
     6   1      1.2366893467333413      8.3154198700806816     0.18909574743767757
     7   1      1.8797048467432902      6.4038804236649529      2.7819961324380631
     8   1    0.058526626860373812       9.141539462530087      2.9022526194766631
     9   1     0.02628142522181701      10.820461413075694     0.27510802238218224
    10   1      1.6369716072639586      14.044752794655901     0.12908238790829929
    11   1      1.7204225900410974      12.466597221263394      2.8894120464509081
    12   1      31.995863022676524      14.777947207277354      2.4597674812971877
    13   1     0.24000614329532224      16.739020595476561      52.052065933475291
    14   1      30.556416055778772      19.744794884772208      0.1664493657990094
    15   1      1.8742847528162547      17.339269375771437      2.6270488312613391
    16   1     0.25190919291351432      20.456728238489031      2.7588585752989179
    17   1      31.888980136682342      22.308900558560513     0.04706733612278375
    18   1      1.6400224549639406      25.225918629680187      52.089449976287696
    19   1      1.4027188106265056      23.523112951171264      2.5511197201955134
    20   1      32.002615236586131      26.196605982961202      2.7277516731225471
    21   1      31.959623296126299      27.794052298190024     0.12104059510565654
    22   1      1.5320912056180016      30.524595394556123      52.052474275692212
    23   1      1.8135469256371175      28.895000201621674      2.6017055072596849
    24   1      31.802497672458493      31.498084966383598      2.6039991089998131
    25   1      31.954523854727661      33.370687827156523     0.21359578677822863
    26   1      1.6994196174906997      36.376815696170816     0.35979162789876673
    27   1      1.3666640052374115       34.48532097775761      2.6949860396625098
    28   1     0.11105944368871642      37.341389160020597      2.6526531155135471
    29   1     0.23969476872749165      39.001861772552068      52.028080521509416
    30   1      1.4311334769776669      41.836975931322314     0.19322268468993914
    31   1      1.9097496898292559      39.809574641567764      2.5450863643702148
    32   1    0.062008827441073326      42.675867813229644      2.6837790888107089
    33   1      31.882174497515166      44.565572057647181      51.899836490693595
    34   1      1.8307578031741909      47.228500356621105      51.959672101547042
    35   1      1.9270727117198392      45.090921307764766      2.5401404244348837
    36   1     0.18390742659439965      48.073460561508199      2.3509903858162948
    37   1      32.025676210973451      50.299608091743643      52.082136031076672
    38   1      1.6115770242010548      52.780231196002383     0.12738109701844666
    39   1      1.5023153255547679      51.074234816148198      2.3303738445886615
    40   1    0.081397141909807347       53.32580951224606       2.804487879462191
    41   1      3.1856584058448374      55.557574624880189    0.093325175899124577
    42   1       4.679296418697569      2.6462183794796035    0.033232372850943444
    43   1      4.8918195227098034     0.87932142435594596      2.4699108339103941
    44   1      2.9753516952202652      3.5269748613036529      2.6902057287911361
    45   1      3.1935039070117504       5.682524013051081      51.944147271052586
    46   1      4.5313092741210594      8.5118128695642472     0.13731622223749668
    47   1      4.7092358045417892      6.1975594806199243      2.2107430399310393
    48   1      3.2699305730054036      9.3838318424377221      2.5866987257183247
    49   1      3.2612959828896577      11.281524248970376      52.114890087952872
    50   1      4.6512882432079916       14.09076894699637     0.33772634573772714
    51   1      4.7727383538234953      12.025690785514161      2.5603903914526835
    52   1       3.555572367363359      14.927447132663314      2.8269247098301959
    53   1      3.1197305540157592       16.47748618498024     0.04231795646987218
    54   1      1.6731248151623275      19.554360144302809     0.16644831179344552
    55   1      5.2149847594455689      17.714728669568821      2.4418758637155489
    56   1      3.2010311249179626      20.295088866897206      2.4992871739431299
    57   1      3.2109756723756959      22.246450419421183     0.16418262878763099
    58   1       4.910830473941588      25.242954413156447      52.102594083085719
    59   1      4.6779002893351578      23.046279489008651      2.6145768022140605
    60   1      3.1858823342189377      26.190507673983053      2.5833191633739157
    61   1      3.0635143793873034      27.723235260750229      51.804453203102945
    62   1      4.6155912613910859        30.5478496587316       52.05769955678214
    63   1      4.8738951350935835      28.885342183869934      2.6575100562668519
    64   1      3.3354538837097776      31.660627963961861      2.6314044628354689
    65   1      2.7218524627451544      33.544131205274752    0.095749462144234534
    66   1      4.6505422410211334       36.34890983674925      51.918944264474561
    67   1        4.48944086323087      34.711017004832172      2.5933010915249857
    68   1      3.4236889655154084      37.458833688201118      2.8272809638353298
    69   1      3.2968593463479832      39.258135650600067    0.062473937536823274
    70   1      4.8376800336632835      42.067652619277112       52.08440860256254
    71   1      5.0635950047361167      40.084859296531349       2.570405511708457
    72   1      3.4738483368927975      42.423987158345021      2.6828017878621857
    73   1      3.1410605828874214      44.457002183992344       51.92212767795106
    74   1       4.942036513788044      47.261248950241722    0.040301421373003077
    75   1       4.973096624311621      45.493774929279937      2.3502306665353845
    76   1      3.2143426221140921      48.565673765474109      2.4997717930602081
    77   1      3.3609509597735041      50.347717010701174     0.12491582218038162
    78   1      5.0898161383581639      52.838939368678176     0.11958678333545036
    79   1      4.9555404073938982      51.176814063939226      2.6738442907129807
    80   1       3.228223580005984      53.938410996723768      2.5411294358596472
    81   1      6.8900433357323747    0.016585538222661979     0.21523799662171975
    82   1      7.9942804806436198       2.873755474925654      52.090676343498181
    83   1      8.2146121625715267       1.290220168601055       2.603110367134351
    84   1      6.2846616454294688      3.7717383497061601      2.5290566988851499
    85   1       6.551150179177502      5.4331233874234313      51.927376729748246
    86   1      8.2004406801733349      8.3416651775388164      52.010957152727009
    87   1       7.890155352501476       6.611568739435838      2.5935415879592587
    88   1      6.5655374219218903       9.393548352897449      2.3810568729633861
    89   1      6.4548845144378912      10.942355037569214      51.981318477507102
    90   1      7.8851468539571563      13.849050195430809      51.965732060470998
    91   1      7.9217178278615696      11.904818525413809      2.4402261873320854
    92   1       6.608418354447779      14.628576480495449      2.6298660640562059
    93   1      6.3793487008638268      16.879313168770803      52.102237079355454
    94   1      7.6853034589621148      19.612283034589268      51.911580928981806
    95   1      8.4485792148150782      17.247604690737198      2.6002936151241394
    96   1      6.6191017198519084      20.614028704631011      2.6135681002857818
    97   1      6.1840889495021045      22.372893716753836      52.087840308573377
    98   1      7.9288773755627018      24.884759761428924      52.014700166290829
    99   1      8.2918815798076704      23.452643046000791      2.7459420910138794
   100   1      6.3083806787304972      26.115579127869093      2.3731546536050159
   101   1      6.1346237386919746      28.068466145755718      52.097843358407445
   102   1      7.7887592232948393      30.430668290612125      52.108366830842165
   103   1      7.9338872702998922      28.904265310054388      2.6072850285815443
   104   1      6.3346113149979759      31.667643702801985      2.3985091940227941
   105   1      6.1445486383693702      33.776861780961248     0.14677903799486167
   106   1      8.1124051501004821      36.413967403987165     0.11555393205625911
   107   1      7.9699682924882529      34.419959099080288      2.2492836644941523
   108   1      6.3616982243183973      37.140499584614062      2.5545951133872165
   109   1      6.3313799981528529      38.958355610335211     0.15451546196685209
   110   1       8.338211392481341      41.883131623874988       52.09683865909264
   111   1      8.1241802918335164      39.770960367308057      2.4812185725618909
   112   1      6.6252255526462722      42.531994264833877      2.4252867428218621
   113   1      6.5089398579649425      44.567659745317989      51.884991234981932
   114   1      8.0528861374010354      47.237231768929718    0.041610926864585028
   115   1      7.9818044446913987      45.617644468129804      2.6388988435698679
   116   1       6.311142090396813      48.324599173274009      2.6014824662409244
   117   1      6.4675764523820511      49.997834210639567    0.029384574113023424
   118   1      8.3590532151453889      52.776646735802451     0.17523452688376775
   119   1      7.9779526990716034      50.953351203532598      2.7499809928284749
   120   1      6.4923234106781091      53.881850217620126      2.7807635326614504
   121   1      9.8273808503842854      55.434250016393761      0.0899596187399513
   122   1      11.089835707574212      2.9115032196032495      52.034806657163472
   123   1      11.301244288670288      0.9021271902231679      2.8979171905183998
   124   1      9.8257918628200898       3.753130603240066      2.4554386363281426
   125   1      9.6683743124608359      5.7839840488130028      51.863005357594929
   126   1      11.473557075761791       8.489990398704002    0.036958853862331581
   127   1      11.411588386136195      6.5848152556620745      2.2899079798627753
   128   1      9.7024822606806786      9.2492006045908752      2.3633344199351871
   129   1      9.7663586458385652      11.282894741031999      51.996189030081283
   130   1      11.502441844882025      14.022357021224106      51.951400644301209
   131   1       11.49282111805887      11.837783884069005      2.3458220902132538
   132   1      9.8964126801175194      14.664605717439319      2.4140299680907926
   133   1      9.7983963632781386      16.411441165749046      51.830977944624081
   134   1      10.867033485995439      19.324429191099131      52.061364834177503
   135   1      11.704530128559663      17.657971330234734      2.4424447797968027
   136   1       9.748718086803688       20.42561656393146      2.7093954410695518
   137   1      9.4327212859300626      22.239237811305038      52.061957724068542
   138   1      11.210401701224827      25.077512702893088      52.112476380143676
   139   1      11.349336715519417      23.173180093146971      2.7754464033119071
   140   1      9.3779967134552287      26.347097309465404      2.7074496280006728
   141   1      9.5804293748776281       27.83581217048528      52.118013209946426
   142   1      11.220670770933435      30.412562513274263     0.14382118378930325
   143   1      11.102612698626958      28.833082811679063      2.7639581870289747
   144   1      9.3386645245916604      31.438319802174245      2.6018026637495932
   145   1      9.4673304653494981      33.512764518737924      51.913540972767464
   146   1      11.198991852216343      36.215607452614414      52.012403457496767
   147   1      11.194648698528086      34.136138659598565       2.455409193435822
   148   1      9.5717174401554104      36.950657807199228      2.4795731593700161
   149   1      9.8543581006371177       39.16123638161271    0.044166420738541524
   150   1      11.454666371993218      41.790381812377639   0.0032648483128497009
   151   1      11.397345356725822      39.560809564214772      2.6488862477730777
   152   1      9.3920063653017483      42.549265932502728      2.7448044288186235
   153   1      9.5718987286556896      44.563176326457494      52.105216194985914
   154   1      11.277115768032138      47.494470095400324     0.21589732036286302
   155   1      10.971193476664375      45.270104636474727       2.488123550196343
   156   1      9.7854419699444826      48.112279299418802      2.7809854420606777
   157   1        9.70050735355737      50.041496231968353     0.26015500119336982
   158   1      11.340508766825238      52.965821640351415     0.24373237876339646
   159   1      11.566888308993523      51.008820368314538      2.6376176938119738
   160   1      9.7105306657213575      53.802229997423424      2.8114957426901164
   161   1       12.93148860087506     0.19842403909324241      52.024004522977918
   162   1      14.654068790148129      2.7564105958690903      52.050775223579627
   163   1      14.548184928612285     0.68909480798897604      2.5934370457377565
   164   1      12.858847174007927      3.6108154625387878      2.3006955149615242
   165   1      12.893159095331157      5.8289317842694262    0.011467168358692657
   166   1      14.922880223026912      8.7233216185673008      52.057204388769996
   167   1      14.553057531130774      6.3947904265758178       2.418584936661869
   168   1      13.386612302201236      9.1811577932464328      2.4820083033036915
   169   1      13.156408624792373      11.361977505807559      52.012348205748111
   170   1      14.569969292557468      13.736895650402667      51.780984925571651
   171   1      14.413213555839778      12.100550626485013      2.4819015869960612
   172   1       13.25178307969167      14.906145555875463      2.5276591031650328
   173   1      12.961057369925223      16.524313017728268      51.912303272885822
   174   1      14.161588397016974      19.611229355114311    0.037395865721041699
   175   1      14.626162691695844      17.398377361739414      2.1959296008036886
   176   1      12.913702552519162      20.444282431205369      2.7811045080041423
   177   1      12.557494477438883      22.103823957060143      52.034671759421713
   178   1      13.942917677617141      24.713356876227117    0.067984769385112595
   179   1      14.515196395255277      22.955463803549364      2.8777643529951158
   180   1      12.535255308150669      26.176589485762928      2.6706413638416913
   181   1      12.638618560145042      27.791987950378417    0.082281282549869744
   182   1      14.336686121435703      30.546274855977416      0.0674430597687741
   183   1       14.16930125825189      28.634508869944515      2.9478894106146241
   184   1      12.885046610200932      31.619739110478147      2.5513374158779047
   185   1       12.82994416628463      32.962142906925429      51.988994528366945
   186   1      14.312065283873656        35.9230162902494     0.12393766137382693
   187   1      14.523320888625488      34.179867126522758      2.7767348512663985
   188   1      12.800105026016112      36.705046634737158      2.5725214802186844
   189   1      12.804217834689892      38.613168625742794      52.063455768655444
   190   1      14.478286468561896      41.472216485151762      51.851968684520124
   191   1       14.44202485550079      39.377463215286063      2.5965919060556542
   192   1      13.141144705635561      42.319314470677327      2.7412103168957476
   193   1      12.919532914623291      44.627620091444754      51.956963634244104
   194   1      14.752311823780603      47.171911533424883     0.04423834070405093
   195   1      14.678693922342562      45.280123079475686      2.2826697457776937
   196   1      13.040836838655173      48.024910847392846       2.764850511707341
   197   1      13.105092563514697      50.268762072177168      52.004724151733555
   198   1      14.642023819697812      53.037662761549072     0.49793715527997096
   199   1      14.995891780916169      51.203309975199517      2.7890735244206364
   200   1      12.881799544512775      53.765336596616578      2.6494827462337751
   201   1      16.409045329267013      55.534089852614422    0.011295624731952355
   202   1      17.969685937419094      2.7612804272333742      52.043466746405109
   203   1       18.01859148616283     0.91861931102145455      2.6045282064464343
   204   1      15.948730852835441      5.3625140179920967    0.084482535042155471
   205   1      17.867928800942241      8.1628820785389262     0.22006657197515059
   206   1      17.650056091255486      6.3339564381538773      2.6499443336535426
   207   1      16.258958380010544      9.2109421772647373      2.5223747996185168
   208   1      16.205073934331672      11.316570683459938    0.022693335679685789
   209   1      17.411311079707701      13.749285464996733       51.93997955661299
   210   1      17.923090626405898      11.924725550164727      2.7820619488552651
   211   1       16.33649547121404      14.051937575895725      2.5507225247963903
   212   1      16.346272799406005      16.421610829453961      52.060680330501533
   213   1      17.582231440327497      19.033323239142135      51.937958625724129
   214   1      17.427330123661076      17.720356702427132       2.339932161422837
   215   1      15.740751232763195      20.242602863247118      2.6752917324835517
   216   1       16.08505950362283      22.019382195436528    0.015820253416980078
   217   1       17.26596363640575      24.978380133728699     0.17927672519418028
   218   1      17.612200786847538      23.135316707726929       2.514265027839663
   219   1       15.56878443088835      25.820073882597566      2.5446223563380208
   220   1      15.719898063741335      27.724299781206195    0.034473547033493389
   221   1      17.455165104279057      30.170839089136575     0.28574904161620129
   222   1      17.522650129423631      28.074375176027498       2.570256141189271
   223   1       16.05040946153628      31.352573801905095       2.453300286866587
   224   1      16.227276592876251      33.238549473315224     0.26929148230805655
   225   1      17.581977854242808      36.300045724512806     0.02590065447887166
   226   1      17.630395221652904      34.031984349917252       2.945841942023498
   227   1      16.099367040530726      36.787384453959532      2.6755255554259967
   228   1      16.089833724382242      38.831996732145832      52.024912432620134
   229   1       17.68777517934533       41.93974155217937     0.15123825506316885
   230   1      17.946394189301056      39.560174025579364      2.2574801365381831
   231   1       16.12389684557942      42.288641144069899      2.5103521514574205
   232   1      15.875231082031091      44.135903874243475       51.88658170091005
   233   1      17.633638617615585      47.079292580520907      52.113573260386659
   234   1      16.223757198226217      47.742854962772036      2.7524146855124423
   235   1      16.249143946286054      50.091732383984812      52.036742940548116
   236   1      17.654521523356419      52.546272154970843      52.074822619236485
   237   1        17.9317053372705      50.992583256619525      2.9408927884631635
   238   1      16.290008831306153      53.896861870200453      2.9340674568277612
   239   1      19.533188723874314        55.3033165077495   0.0090621594364901914
   240   1      19.765701897546638      3.5841402041149157      2.4743264325427434
   241   1      21.267053466586788      0.6266209125724993      2.6813978022351899
   242   1      16.152457093758915      3.5880862084375775      2.7638726491302208
   243   1      19.329236742252402      5.4405432248680521     0.21226577127298407
   244   1      20.877072913280738       8.132326753462813      52.086032720598617
   245   1      20.993059869493461      6.2438491402741105      2.3911507942595032
   246   1      19.265888150150055      9.3647418928720114      2.4660279990484573
   247   1      19.309353191257742      11.276608832672427      52.073024707684141
   248   1      20.956210152971945      13.883944519454866      0.2772483803245463
   249   1      20.947825791158017      11.742275439779727      2.4631672327153207
   250   1      19.434101069004374      14.818211895152093      2.6697227713972063
   251   1      19.664817790868124      16.580038951219478      51.846520276035072
   252   1      20.754732352790587      19.407921310549707      51.832732266024898
   253   1      20.778581777076745      17.547708513893006      2.4004425035791539
   254   1      18.973979917785215       20.36291537031931      2.4935363111606752
   255   1      19.224973861289104      22.135523492705506     0.17245472413220325
   256   1      21.088264023172741      24.996125987927098    0.036131951598839994
   257   1      20.917395617167273      23.008295833281121      2.5756753580525058
   258   1      19.563846817917327      25.885430467811389      2.6600546783055878
   259   1      19.048422313400646      27.512757721087269    0.088845400486218834
   260   1      21.010558540646169      30.333090437035786      51.918480163043057
   261   1      20.893442872058639      28.754113039852317      2.5516190371207399
   262   1      19.042877936156856      31.186644660834542      2.7437338378017619
   263   1       19.10360399559535      33.214335188147672      51.885616068065978
   264   1      20.647620671218238      35.911198480100168   0.0016750216954373178
   265   1       20.37830064350111      34.110650623470086       2.311257838280167
   266   1      19.239183874406802      36.987256956669341      2.3308090015647096
   267   1      19.290939299667546      38.827412266948933      51.922579890677468
   268   1      20.916565603716744      41.599274617088824    0.079456715086475782
   269   1      21.118845750747568      40.063300038732514      2.6735722094517405
   270   1      19.296899148809793      42.633679453177102      2.5667809568547719
   271   1      19.181298105430422      44.794038492799181    0.022969954993604456
   272   1      20.760856519102472      47.489258065377562     0.19434931003731187
   273   1      19.090025497079576      48.050220980900725      2.7078663044356697
   274   1      17.609134762518554      45.205552938042054      2.7165340714717723
   275   1      19.293803079837179      50.300968739205942    0.018390723385717418
   276   1      21.345114839826891      52.769262030745928     0.11941881683214017
   277   1       21.20689240482346      50.695327932231628      2.5725548066484212
   278   1      19.448939697558291      53.709753656509299      2.5678425457828404
   279   1      22.639741023377738      55.331506551594529      51.954739921138881
   280   1      20.986830281429761      2.4821553803239658    0.037717349650480188
   281   1      24.565881201447613     0.89249627203223691      2.7973320068636034
   282   1      22.802331112604119      3.4868790733881325      2.8790637062519981
   283   1      22.641756690803991      5.3722609006480626    0.066373329990826221
   284   1      24.130268223335683      8.2897320562610002      52.061838944578483
   285   1      24.025937460089658      6.1804655275957687      2.5704130350898811
   286   1      22.454839072255123      9.0053984678785302      2.4829778632837938
   287   1       22.68223760726454      10.898853879308017    0.043959683128457092
   288   1      24.051774949484269      13.705680817167345    0.036834371315853695
   289   1      24.110141225256687      11.590860978184224      2.7119876091099324
   290   1      22.325046379431559      14.859371555806602      2.8221766439371874
   291   1      22.661911764313135      16.493343020931853     0.32912391556096654
   292   1      23.813633606710628      19.183529776718391      52.109451568673762
   293   1      23.973636411152778      17.750261527567766      2.8778692761331426
   294   1      22.317287124253649      20.247314315361869      2.7573135989073867
   295   1      22.293611759037415      22.147706205873618      51.894713486704426
   296   1      24.075638202392483      24.642577755088695     0.11541742738642087
   297   1      24.016376715934459      22.620461639782071      2.6171259415981427
   298   1      22.550055285571752      25.884797782220424       2.770107265328158
   299   1      22.671349535665158      27.866459018404182      51.945044332233849
   300   1      24.010804409373069      31.036124650940174     0.15965496080678143
   301   1      24.078215608002584      28.679149979681551      2.4588670094216094
   302   1      22.142244955099894      31.640645756771342      2.8397512580657214
   303   1      22.270106608431252      33.382535085127472     0.11210429260997821
   304   1      23.816346581197116      36.249438300122264      52.014551733344391
   305   1      23.946024489134331      34.623437949803417       2.677870770291622
   306   1      22.105865366246942      37.156460009010928      2.7669553385114085
   307   1      22.370607875202143      38.842727541565608      0.0513197726076626
   308   1      23.817307891108879      41.803893972811366      51.995225007504864
   309   1      24.152571353372476      39.955870648668409      2.4087312882627798
   310   1      22.313789885317743      42.935853839024325       2.527894406177952
   311   1      22.567858446754478       44.82716358054099    0.036900554603683744
   312   1      24.017322961361682      47.575864945844351      52.119783668134183
   313   1      20.661648417752133      45.289950978998725      2.6855899274958026
   314   1       22.30557641626482       47.85799997393822      2.5018307263243074
   315   1      22.542035403079321      49.978703284625205     0.08322792498968351
   316   1      24.310385067804813      52.791777281432822      51.866766264441878
   317   1      24.221460328153793      50.904278846357926      2.5988961137960334
   318   1      22.686243049146302      53.586672274331363      2.6883579464479759
   319   1      24.312984277120265      2.3274942307615833     0.10275943195498952
   320   1      27.506785180880183       2.557578751135122      51.959227241864369
   321   1      27.589367387615034      1.1604831298498886      2.8968149970134842
   322   1       25.77023072533737      3.5979131456989264      2.8050812558214444
   323   1      25.678112668332499      5.1116618645552725      51.985583645631863
   324   1      27.346331452402303      8.3563116225045757      51.957682011781351
   325   1      27.249108724821387      6.4633100602591238      2.6378049803863246
   326   1      25.959202653534181      9.0210084105027555       2.901787680870958
   327   1      25.770658859088527      10.971184951595848     0.13311089885605124
   328   1      27.222551648501618      13.877623845259853    0.037004348000891238
   329   1       27.29705281097926      12.085452405291313      2.5116013842709584
   330   1      25.534380626210623      14.793840840877978      2.4665701328924805
   331   1      25.620200171728506      16.719695342984082     0.10666341831338622
   332   1      27.343773092984925      19.318487717918835     0.11266814437955219
   333   1      27.050789774549095      17.464014456952942      2.7275852005755965
   334   1       25.66250014753016      19.984174536402094      2.6629594025350598
   335   1      25.379132265786836       21.80403253222066      52.061345707705804
   336   1      27.112602421747198       25.09746172415862      52.041274715582908
   337   1      27.364869157379101      22.951903311893581      2.4861979307527711
   338   1      25.770747800248401      25.681674837341319      2.7187812941875289
   339   1      25.533152765790391      27.834822077398488      52.105673732705867
   340   1      27.146300004907083      30.554945391206125     0.16844965106905088
   341   1      26.781250097938212      28.803562891157945      2.5835613184808861
   342   1      25.483271365568992      31.485365356855048      2.7567211467683954
   343   1      25.637723355176082       33.47318406033618     0.31926138949487343
   344   1      27.173982328403856      36.291315428751638    0.028783820645290219
   345   1      27.292651100791758      34.539294228616441       2.775085443402622
   346   1      25.425244407436413      37.214312527869318      2.2528203919435841
   347   1       25.55188776873598      39.271350990130323      51.764237074859615
   348   1      27.533483784584956      41.752090736329691      51.746326604410925
   349   1      27.285771863679081      39.763635816693366      2.1925407588305981
   350   1      25.666371829575436      42.388212124810238      2.0744519758167148
   351   1      25.618622216218441      44.151422725593882       52.06565712320274
   352   1      28.777455508264602      50.514368302223474    0.033152102917578044
   353   1       29.35922082841449       42.42505385208802      2.1698028520710104
   354   1      27.083200298511638       47.23188224296679      51.991817156864862
   355   1       25.64551402091552      49.961806084794574      51.790862943504507
   356   1      25.725001120642165      53.885920052579472      49.669228495418572
   357   1      27.209798716677245      51.098846587054112      2.5359012402038577
   358   1      25.600019884738892      53.743903087852928      2.4970297019100238
   359   1      29.251697795739435     0.11125391641031941     0.35175831289945486