dump/Mg_700_20/steps_1 (written by ASE) 

3980 	 atoms 
1  atom types
0.0      32.100000000000001  xlo xhi
0.0      55.598830921999998  ylo yhi
0.0      52.130399999999995  zlo zhi


Atoms 

     1   1      31.954582882242715      0.1470535061391238      51.916294330798259
     2   1      1.7069453110681185      2.6586539540065566      51.866715710812876
     3   1      1.5145903116988164     0.92555131544389113      2.7062227157885004
     4   1      0.3630270155497799      3.5567398878860486      2.4141254155620433
     5   1      32.007381208630498      5.3109700162950615      51.780207208294534
     6   1      1.6546111817267839      8.1514526986242579    0.024181569453946124
     7   1      1.8417392911976114      6.0371896955061093      2.6376147658106524
     8   1      32.042181079223553      9.1783742581494021       2.556845513013061
     9   1       31.79996628208584      11.199881780146296    0.014210757957553158
    10   1      1.6312147321541866      13.620294887857089      52.035439753966436
    11   1      1.7092657525421386       12.04359750591532       2.407851862883156
    12   1      31.842048349197828      14.770361684161145      2.7522421380364492
    13   1     0.52932783314592069      16.412987705051698     0.12550928493081071
    14   1      1.6219640498818886      19.548252826753281     0.13744422935677136
    15   1      1.3403185888022238      17.749395937549188      2.7565583666575666
    16   1      31.694669483377087      20.461370189608044       2.346619465291242
    17   1     0.20732811834081288      22.246919648763093        51.9492860939054
    18   1      1.7547075786470536      25.060422456007604      51.791341295725971
    19   1      1.5533602004885356      23.276899205609514      2.3712500060303898
    20   1    0.008961611636836465      26.146956350519481      2.0833962059786888
    21   1      32.025583572661454      27.656969370716624      51.604721901338529
    22   1      1.8463855564077023      30.608290920810603     0.18609339366777725
    23   1      1.8781417105910718      28.630112536838176      2.3362159261313908
    24   1      32.042986965618937       31.60793493461599      2.6463188226236962
    25   1      32.057165453799072      33.264063327097176      51.882710476288779
    26   1      1.5516452496450728      36.458550574893898  0.00023710558200918966
    27   1      1.8945836773302647      34.596106912082483      2.4677498530656292
    28   1     0.11389685775701787      37.152441828371622      2.5782337630134351
    29   1    0.029537576128410511      39.407767750404517      52.052660118235394
    30   1      1.5666177063585514      41.895197461831359       52.12010664984853
    31   1      1.5196956323696118      40.443743287239393      2.7452185599053029
    32   1      31.932536266131077      42.729395457135396      2.5783248480828123
    33   1    0.032992833624024713      44.695845289677358      52.024982490854853
    34   1      1.5987821047033122      47.346410791301544   0.0010119384356588853
    35   1      1.9044861406441258      45.417531138046769      2.3936040308895756
    36   1    0.079468686151963855       48.29285242804562      2.2017607402224266
    37   1    0.004026547649428616       50.20365972274783    0.064735785804353352
    38   1      1.9021774163928444      52.809952992947188     0.18664221446280727
    39   1      1.4772287057664399      50.883727972703014      2.7617633825177395
    40   1      0.2859755514724191       53.73454339868038      2.9517661996586866
    41   1       3.039640694417848     0.17362211025002267    0.068014881923149459
    42   1      4.8331422876215298      3.1007886711892074      52.101626209310055
    43   1       4.816990649396792     0.66576995496067615      2.5971387284094307
    44   1      3.4275325231526188      3.4127415379133432      2.3551627914800055
    45   1      3.0344275901448352      5.5184862192539672   0.0024982917305271259
    46   1      4.9657701038252853      8.3662598160636303    0.039903206057778064
    47   1      4.7238541912340626      6.7194033703335423      2.4829380060614614
    48   1      3.0429185515958714      9.1183212012256654      2.7377556666544476
    49   1      3.2153977967284368      11.009681878823567      0.0799734294300945
    50   1      4.7032867468193391      13.801976133964571      52.055603842638341
    51   1      4.7750429625924644      12.047093218273229      2.5974565513193371
    52   1      2.7784846044520384      14.644323707500842      2.3630269940853625
    53   1      3.3267296082592144      16.730388138179819   0.0046535288035454885
    54   1      4.6762517048390944      19.648356744647295       52.11576842607608
    55   1      5.0639308708011592      18.009762094466097      2.3805648758962614
    56   1        2.91090304486861      20.329697350740254      2.5057111207791749
    57   1      3.2120423458103158      22.332412532317225      52.049974161411264
    58   1      4.9160895014647723      25.385114070476366      52.123511157481218
    59   1      4.6878709229236222      23.807808854523881        2.28649246537642
    60   1      3.1097040600805741      26.149856318968894      2.5162741891646894
    61   1      3.0626842334873632      27.925954664638081      52.033474537407493
    62   1      4.7464298855755418      30.975738937870993    0.022937472645447186
    63   1      5.1376516791052316      29.049450300430856      2.4378480115383137
    64   1      3.2566431201556134      31.650705657686789      2.5422496559978134
    65   1      2.8754264727468364      33.609684201913502    0.044944752746056568
    66   1      4.4822464022843302      36.238383704809195     0.11936735420520268
    67   1      5.1431054790771604      34.274399561393537      2.7205290257851815
    68   1      3.1348537940528365      37.386837092281738      2.8670594056818763
    69   1      3.1254751015530728      38.960138450943724     0.12632482334362916
    70   1      4.9132303161848814      41.821778502314125      51.986409722040854
    71   1       4.602675572004137       39.85416550846972      2.4831523511090872
    72   1      3.2042627057568684      42.811872336690705      2.4502937058377121
    73   1      3.1505863099952145      44.642367797820299      52.066508476783312
    74   1      4.8511742583448356      47.538628849641938      51.990662561737906
    75   1      5.2831917204834875      45.681413792360743      2.1666510543343125
    76   1       3.331949305782782      48.179153414900973      2.5154604748461606
    77   1      3.2992539564561092      50.050233953925435     0.22677354750067941
    78   1       5.020212538279007      52.980048636136395    0.035327588922377993
    79   1      4.9018904767002338      50.767510575060896      2.4063711432745483
    80   1      3.4353689559793379      53.668646963206122       2.495656003019862
    81   1      6.2687524183706849     0.44110836303682927    0.033502613577673694
    82   1      7.6978249737177808      3.0327116434686383      52.005519512051571
    83   1      7.8975532096990202      1.2038834028743459      2.6023928068373565
    84   1       6.536423398325292      4.0703982933508671      2.8963039871308722
    85   1      6.4901077255229245       5.924236457730454    0.078858304344573429
    86   1      8.1646194845232323      8.5985629772613805      52.130046572679014
    87   1      7.9479202307989061      6.6423697834623159      2.5854741016307687
    88   1       6.582009867905473      9.4744182625185065      2.4051017447437806
    89   1      6.4081445660949514      11.223242309168899       51.91955425227146
    90   1      8.1330258054648628      13.802226014218389      52.087599528263745
    91   1      7.9237409538680135      11.954246174051649      2.6160387833645125
    92   1      6.4422375547672628      14.670954828643891      2.6689196292146766
    93   1      6.2066731766238128      16.388891504667406   0.0079295900417922852
    94   1      7.8603989372986822      19.952572943142385      52.120359990248396
    95   1      8.0755892336055304      17.862252677368463      2.4942347116876871
    96   1      6.1414664493067637       20.74933006523672      2.2822060782726514
    97   1      6.3626563137904695      22.827305060867815      51.988078672217966
    98   1      8.2229606546059202      25.275296263153816    0.051747004187274633
    99   1      7.9975370754312962      23.431408851559063      2.5006568056797991
   100   1      6.5639961646260296      26.125114307118277      2.5731935039016065
   101   1      6.3086703401807318      28.054517559063484      51.963378184772694
   102   1      8.1747360627180043      30.863482184733186      52.034226630259269
   103   1      8.2289299597877665      28.868539219066324      2.6632775975665024
   104   1      6.5697176496301477      31.694252967963482      2.3441255774068868
   105   1      6.5519101521869194      33.721585912054593    0.037310821206773724
   106   1      8.1197528004219297      36.281394464925064     0.27124062253075054
   107   1      8.3283929092656983      34.426133072520109      3.2187202284390555
   108   1      6.4437504519144895      36.788308540484941      2.6909734884433627
   109   1      6.4638468743077642      38.908248422931067      52.108432696248151
   110   1       8.073558041570374      41.710635484734283     0.15009252399586342
   111   1      8.1887516550380592      39.747297235107737       2.600845976594377
   112   1      6.4956208399088489      42.826732985776907      2.8580880671925626
   113   1      6.7463614081471608      44.447861600687681      52.048927243977516
   114   1      7.8611547111499087      47.176711938600768    0.082884951822104064
   115   1      8.3629144913792128      45.417091192114874      2.5200261956252454
   116   1      6.6487547230459549      48.073222800653639      2.6676625281424822
   117   1      6.5360344283569116      49.982579296328666      51.981080489812918
   118   1      8.2824203496763289      52.609157940697507     0.19471635924749997
   119   1      8.2608598561645632      51.003490169422157      2.8055493417104622
   120   1      6.7999447421502728      53.941694050043736      2.2508850108480316
   121   1      9.2525464885089761      55.368401894250312    0.096676447719571595
   122   1      10.901447570367415      2.7110349983631479    0.073831538679000941
   123   1       11.36313932093174      1.0640113217589111      3.0046910798219955
   124   1      9.7362284477736676      3.8038060404820442      2.7692622488904863
   125   1      9.5532982272545652      5.6730415297988861    0.091634470717053537
   126   1      11.045711016957389       8.082523450043908     0.24491193069391803
   127   1       10.96644483956433      6.4638549456496053      2.4648807845977418
   128   1      9.6210465297348051      9.1811860318759226      2.7913373667437806
   129   1      9.9042915913307592      11.195453793549401     0.22224113378339877
   130   1      11.266254846154812      13.968880304600953       52.08040180599626
   131   1      11.149078106784394      11.975565917009142      2.5961653945269876
   132   1       9.831656827194136      15.217067697240998      2.3415999212513654
   133   1      9.5486969377014095      17.265918788762352      51.825754547696882
   134   1      11.226283599925978      20.347243853873643     0.10763898708233738
   135   1      11.008008416853075      17.868864495024187      2.7188504884897258
   136   1      9.4496957176267813      20.729041066221075      2.6352191100003024
   137   1      9.5821893875281656      22.493836123474722    0.054945281906957424
   138   1      11.357724091380533      25.204700820197417     0.17737237642386561
   139   1      11.231535250917217       23.21133166184477       2.710789733525738
   140   1      9.7351216270535357      26.017402082256577      2.6135830063703405
   141   1      9.6797082451225993      28.094266537578964     0.14803703914851526
   142   1      11.322029447700572      30.833977697136461      52.053848512730021
   143   1      11.461439344508065      28.727138334911167      2.5910933277443418
   144   1       9.826607472244989      31.386926823054011      2.4369890260850822
   145   1      9.7664012066930699      33.424136889481609     0.19225328728669411
   146   1      11.354113109446995      36.174535805109912     0.31949609473915269
   147   1      11.295126386583814      34.390595512209337       2.665526468577581
   148   1      9.8464336611462748      37.298522082571665      2.6494085147752977
   149   1       9.665621691696769      38.868408386914119    0.018311201464712552
   150   1      11.277737999518795      41.431914431623277     0.14072980089649834
   151   1      11.661097996351689      39.783377334431684      2.7101892410213537
   152   1      9.7102155518934108      42.317590269660776      2.6401018763761144
   153   1       9.902048078773344      44.473086645446102      51.811514943892618
   154   1      11.129029171419557      47.415535982128645    0.081192819718771736
   155   1      11.459854454719519      45.260584659634674      2.5141909460855993
   156   1       9.546195302256157      48.201811251516837      2.6323027560318506
   157   1      9.5720840903058289      50.221908768091822     0.39643274813452484
   158   1      11.478991724698908      52.776419217729533     0.20173737649093945
   159   1      11.235636616901362      51.215975163788627      2.7435444047648847
   160   1      9.8342780623032802      53.975563673280753       2.836028341038622
   161   1      12.845293482668886     0.19533175946928699    0.084440680071976318
   162   1       14.31098895706466      2.6757872297729524      51.929115401428888
   163   1      14.447851705987439       1.103313624926088      2.5672559095415912
   164   1      12.832147928284376      3.9859136998926723      2.7041304631057601
   165   1      12.673555712167548      5.3999674607028778      52.045833595720964
   166   1      14.384069542431057      8.1415714955057332      51.745005357500645
   167   1      13.910033187992765      6.6367802382474848      2.6442258216441199
   168   1      12.908166251536819      9.5147983577570443      2.5944071312301107
   169   1      12.845451237041775      10.969377900986535       51.95700250078594
   170   1      14.326951929939701      14.525576606030505     0.24070075706450095
   171   1      13.970916457409079      12.481564074908457      2.2125959658177963
   172   1      12.699212863932187      15.134207701387787      2.5239857357428472
   173   1      12.609386650745895      17.098138111996612     0.41338142204201533
   174   1      14.394750111197865      19.478645257448129      52.026441823206255
   175   1      14.511919281952947      17.569059043429412      2.3934095228554693
   176   1      12.860997142337514      20.293011009262433      2.7659278124923929
   177   1      13.248684841087133      22.625879190062484     0.70155572024392154
   178   1      14.546636933781659      25.301102261411341      52.097848055949257
   179   1      14.439148870803741      23.436098940011018      3.0569089989560156
   180   1      13.014108734625168      25.932122097130168      2.7636763086572591
   181   1      12.579448235405474      27.728177641102487      52.096016275656126
   182   1       14.72313891201018      30.770962006361735      52.027308369763347
   183   1      14.689809118082488      28.590922889161959      2.6636807170819949
   184   1         12.773220063196      31.505578520828081       2.670214169806715
   185   1      13.005506295990692      33.402531594175855     0.27908304839556852
   186   1      14.504846762701094      36.194209736553368      52.035611165929161
   187   1      14.776767807715274      34.439737416913857       2.438753738826863
   188   1      12.879685954028508       37.14072561739345      2.5560976408269931
   189   1      12.832375350313853      38.853533516327026      51.962656715383055
   190   1      14.527132619339847      41.775633165629479       51.94604382174635
   191   1      14.464707501104957      39.837496793581629      2.3544835803260398
   192   1      13.090299072871371        42.6068925705098      2.5082735734604737
   193   1         13.166032139155      44.752953415000604       51.89278538941879
   194   1      14.840028617599256       47.40855861250445      52.068874223611537
   195   1      14.734106603076929      45.568830752407379      2.5854120023040998
   196   1      13.145647261716455      48.258855025388286      2.5331486935993941
   197   1      13.063372323380255      49.975190924594642      52.037582725803482
   198   1      14.779432724572366      52.833629329066454    0.097330552555231681
   199   1      14.656339283251206      51.106822964231682      2.4800802001241125
   200   1      12.781036843947062       54.09139855185731      2.7142752599160942
   201   1      15.870575567630057    0.081622170724744841     0.18886966461616603
   202   1      17.461326381889407      2.6383593394482769     0.21780015779427642
   203   1      17.422264344447669      1.0061721819830984      2.6992543464563554
   204   1      16.004728783922893      5.1796701986619365      52.030147823072156
   205   1      17.651299517701027      8.2401772796744144     0.19416532515042667
   206   1      17.379055341063619      6.1352006210653105      2.5400172202372322
   207   1      15.765646704236874      9.0632272932574285      2.5368605507539983
   208   1      16.065735621821762      10.865377490149307    0.032964915772791634
   209   1      17.247392210374276      13.501769734623169      52.063313496323964
   210   1       17.39488134363619      11.910161426121759      2.5346116225162469
   211   1       16.31688097693911      15.017550214494682      2.4089221196135093
   212   1      16.053507964612685      16.992370263312118    0.004558370322252904
   213   1      17.820715504545777      19.549240825879806     0.15861763058914907
   214   1        17.5478445863574      18.064712249024435      2.6571664370056229
   215   1      15.847948262836903      20.369604157459477      2.3943651708925913
   216   1      16.232794690416998      22.354684714154413      51.955983019138671
   217   1      18.232282418478718      25.101762521810461      51.913795586134867
   218   1       17.76034243277584      23.092615242684523       2.481252318288425
   219   1      16.060136749463084      26.042519751012073      2.6283099256067697
   220   1       16.13557186584373      27.792531497814554     0.15603411785198326
   221   1      17.903784459628682      30.550101214019051      52.029314595474411
   222   1      17.834844571848087       28.57445035714926      2.6995578441952568
   223   1      16.391040724606423       31.31509320471794      2.4429005019033379
   224   1      16.575999401617068      33.298306649581669     0.16361430376617103
   225   1      18.016901633487784      36.390968534853762      51.862680601459601
   226   1      17.689355933656824       33.91045269097684      2.7346442622193599
   227   1      16.002797979700468      36.966497388992117      2.4269287515008005
   228   1      15.853562327753952      39.152084803534208      51.939525246910669
   229   1      17.797826557704138      41.478455861441795      51.766300498301803
   230   1      17.812867731831577       39.63664428947294      2.2438384134771669
   231   1       16.18807047961522      42.133576392779112      2.4025689168936673
   232   1      16.074071052856056      44.447574251263397      52.032058357064429
   233   1      17.862914642270951      46.971023299702082       51.92319231562184
   234   1      16.236614222319556      48.228950997098877      2.3028059204357736
   235   1      16.074417400394527      50.310971782833562      52.017690775672826
   236   1      17.696318216488752      53.560500760115275      0.2280870717436965
   237   1      17.738580293229173      51.199007545091945      2.2724747490550294
   238   1      15.870083690693427      54.180627171818756      2.6532482735271272
   239   1      19.320058816688928     0.25869135507200158    0.084223733522058197
   240   1      21.262938082334937      2.5953724393284863     0.11317210684119458
   241   1      21.020774344814548     0.84926564546631167        2.79535337764603
   242   1      19.452443387000525      3.5292929575049867      2.9629144179387681
   243   1      19.317189297810884      5.5025382409371311    0.087179351466155561
   244   1      20.552786424958253      8.0559637552038179     0.25963803335384128
   245   1      20.994390674951887      6.5514172094780339      2.6666566303745367
   246   1       18.89926914730513      9.1044707846531221      2.8859539241874423
   247   1      19.053786594568429      10.847726891220818     0.16643448749214426
   248   1      20.511591683921424      13.666318336740035    0.042657356425538286
   249   1       20.61775504640881        11.7284149103634      2.4668180551395467
   250   1      19.408530271264034      14.690237554820332      2.6523126814417823
   251   1      19.278268384216563      16.788675681678601      0.2007642722619298
   252   1      21.047140304481427      19.527300228322723      51.907774780114288
   253   1      20.776783453641933      17.528880373684746      2.6773764398744513
   254   1      19.429444930535727      20.664921212330665      2.6489575164888501
   255   1      19.624238365636579      22.176347358183023      51.907215101701809
   256   1      21.039400099503212      25.378299188847297      52.026304866151747
   257   1      21.024146850647984      23.254349696272719      2.5626677571096317
   258   1      19.355068531344315      25.604208794069027      2.8365161070656404
   259   1      19.308715473692001      27.845348264621357      52.005423451141915
   260   1      21.178525436429357      30.348638642608734    0.010465297621558052
   261   1      21.194228823382204      28.291587930681921      2.3360214441325757
   262   1      19.312835832705165      31.115894273830122      2.7787856659762658
   263   1      19.663954099629585      33.311996296989257    0.085926300496794103
   264   1      20.848773437043107      36.049772171131053      52.059787335362557
   265   1      21.030669395716096      34.301083870346673      2.7374705205128587
   266   1      19.281700416863345      36.861311576303734      2.6725245347720752
   267   1      19.676256013692036        38.9226989132612      51.914886227313247
   268   1      20.944414547800214      41.554341431703961     0.24178266326921263
   269   1      20.919099785561066       39.82065699793182      2.3950459925068444
   270   1      19.240756532907266      42.416567817959802      2.7242984417009253
   271   1      19.582566289225404      44.071342772343932      51.976622609274266
   272   1      20.971385070101409      47.356288487009131      51.892609243863106
   273   1      20.989413142978556      45.089414318091407      2.1365043837931967
   274   1      19.128251305144548       48.44453647154576      2.4005696856706735
   275   1      19.186828766415545       49.75040722829128      51.824390506830177
   276   1       20.74081194339043       52.76486402405412    0.056956357670454739
   277   1      20.721918407385193      50.946946977807571      2.3395062887159508
   278   1      19.265915650596334      53.965994812785418      2.6869201449242022
   279   1      22.754495599916883      55.407825653071818       52.09083528303011
   280   1      24.156805330393095      2.7256070430256307     0.35456790583267472
   281   1      24.234684879193402     0.82478554839870633      2.6917876867765163
   282   1      22.526334757209725      3.7757474171449501      2.7416941651477247
   283   1      22.470581006937088      5.6277455901319478      52.107232788791087
   284   1      24.195315035785832      8.3669741572756564     0.07624381030375138
   285   1      24.086652434138838       6.222699982940429      2.5119123546541724
   286   1      22.448320664229627      9.3718247571408391      2.5981077598428843
   287   1       22.20065921926264      10.722964837386259       51.93614724503913
   288   1       23.81644920208203      13.694285034500993      51.705106878241047
   289   1       23.59420286569933      11.941224336412368      2.2046797200038335
   290   1      22.248656908459726      14.583476011362443       2.706460593225342
   291   1      22.205595555080471      16.699413099205543     0.27993789002365738
   292   1      23.979962128868326      19.187504841798912     0.21639396730463098
   293   1      23.964479340179686      17.109166998197992      2.5844935185642139
   294   1      22.533341370318784      20.453705030763235      2.4739072187365481
   295   1      22.852971159450391      22.256200228601539      52.078386167496056
   296   1      24.118012114678638      25.002109996664455     0.05345919089705798
   297   1      24.376197881898893      23.087556596823855      2.5065646933453305
   298   1      22.605144419204688      25.785354254352459      2.5325500129569196
   299   1      22.743021966791829      27.772239829122473      51.926681209739115
   300   1      24.461224391946811      30.762165319016827      51.792878635835507
   301   1      24.212440062780811      28.611964244422815      2.7633970925467284
   302   1      22.552585335168658      31.445091794916731      2.6340713347329272
   303   1      22.570776517971154      33.285632037652896    0.068193981017602559
   304   1      24.261069417819744      36.223142421713433     0.24139510844878115
   305   1      24.329095612458598      34.241627312028918      2.4714031522147613
   306   1      22.232221852916847      37.396909399613897      2.5362347937815812
   307   1       22.42335231877167      38.743433769334786       51.89539243272867
   308   1      24.205626012400483      41.717587600411569      52.080216147866281
   309   1      23.992209331584743      39.896973162844013      2.2455084922957349
   310   1      22.441311179970867      42.483872866194609      2.5224544419194044
   311   1      22.675068587933808      44.305614779411947      51.905488004258082
   312   1      24.240262831787998      47.621126581117281    0.091794421438263288
   313   1       24.13771783189349      45.324720870078153      2.6253253816061584
   314   1      22.451124017525498       48.28956762087158      2.3901739547988163
   315   1      22.101193991927708      50.041556102388903     0.08905022484314308
   316   1      23.688018722548726      52.454121150152474      51.890458083031923
   317   1      23.968797036286247      50.883463403912991      2.4274630673135893
   318   1      22.259926223092517      53.686422478005191      2.5391261680996737
   319   1      25.695224669087434     0.18464653313746662    0.099399775869797619
   320   1      27.104371589715672      2.8673096725361598    0.081224608786168537
   321   1      27.336576172363575     0.99601206739649695      2.4485143652387342
   322   1      25.926483188848501      3.5243443815262476      2.9238065298923934
   323   1      25.600568507467052      5.4689102008643644      52.065679739120654
   324   1      26.964743497845085      8.3090536812336051    0.012349548029774731
   325   1      27.485677086036098       6.412891418261367      2.4341501653473245
   326   1      25.598561724968466      9.2912651082618769      2.6392043374742267
   327   1      25.530955789963976      11.096593533005452      52.045129452124506
   328   1      27.186299001482222      14.126005980821152   0.0089145311127321394
   329   1      27.446208038842958      11.981082384900999       2.557381510683173
   330   1      25.419316041718588      14.336770684517653      2.2208820686411781
   331   1      25.072261748264737      16.361373778495018      51.782705804074361
   332   1      27.115195036461831      19.052644616520467      52.079327733516266
   333   1      26.668066542783997      17.192042257456588      2.0620190155722615
   334   1      25.698642095644193      20.354262571732875      2.5464926889715436
   335   1      25.839017900749312      21.787007730535137      52.096878563896198
   336   1      27.269296312655463      24.905137529625744     0.10939259355866426
   337   1      27.417198840278811       23.08245259450948      2.7822521825025475
   338   1      25.618938708930411      25.976973629011404      2.5950798915286541
   339   1      25.583917146314413      27.951129045067784     0.35814660140179422
   340   1      27.613353096487646      30.529093639140672       52.06844907369662
   341   1      27.395087026882777      28.875674004907207      2.8325165566372368
   342   1      25.813952456106382       31.62878211548481       2.506420813534624
   343   1      25.799124050363758      33.638238933359496       51.99488673810788
   344   1      27.366710397399498      36.585535341555087      52.111099930085338
   345   1      27.583658073195746      34.375107289157306      2.3604566219400973
   346   1      25.531106241485265      37.378432064072939      2.6933241926128755
   347   1      25.739874452260956      38.785330147958213      52.004096000536634
   348   1      27.053729094598776      42.017836309156223      51.808081726252453
   349   1      27.333966241192229      39.994161700690825      2.4432328672630641
   350   1      25.734508522015069      42.276296623928232      2.8412674594919585
   351   1      25.538802392040491      44.652494836256217      51.929732610089921
   352   1      27.394005225194956      47.101742519965669      52.109199203346812
   353   1      27.556175675511774       45.56213090506629      2.5584928748454709
   354   1      25.936142151823148      48.181529353849371      2.4846741947498781
   355   1      25.974186731467036      50.214018611147395    0.030642657568542838
   356   1      27.450976968026598      53.124132474444046    0.037445253401019195
   357   1      27.230386911128551       51.00913710051892      2.5376214706156714
   358   1      25.425613368017938      53.515885052106732      2.6679367737762494
   359   1      29.077146981858984     0.10030589716433512     0.16234479408906813