dump/Mg_700_20/steps_21 (written by ASE) 

3980 	 atoms 
1  atom types
0.0      32.100000000000001  xlo xhi
0.0      55.598830921999998  ylo yhi
0.0      52.130399999999995  zlo zhi


Atoms 

     1   1       31.63171633584798       55.23266201772087     0.28918778770206593
     2   1      1.3595179561989457      2.6061379230766613      51.931159123281958
     3   1      1.0572864003200733     0.43625287217614606      2.8521998913068334
     4   1    0.031481808544606672      3.3246885783916209      2.2794030227164157
     5   1    0.065603303930610118      5.4486671807170364      52.055929965534624
     6   1      1.6709921293870389      8.2347644153284154      51.829220477036365
     7   1      1.8893581572107234      6.4998580971759905      2.5035735083066193
     8   1     0.22746281580947489      9.0662886670216025      2.2863253885357131
     9   1      31.920620358336244      10.961666910220652      52.000816935221046
    10   1      1.6275745495762206      13.857632555682994     0.21428467335894064
    11   1      1.7481262078235227      11.972749769073845      2.6301665885920622
    12   1      31.939131034705504      14.749234250583049      2.9903089089712536
    13   1     0.34987529174626403      16.485269574588504     0.22258006205757364
    14   1      30.548043084231612      19.215813458874532    0.054207872879669834
    15   1      1.5701062041510923       17.54531613658709      2.6524789024663664
    16   1      31.748203088484633      20.156063820348162      2.3234321629180203
    17   1      31.596997059486714      22.356267537353364    0.078190547071355657
    18   1       1.658629927698966      24.821761504116594      52.075256579303264
    19   1      1.3363366479190883      22.642963485869057      2.5144465212149223
    20   1     0.17447918964441139      25.518774108253851      2.2650012864180855
    21   1     0.23534298421563365      27.818271419741045      51.924044740919442
    22   1      1.8495060378728021      30.875848920715342   0.0015549729834259784
    23   1      1.6301001808570306      28.750664018805214      2.4847358100797043
    24   1     0.17696736078560407      31.460847186096771      2.6877353898191867
    25   1     0.14477869155396306      33.110318417312527     0.22417815218647191
    26   1      1.8593838500012825      36.061885579142526    0.020932455424107578
    27   1      1.7162277007617752      34.406916360300485      2.6350439517351303
    28   1    0.060836278173646896      36.918017987691535      2.5316993470209774
    29   1      0.2589021036351084      38.958337227322289      51.755213888808655
    30   1      1.8782187375802268      41.680459374540902      52.067625361224557
    31   1      1.5828277418359724      39.788185932839276      2.4151617396190699
    32   1     0.09802114502465703      42.559582641323075      2.6062870707952497
    33   1      32.016442875007733      44.361168782125453    0.074031108577126525
    34   1       1.874767765444032      47.164095116399707    0.021633022883914263
    35   1      1.5543702270507795      45.387483768511487      2.8224469044348557
    36   1     0.36109545829179146      47.952645643423025      2.5846700082681502
    37   1      31.863887961651081      49.711718198540446      52.066599561843788
    38   1       1.418662719069419      52.548543631647291    0.015627023518339313
    39   1       1.699459020685244      50.592763827673863      2.6142381256637619
    40   1     0.19334228983979423      53.310659456234049      2.7420316122372337
    41   1      2.7920381453248249      55.413601227172634      52.103147655487412
    42   1      4.7267947896027591       2.357658463878292    0.079770391385763084
    43   1      4.7450211000643989     0.76335488511371685      3.0206087562750281
    44   1      3.1247807275427486      3.1431480511462748      2.3349340671740504
    45   1      3.3322215342525978      5.6648118390496141      52.060964640313458
    46   1      4.8187911634290801      8.3571462095560989      51.978086753680088
    47   1      4.6779961798890923      6.3294743853061108      2.5688712244961702
    48   1      3.1987498128644356      9.2323517794665921      2.4210071011284962
    49   1      2.9039502483767867      11.056993628144774      52.022060866123681
    50   1      4.7353995898650219      13.955559434302407      51.978353244038765
    51   1      4.8771150129385497      12.235834906079152      2.5896501808960606
    52   1      3.3859103810368576      14.902893925435892      2.5874812838647001
    53   1      3.2896374419689391      16.696876715244613     0.12891521100980954
    54   1      1.4742243944507778      19.548534522949989     0.19120012208227741
    55   1       4.872767057500913      17.431596161204549      2.3622793072399912
    56   1      3.6046143553821062      20.477732382767478      2.5365375120144855
    57   1      3.2066434780392501      22.141433294779031      52.047723415891781
    58   1      4.7887425287404071       24.81626901665836      52.003916551207361
    59   1      4.4694802800941984      23.120672974869528      2.6169040528114254
    60   1      3.2852133067600402       25.93113607145051       2.588829268207574
    61   1      3.3355128248940535      27.827410251227001     0.11815616990501111
    62   1      5.0155640174072396       30.63957618541459     0.32994737544684916
    63   1      5.0346338636991881       28.43934749822467      2.3549863025168838
    64   1      3.2596961698390325      31.169382115095367       2.787372348025615
    65   1      3.2364193356152104      33.545263651834802     0.17780000750563446
    66   1      5.1448649850705523      35.981848106249629      52.077824492500291
    67   1      4.8835824606399845      34.098187716875948      2.6094749331003575
    68   1      3.2750539711496236      37.318594922331464      2.6804885575568118
    69   1      3.5172460168300104      38.871654256045815      52.057547433275353
    70   1      5.2668897579062657      41.384473098618855     0.24962456547678036
    71   1      5.0827882998703977      39.893584063574423      2.6106325476929517
    72   1      3.3569591403439172      42.567081198705544      2.5601640788651308
    73   1       2.866420090126728      44.454860913691853      52.127550807865276
    74   1      5.0196743464296878      47.415016011463671      52.114316233415956
    75   1      4.7975837771567296      45.290511422460298       2.502375480445898
    76   1      3.6473956428761998      47.954500663034594       2.695330941954527
    77   1      2.9454568005674804      49.967686709920258     0.13305802044974901
    78   1      4.9955947389374424       52.95543463398122      52.001101005719278
    79   1      4.7933525243557664      50.814575977138766      2.7020409950020619
    80   1      3.3804931256890627       53.81918298943981      2.6009574517657237
    81   1      6.4981493427225416      55.443907549241096    0.067537533983573914
    82   1      7.6834051082738108      2.6791605503737141      52.012105664841144
    83   1      7.7807752614063972      1.0017026205422164      2.6601261987867169
    84   1       6.044163886614883      3.4870085344973027      2.8611141565786742
    85   1      6.0933779872291716       5.236289453679011     0.13787678059897907
    86   1      7.7501940596733343      8.4065991503314681      51.943241731860574
    87   1      7.7199624471795421       6.396127825881849      2.7090583612062602
    88   1      6.2472452151928364      9.1278620074645183      2.6132480948385024
    89   1      6.3477859827600671      11.141371188209368      52.009328498730326
    90   1       7.686117917550682      13.575473300199665     0.10159364323499172
    91   1      8.2467260801018867      11.537677720698744       2.344486531525944
    92   1      6.3771692340263852       14.88962713853045      2.5253508689450084
    93   1       6.427446451443088      16.702711602276047    0.034529557432634909
    94   1       8.037729704942814      19.285978517349267    0.070296135817258007
    95   1      8.0144415939068168      17.751363488560653      2.5593580276462142
    96   1      6.3733997910092501      20.362969836395944      2.8061073952196756
    97   1      6.6169940885988145      22.218764680706073       52.10713868191511
    98   1      8.0920874002303762      25.023583750465274    0.013039058361076316
    99   1      7.8896034205595855      23.121942659927658      2.5433995259712319
   100   1      6.3305170765836012      25.806989472131878      2.8766324402670103
   101   1      6.4222183621172251      27.537612168665373      51.982063003935949
   102   1      8.3484348182608343      30.522127226738018     0.09786675124173802
   103   1      8.1513703072415051      28.856190383303808      3.0918025084540566
   104   1      6.3717431277190739      31.262905878956484       2.782729165545037
   105   1      6.5245830850741013      33.212233082454254     0.18529275455955652
   106   1      8.1046721718777075      36.130376199524939    0.031806360869384029
   107   1      8.2564246130462386      34.313857168265422      2.5285473091171595
   108   1      6.7104889465182769      37.205702564890984      2.7037477531016569
   109   1      6.5644227344091748      38.710911411582629      52.039039933167196
   110   1      8.2920825005566936      41.780787796863116     0.15116995200595415
   111   1      8.2618048501465662      39.960295997515558      2.5807475577141066
   112   1      6.8120049161289167      42.670993395231569      2.6166557690098369
   113   1      6.3466467756975931      44.598452412327617      52.076247764485245
   114   1      7.9573857389654359      47.212040158158281      52.120561976648894
   115   1      8.2177701648065202      45.535045525489117      2.4732486084441838
   116   1      6.5147840507311381      48.021421271548725        2.57637089943867
   117   1       6.544946998843276      50.046261725575206    0.010922776929518105
   118   1      7.9696203619905743      52.668848757142513    0.035880692976264145
   119   1      7.8264152101997553      50.954344401543622      2.6245630639699473
   120   1      6.4200270466513754      53.706832846973832      2.6700862807144903
   121   1      9.4602394382529962      55.415889191635671     0.16452581067610755
   122   1      11.261771945163902      2.7531417337288184      52.027795636467481
   123   1      11.408311769283797     0.71619544923328615      2.8098093985171797
   124   1       9.769514623218484      3.7296358477965215      2.2687066699119378
   125   1      9.0195804763934131      5.4514826219428221      51.933235683514177
   126   1      11.074537060529654       7.785310730887919      52.101568429000025
   127   1      11.191021932283476      6.1039981806442194      2.6228169193634829
   128   1      9.6265948777131651       8.668159126291723      2.5044036947624311
   129   1      9.6142053845222222      11.027724344717775      51.865312729808551
   130   1      10.986938033771123      13.742751773611449      51.917756594650612
   131   1      11.087816177277157      11.871763773526316      2.3327919988321488
   132   1      9.5292760820485238      14.573777186579923      2.3522540859192724
   133   1      9.3779977015197211      16.312494615467841      51.855473307438338
   134   1      11.260082580030737      19.455170234096613      52.011057889647354
   135   1      10.997143882391802        17.4957171225088      2.4797696878980267
   136   1       9.801624933835976      20.447731946081902      2.5346759823202265
   137   1      9.6392992099033759      21.898227541007358    0.055495105531875817
   138   1      10.911283548711831        24.7850299874546     0.30794959324347065
   139   1      11.063274973327355      23.213711878874452      2.7156326070666381
   140   1      9.2777134428543064      25.970067988111492        2.97484912465712
   141   1      9.7615889487008474      27.777662214079733      0.1523720677334226
   142   1      11.247617611064159      30.317006270778631      51.982400369511829
   143   1      11.257603149503739      29.169983135811648      2.6868889401366394
   144   1      9.2872505793806361       31.78582548616091      2.9102768689020833
   145   1      9.8643585538942258      33.246648149371346      51.972563571330703
   146   1      11.186270902116558      36.480205044165444    0.043758351145435866
   147   1      11.488109353250614      34.242420152492464      2.6309205983269979
   148   1      9.8048896855065006      37.321901970698924      2.7314132704534253
   149   1      9.7303644849338493      39.219909487536114    0.047274090641287791
   150   1      11.700174162428384       41.87973205398854       51.95726436734676
   151   1      11.478688208500937      40.345038155261889      2.5556213442912323
   152   1      9.9277909954590893      42.682600222715827      2.8284710343911246
   153   1      10.158783876176386      44.415729191445806      0.2711506715582046
   154   1      11.381148776589669      46.926765723900743      52.066967696861354
   155   1      11.412257291572995      45.697601255456853       2.755594596433244
   156   1       9.553291286801441      48.361309010982694      2.6617145264042845
   157   1       9.849508412276661      49.846928040462444    0.021032905037630893
   158   1      11.176049071506961       52.69176943850357       52.03328736280919
   159   1      10.847347325969498      50.836740445477297      2.5085239148798104
   160   1      9.7228572938584001      53.693791189085587      2.6396933533848914
   161   1       12.73641046911526       55.56688951236157      51.924877532391974
   162   1      14.786768130884086      2.8183940158930394       52.00271007057998
   163   1      14.715367989576432     0.91461216859281902      2.5128057640435095
   164   1      13.053111547178755      3.3999990977020684      2.1848835924025751
   165   1      12.875156662678254      5.6388204058294562      51.936280572742568
   166   1      14.359763310609251      8.4530641249998659    0.063553826578343506
   167   1      14.288350421937391      6.4102629985770747      2.4263614603939319
   168   1      12.699530614037824      8.9776625043743827      2.4585551449664509
   169   1      12.635842717097598      11.035802723319252  0.00094842936876666421
   170   1       14.48778158042502      13.840895977577047      51.782220729828609
   171   1      14.011721856280563      12.049058304865461      2.8610948274103891
   172   1      12.629943058417089      14.691557164527994      2.7302583792246415
   173   1      12.307706538507965      16.321215502073393     0.11394815928201886
   174   1      14.576382699418444      19.384611798629003    0.080364911756946128
   175   1      14.329657530164191      17.413251664606218       2.525562499737922
   176   1      12.870036379288612      20.286105726243022      2.5359810220392109
   177   1      12.745920505474002      22.491746518309256      51.994820492292092
   178   1      14.730388570731566       24.80583275525105     0.23583131383581452
   179   1      14.148971709968329      23.191628224301294      2.6317785143241714
   180   1      12.837949624271328      25.970132416399601      2.6083437907632319
   181   1      12.933342486030513      27.870278810404521     0.32157514348120109
   182   1      14.302774724104786      30.439423265868239    0.078784185863738712
   183   1      14.519745253822881       28.87519626713787      3.0235826981513472
   184   1      12.847689644523337      31.587944290777685      2.7815240974522406
   185   1      12.857704052677242      33.171943765303752      52.030247696545963
   186   1      14.435881128321418      36.190772701124715      52.007347272843568
   187   1      14.389369231848853      34.227421811159289      2.1795636018141864
   188   1      12.805983980908248      37.164269222644108      2.5699375780011398
   189   1      12.914128049189767       38.79977231710361     0.10167652498875172
   190   1      14.786357051508125      41.386917607621044      51.996860204882132
   191   1      14.377830842140073      40.027861649252955      2.8378135573222782
   192   1      13.217141004564985      43.134229198170772      2.4153144303580145
   193   1      13.167586394437627      44.600093127841738      52.021603745232156
   194   1      14.826420431853302      47.601522621554288     0.12466623747356101
   195   1      14.841829168792842      45.319798258605289       3.004048367580729
   196   1      13.010120217001138      48.292157678235945      2.6156294969341505
   197   1      12.628142789190349      49.985360472962888     0.22004432361831258
   198   1      14.515727989558771      52.693398514535659      51.935190496327898
   199   1       14.75659369920232      50.868378587502413      2.8458595448234889
   200   1      12.852845702331411      53.691441081633307      2.8744769946212565
   201   1       16.09904293468502     0.18445411868646508       52.01883639448554
   202   1      17.792290953794641      2.8846892221797868      52.031597841391324
   203   1       17.89944541074474     0.95752264022386757      2.4155851577366758
   204   1      16.358705483011352      5.6658640564285383     0.22479869963511875
   205   1      17.626578730569118      8.5615568871848637      0.3064176681723646
   206   1      17.491526612472725      6.6711755688881205      2.8437553920685588
   207   1      15.736869590228997      9.2413486597890966       3.000780627424382
   208   1      15.957117898868544      11.315693990675738     0.32941866174963758
   209   1      17.551307305458526      14.190845129925593      52.091343760300553
   210   1      17.692167995587674      11.896034157769828      2.8523761382715316
   211   1      15.983573317446449      14.488517093861391      2.4646254016068578
   212   1      15.936285705150146      16.622414511889676      51.891275613061588
   213   1      17.553559206745472      19.433515911778617    0.064672462967137481
   214   1      17.607740679140925      17.128251512536135      2.5263340379685393
   215   1      15.926419873391577      20.245664345824867      2.6985235908299288
   216   1      15.915086038514058      22.104727817341676      52.089988684505492
   217   1      17.412485486168208       25.00724402286437    0.029589615517634119
   218   1      17.158128746846845      23.179162175458337      2.5030301157958155
   219   1      15.910301627805753      25.942456153879121      2.6891081487481956
   220   1      15.991749829017243      27.815698900076331    0.073185213375764446
   221   1      17.590216467905734      30.449259550151179    0.093718546125396998
   222   1      17.725142915360401      28.473250565972837      2.6301013755677776
   223   1      16.235513135257122      31.465197963263243      2.5290567316944745
   224   1      15.893460049885544      33.097152423770183    0.013143753931811351
   225   1      17.700428970353638      35.976968155783915     0.33654692276279707
   226   1      17.607987069752458      33.857021440942006      2.7271454934804344
   227   1      15.775485935576828      37.234097274012697      2.3919599737375421
   228   1      16.132827589673965      38.715250254057793      51.821796680884603
   229   1      17.898423582349626      41.458386975971088      51.819005651869951
   230   1      17.646984064304593      39.572832010100193      2.5938724940210345
   231   1      16.333294190735838      42.696645836717074      2.3712716426556604
   232   1      16.348386404644597      44.874931248001218       52.07887345495196
   233   1      17.920372485607512      47.269074069498046      51.903752155815312
   234   1      16.093062766158415      48.284600542251425      2.8705619781890115
   235   1      15.927169364376539      50.025283480293311      52.019591428969669
   236   1      17.768753193403885      53.080228550431848      51.968442498689377
   237   1      17.717534651051803      50.982470760316168      2.3309879558915596
   238   1       16.01277653936511      53.790578563511836      2.6576507111980519
   239   1       19.51951957257441     0.08242248125091392     0.19993488965241391
   240   1       19.27822392317238      3.6595315874225913      2.6131138425977301
   241   1      21.058015608021133     0.81766033896325208      2.5154048119674899
   242   1      15.989602623805679      3.7114995048505968      2.7879584313384322
   243   1       19.25211833349363      5.8183246574202858      52.107953423042311
   244   1      20.841747929561446      8.3567486127729644     0.36044464422454459
   245   1       20.97282577813743      6.3379362204697269      2.5903309773047329
   246   1      19.347186504610136      9.2355123550530873      2.6714983153122107
   247   1      19.059476604315396      11.328325129418024     0.40862724966113495
   248   1      20.917059899696344      14.273257320078269      52.128822280972578
   249   1      20.985189538235538      12.266324232772963      2.4911017342250346
   250   1      19.285472973376031      14.708427025136304      2.4569958477421427
   251   1      19.150608573090832       16.85926548243734      51.886570399471779
   252   1      20.852049323423845      19.765977533435652     0.10994738219015206
   253   1      20.590057303970017      17.506045195487388       2.425714435782639
   254   1      19.035927063272588      20.209860228246175      2.5008701147266974
   255   1      19.065783202358624      22.064377374606831      0.4026547225656007
   256   1      20.752484715565462      24.887499279423505      52.030144981885769
   257   1      20.779111937734072      23.312176935091667      2.6450552168653165
   258   1      19.031597801402139      25.850506039336185      2.6629390316943442
   259   1      19.214092654878712      27.505162857175538    0.036796003788696192
   260   1      21.006414817725783      30.668515594839615     0.34095957247313657
   261   1      20.573581761898225      28.576964817369053      2.8211664406088111
   262   1      19.642378037012449      31.653156803530109      2.6218867857817942
   263   1      19.310804042425211      33.271798831764293      51.988979291904428
   264   1      20.863666858151973      35.886632351420111      52.070417767490127
   265   1      21.546399485785962      34.488951968573325      2.7154185919020914
   266   1      19.417055166128907      36.950290906006302      2.4799868766715774
   267   1      18.825301253783714      38.438408446955428      52.068159776929193
   268   1      20.589379487961576      41.200693898810819      52.011360361294692
   269   1      21.025966787916257      39.619948174694898      2.5077773313903085
   270   1      19.313906495799838      42.547618361610219      2.5401113478264645
   271   1      19.329184144250799      44.092302232853037      51.920831074217723
   272   1      21.154238694436849      47.372469555074787      52.034047696663436
   273   1      21.056147907651347      45.484727813656761      2.4007907906724366
   274   1      17.898298991235951      45.430817232453421      2.4260350890718931
   275   1      19.650604402384989      50.256196646411532      51.872616552823544
   276   1      20.956757773483471      52.957704248818111      52.103056047101568
   277   1      20.959042142314381      51.000777876621704      2.6478945751065011
   278   1      19.083100096118937      53.538320818594805      2.4985910485793892
   279   1      22.531255807648037    0.098830071905353284      51.994163211435328
   280   1      20.886911393059432      2.9398208127989784     0.12454293678590185
   281   1       24.15358338290098     0.90913787368750421      2.7521511789712489
   282   1      22.570877935075025      3.6876230495243472      2.7311325692526371
   283   1      22.286190784059201      5.7051818119314657      51.982915256525267
   284   1      24.091823926431502      8.2891574485087212      51.899210048061946
   285   1      23.836016345175512      6.5665730897536934      2.4616073690085827
   286   1        22.8025507685375      9.4163926390996284      2.5165771278115563
   287   1      22.689987865998003      11.476853738336077    0.052390238959748141
   288   1      24.166233013587451      14.182411596713749      51.885084568071022
   289   1       24.33861713011337      12.309256321141214      2.4594835539130533
   290   1      22.634888814934815      14.711800021369752      2.6218927897108859
   291   1      22.359494850411593      16.779375871940118      51.915466704827153
   292   1      23.779551177344988      19.711371788027396      52.055896052018845
   293   1      23.707737133653868       17.73975973409928      2.7333699413531152
   294   1      22.366850372368258      20.664862592124727      2.7931715371039449
   295   1       22.23381091261038      22.328813039720206    0.068085273659117124
   296   1       23.75558897186864      25.032293719651694     0.15999622179093409
   297   1      23.740460272550052      23.073993034929625      2.5385945758284865
   298   1       22.52655592492906      25.903704430402946        2.98211151741264
   299   1      22.150672277156527      27.590218960471617     0.04716046840291073
   300   1      24.065496856087275      30.264972240516606    0.097907169458526178
   301   1      24.016409691069786      28.781565974710876       2.831057977889881
   302   1      22.594741173345714      31.304641634496178      2.7959335264769578
   303   1      22.399847288889557      33.085105232355858     0.19151203884508092
   304   1      23.946443197588035      35.788954885052078     0.12925163138547405
   305   1      24.345656959068762      33.806915470473172      2.7871737372313663
   306   1      22.621462602314061      37.340765609127409      2.1659777048072768
   307   1      21.821122990870787      38.783377444262776      51.711234159255319
   308   1      23.565169212718963      41.388239802741843     0.02430556571001069
   309   1      24.402359952660092      39.514384851182136      2.7101528841737532
   310   1      22.262194221914026      42.421409950242783      2.5994216522959293
   311   1      22.446667543802665      44.380835413246594       52.00374284741001
   312   1      24.452608351657755      47.015467709732683      52.034432093396475
   313   1       23.86913334254178      45.332882535662968      2.6383774708470229
   314   1      22.480556094711098      48.324074016631798      2.6293834098598663
   315   1      22.660818831228653      49.954513428937474      0.1673076015923021
   316   1      24.108094425403905      52.709296348300363       51.96642685196904
   317   1      24.247991860420544       51.01092537964189      2.5852724866435963
   318   1      22.621399111218206      53.872567700142461      2.6670815827726808
   319   1      24.283223150033262      2.6980022393288881    0.063305337511033399
   320   1       27.35486659327373      2.4373997951952773      0.3582038646774871
   321   1      27.173403714808828      0.4166904209364713      2.9025079764441135
   322   1      25.411060125889765      3.4068241249232853      2.8784282670432439
   323   1      25.553000277110158      5.7580342525329131     0.18403851255709205
   324   1      27.213150605354173      8.3982118466098665      52.088752295518262
   325   1       27.50766296620526      6.4441440572272883      2.6869299889847276
   326   1      25.930727852282594      9.0790081845817365      2.5040019200026435
   327   1      25.801030783628814      11.234278812392768      52.045616900515633
   328   1      27.737020535066829      13.722221107079822      51.985952162757194
   329   1      27.433686336419651      12.107492739667967      2.3439879264552528
   330   1      25.577045261023951      15.079539847976239      2.3131661448593044
   331   1      25.526089640079402      17.041014747040766      51.784828813255224
   332   1       27.28539664680585      19.518549208575589       52.09768488087304
   333   1      27.241714956721321      17.574327185928286      2.5720590404498096
   334   1      25.534493452944663      20.367339725825058      2.5107084905676742
   335   1      25.304196115339003        22.3793562236784      52.074230251328466
   336   1      27.134984603931116      25.203134111032938      52.022694861191624
   337   1      27.003315225124584      23.062990706857207      2.6536017184825291
   338   1      25.582343779822299      25.742803569519932      2.4964794349502561
   339   1      25.313561599171457      27.678645434722487       0.101059309298839
   340   1       26.95952690897073      30.277881752942243      52.073137827079286
   341   1      27.313570992424879      28.510734767362266      2.7541820263074102
   342   1       25.87862151762387      31.380289890832525      2.8715536483842214
   343   1      25.457995425402309      33.112601975387243      52.025293165373306
   344   1      27.536666051455477      35.896190624963246      52.040053851739977
   345   1      27.467615483439598      33.873587621456885      2.6064795312037448
   346   1      25.758452982761838      36.469863281137251       2.424927414003152
   347   1       25.16413308466586      38.687421834992783      52.078409672027547
   348   1      27.151529497469106      41.460046710262375      51.978452403385191
   349   1      27.266507109959939      38.952121446538477      2.0993792453737736
   350   1      25.405812464033112      42.619053466266216      2.6279081011292398
   351   1      25.414860315619311      44.311607057875996     0.21161761639933682
   352   1      27.678311413753732      47.344782856929683    0.080145104863091746
   353   1        27.1496206251025      45.545846406564088      2.3110924779077706
   354   1      25.886885941326117      48.304362278130263      2.4696031479624909
   355   1        25.5855943149962      49.958168039107989       51.89555220850729
   356   1      27.369337947948996      52.602132700651119      52.103169688743428
   357   1      27.476198901069154       50.76028821563493      2.7629429175753994
   358   1       25.96885355528266      53.570833270169857      2.5895134699055729
   359   1      28.606313745287022      55.324320414629241      52.013584469445291