dump/Mg_700_20/steps_11 (written by ASE) 

3980 	 atoms 
1  atom types
0.0      32.100000000000001  xlo xhi
0.0      55.598830921999998  ylo yhi
0.0      52.130399999999995  zlo zhi


Atoms 

     1   1      31.820184709614033       55.59625516945168     0.17557109022536468
     2   1      1.5198486172387256      2.7791223640763834      52.075784115393958
     3   1      1.2582182466505405     0.95251801257563384      2.6268275048499548
     4   1      32.020920761293418      3.5418467530359741       2.668264889658404
     5   1      32.006001141825458       5.398418159534101       52.02568639994108
     6   1      1.6436901644459456      8.5548670639996267     0.11903540138009272
     7   1      1.2945778128986614      6.4867292410666337      2.1229233648564318
     8   1      31.939413319063636      9.5000168731543653      2.4795289377070722
     9   1     0.11648237093630011      11.178282507680152      52.112982064973501
    10   1       1.464793811335293      14.002602083658962       51.94731013380305
    11   1      1.4431018128604736      11.904257887453253      2.7926324457620018
    12   1      32.074334479099164      14.913448900374638      2.5767435649585062
    13   1      32.015992622050526      16.855398550800452     0.17973657144974234
    14   1       30.39551991281002       19.58497566144883     0.13889108789651222
    15   1      1.2619103826203064      17.649570307178905      2.7489804403791145
    16   1    0.083864817089307875      20.346444092168383      2.4150028737688487
    17   1     0.14011001690521566       22.39309252433268    0.058541973569864368
    18   1      1.7387847900874767       25.29837837305876      51.951311138482957
    19   1      1.9364492372188127      23.330513146831205      2.6287298715599787
    20   1     0.15733288984748889       26.07895753657532      2.8717998680251533
    21   1      0.1675024641219825      28.047467400979407    0.081383808158375773
    22   1       1.689607199202301      30.646327355369884      52.111536046701616
    23   1      1.5662138650108213       28.98727734057972      2.5413765756196711
    24   1      31.921797019338076      31.663340620868894      2.5324590491860435
    25   1     0.43371763207375263      33.556122676510533     0.13215056966401068
    26   1      1.7400209125063166      36.403652829808202    0.063754257620557919
    27   1      1.4479203936866079      34.583832643234651      3.0232376283634479
    28   1     0.11470444551469217      37.545651043338381      2.6011556605686752
    29   1      32.079795240686806      39.085396320313784      52.017298168595303
    30   1      1.6870570186185943      41.760320506696495      51.999178026893162
    31   1      1.8447060798822266      40.112444087483809      2.5219947637938653
    32   1     0.13011794658613393      42.984874220324393      2.5047394381316135
    33   1       31.89162370270531      44.320366501155078  0.00035211041705215392
    34   1      1.5076438776801249      47.236560372297355      52.070476993846377
    35   1      1.6422659744916273      45.499889082986158      2.6630110650345666
    36   1      31.974407390336658      48.286728236972962      2.4066555456590319
    37   1     0.46274269590242606       49.99851844951165      52.047358505475181
    38   1      1.5625456017877764      53.045389592808071       52.03569851096637
    39   1      1.7714300297347498      50.854872918587034      2.2187535417386623
    40   1      32.000140642462746      53.579737173833948      2.3470276484724213
    41   1      2.9815726471688095    0.035838506065331212     0.17201230558557931
    42   1      4.5939240151192067      3.0752905097901038     0.06247640371841625
    43   1       4.664875525615594      1.1418725886808425      2.7713841422934626
    44   1      2.7740879756780035      3.7325868065727335      2.5772209270447313
    45   1      3.0715754555938064        5.84101414794387      52.075180901137784
    46   1       4.748149295126086       8.474835317277023       51.99732526079184
    47   1      4.1898603740923468        6.36767472364361      2.6541767675906991
    48   1      2.9713929790327143      9.4596815771355924      2.6840958140660764
    49   1      2.8513949193332113      11.368823990290773    0.043635417559537364
    50   1       4.944954854665963       13.87322018851355      52.100956930359089
    51   1      4.6969971160778741      12.090088464361816      2.6883452705264679
    52   1      3.0226113674625958      14.812019720272282       2.570468612602661
    53   1      3.5382853798707448      17.001658043843612     0.16356598453473623
    54   1      1.8664933598932558      19.545091151641358      51.978328486301784
    55   1      4.8063121077147786      17.119278964965364      2.7324782260653273
    56   1      3.3942167521930116      20.496914709812497      2.7231297769731446
    57   1      3.4569895860592839      22.811386656031381     0.21036209963360783
    58   1      5.2743865389296927      25.197425171284049     0.11176239327224044
    59   1      4.8962006523875514      23.565439974354188      2.8445693034089969
    60   1      2.9767066581693857       26.05452077065825       2.524899856529689
    61   1      3.2559637543678335      27.667784279235853    0.066617339026288441
    62   1      4.7541062206410336      31.168165893695747    0.039959156871483173
    63   1      4.7079904731478406      28.814539070755959      2.6733023956551949
    64   1      2.7460671523236924      31.854866555512718      2.6459735795911721
    65   1      3.2769441452048493      33.555972950625623      52.129841411848702
    66   1      4.4283892154503537      36.341388963309143      51.779749919444846
    67   1      4.7307612565518555      34.363367330890206      2.8809000626284171
    68   1      2.9916871041730593       37.08546464529519      2.5317053625186747
    69   1      3.1935250208590578      39.081082745552386     0.22613097466349472
    70   1      4.9211337638224926      41.956410461996313      51.939535359087884
    71   1      4.7344559341899526      40.501081039279221      2.7272000458439769
    72   1      3.1417565055895835      43.078135277456269      2.4800064398670831
    73   1      2.8969978518534441      44.363473405480661      51.844139934704202
    74   1      4.8778309982168473      47.136386609786967      51.898919101179757
    75   1      4.8688598136189718        45.3703211284029       2.428426903518087
    76   1      3.1832697986724989      48.351870541419608      2.4747665762520561
    77   1      3.2858816368188144       49.96979342636785      51.888985110460531
    78   1      4.6255299410483888      52.818201094091314      51.834030464788768
    79   1      4.9197909467630723      51.334369302936189      2.4111970189940366
    80   1      3.0959731161203439      53.688107994761758      2.3478521997662614
    81   1       6.120776923263147     0.45952083603427302      52.031125511376395
    82   1      7.7814139697188613      2.9162136997600383     0.11146329562801305
    83   1      7.8767240336224296      1.1591926619839834      2.6189457681068529
    84   1      6.2726191991561659       3.834041927313431      2.3488473861837726
    85   1      6.4778883543909256      5.9653155899682586     0.24477197135482612
    86   1      8.1457779485593989      8.2507703963605241    0.062933475713039339
    87   1      7.8993985714676569      6.3207404085695753      2.5779379297965201
    88   1      6.2710917516262166      8.8871279461462862      2.6396103568696043
    89   1      6.1599503318675204      11.143249098311578     0.27526616293054834
    90   1      7.9908353655641911      13.674324902973394     0.13780488724363599
    91   1      8.2124386437654522      12.134826202713709      2.6538968792089905
    92   1      6.5236520522219594      14.660215036549218      2.6059281846950246
    93   1      6.7098617065211279      16.851887357163577     0.21171521687008496
    94   1      8.4038687406389787      19.682738099605182      52.065318518458412
    95   1      8.1847876142189691      17.325798100614332      2.8394092208588773
    96   1      6.7207688536320855      20.146265706547123      2.6208854262206174
    97   1      6.5686695048633501      22.302012863049061     0.23754792439977065
    98   1      8.2841145421481297      25.199994560576801      52.120813278532239
    99   1      8.1451155535001263      23.219971729628302      2.5769839201159135
   100   1      6.6982249979570607      26.415933992912876      2.6157284658726927
   101   1      6.4077587832659386      27.942262139171085      52.047770743215942
   102   1      8.1064631916799588      30.891380741209236      0.2689759936490313
   103   1      8.1439504836105279      29.130210655351256      2.9797162439056244
   104   1      6.0737670859156898      31.667291929046499      2.9184255148502429
   105   1      6.5146797145872082      33.611766763686752     0.31033773865152142
   106   1      7.9612256923318947      36.347768163219605      52.113151626756277
   107   1      8.1277088318870305      34.060805578962324      2.6532054452353075
   108   1      6.2305128289463436      37.239382415162382       2.483588383701834
   109   1      6.1946625819393324      38.937241109612572     0.28075397227952237
   110   1      8.0615653748893639      42.013943779547269     0.14466686185408043
   111   1      7.7569477233993931      40.175665051541422      2.4769010088808843
   112   1      6.3783597140780559      42.808968148571076      2.8422416423572301
   113   1      6.3981924971057582      44.490405396875097      52.120163293563699
   114   1      8.0197292485867298      47.412211719360634      52.104590689947763
   115   1      8.0287676057531616      45.615961858897187      2.7696526946832161
   116   1      6.3349616468319718      48.377203856733729      2.3777572173443167
   117   1      6.4121128216002257      49.991535131134611      51.675498335632355
   118   1      8.0658417763993313       52.62305044839519      51.781938094693992
   119   1      8.0892054170169239      50.954067690308406       2.197905472022748
   120   1      6.5895954504501439      53.744979001132229      2.1965820015693565
   121   1       8.938087473752157   0.0080342571670609878    0.074286659194278917
   122   1      11.050487493433192      2.9893636124962772    0.098356835571313722
   123   1      10.947548541462835     0.66249460608693111       2.345159582479805
   124   1      9.5519256510764734      3.6506598771069894      2.6292601033582699
   125   1      9.3781242711307513       5.673187026342668      52.069792449706938
   126   1      11.114332344177992      8.3580049472618967     0.10047685910933132
   127   1      11.000658814488345      6.6456661382510953        2.48522036969432
   128   1      9.5143146072215714      9.1013822978710248      2.7826707054460127
   129   1      9.4778695513591522      10.890023579797568    0.099414151446026805
   130   1      11.160389882717533      13.768329578103003     0.29394607242630644
   131   1      11.258502620189519      11.966878723488724      2.7589939957496923
   132   1      9.7710837251780074      14.578540845767126      2.7296384716230682
   133   1      9.8374228079258472      16.591830465030558     0.14861827431428465
   134   1      11.454863317190485      19.578951060033539     0.42001965805619418
   135   1      11.294071574893417      17.456165075093644       2.464020350111328
   136   1      9.7005374648563425      20.295455922780423      2.9953360102627329
   137   1      9.5049237692737041      22.450192956416494      52.097496183539093
   138   1      11.289070426397741      25.245160002735584       52.04320788364015
   139   1      10.851980417170168      23.088442033853916      2.8382287314622761
   140   1      9.5777565603544907      26.156691111500677      2.9703248397055093
   141   1      10.011708724207748      28.270389181997352     0.29738946014892115
   142   1      11.518170751017578      30.867334276613704     0.26753636169550121
   143   1      11.455454437051943      28.671005752704357      2.8611911763795441
   144   1      9.9889754056765732      31.700735977637699      2.8734712473459503
   145   1      9.8221277243523346      33.484055772662451     0.20149569754592497
   146   1      11.351549749106171      36.114295674731444     0.28917056157254439
   147   1      11.461490398255412      34.329580444677866      2.9036787036494127
   148   1      9.5203431588482985      36.961247010460546      2.9658860454181162
   149   1      9.9826949732030155      38.934868392865503     0.08984599689865265
   150   1      11.036115361531049      41.984391323599347     0.15680740955623346
   151   1      10.984744664755375      39.863107060405582      2.6871656468907346
   152   1      9.5030845893099425      42.386903973827081      2.6260200165694627
   153   1      9.5728797684945928      44.584688487987208     0.21862121378650515
   154   1      11.248068102601099      47.304414399630929      52.042045621184968
   155   1      11.322623588090421      45.591914948377905      2.6511770876565106
   156   1      9.7007948520429998       48.00886891609823       2.442396443390253
   157   1      9.7412557167915264      49.709628879008086      52.061753080192545
   158   1      10.829550605950814      52.510154626828907    0.052689855982263445
   159   1      11.257396706970862      50.664137340936414      2.5500328307127056
   160   1      9.5682687162982631      53.464238463484911      2.3519602915922442
   161   1      12.605157377212313     0.17616190144900734      51.915288013034179
   162   1      14.268029744509636      2.8105743515095103      51.936498665029049
   163   1      14.124847035107425     0.70151845793802214       2.269282218271869
   164   1      12.523373383280388      3.7461104823405997      2.6298956036103989
   165   1       12.45473824107532       5.665214231225459      52.106408641705073
   166   1      14.380090724385788      8.2416576818836909    0.013095626198747767
   167   1      14.464778669292995      6.2187437928818987      2.4085302890905624
   168   1      13.027807234656379      9.4822028481716565      2.5468732577284743
   169   1      12.978128731247258      10.971771727651946     0.14373676407462252
   170   1      14.422987105599548      14.032087353731894      0.2811457893610777
   171   1      14.646830510303879      12.083003230063053       2.676897667550175
   172   1      12.914777385215942      14.335415144812089      3.1260648051607487
   173   1      13.072518556554007      16.840715654562231     0.29663456465104832
   174   1       14.49271945646824      19.523995948407698     0.31830470103581998
   175   1      14.618301877118737       17.15424582191612      3.4677402835193685
   176   1      12.870759597007988      20.381082306792614      2.9050852252489365
   177   1      12.521985994389865      22.393828275242281     0.15803346667531451
   178   1      14.360878755394396       24.67036217039465     0.31054051557841278
   179   1      14.184611281002297      23.073012412936482      2.8810856277502377
   180   1      12.993618028324546      25.949523987640781      2.7401911209432659
   181   1      13.113485758833344      27.637506479912993     0.44557713422029316
   182   1      14.637615631783488      30.343209958268119    0.015039572733387276
   183   1      14.668910832159359      28.707121961108655       2.842852939608401
   184   1      13.134220283966346      31.619258802870302      2.7410647714368062
   185   1      13.004999729131256      33.624416854672916     0.29914479959897788
   186   1      14.304740827308628       36.63644642668455     0.13020133699321379
   187   1      14.770097147157125      34.383539831208452      2.6184875360749293
   188   1      12.633232104852178      37.243620463648661      2.8123402927979591
   189   1      12.767849199192861      39.253114454302512      52.102475166464416
   190   1      14.450634561829048      41.949873126050178      52.074316970514126
   191   1      14.191998772027588      39.857661083652474       2.991033993556433
   192   1      12.733292090677907      42.302338894712761      2.6575528219981157
   193   1      12.725029653395783      44.551825184079355     0.12041710695511275
   194   1      14.454830799031376       47.53548967035276      51.958265454965662
   195   1       14.27941975093198      45.197633444579751      2.5126452005950726
   196   1      12.865805446071981      48.094281507490209      2.2521990606329396
   197   1      12.802688730618931      50.377257236628466      52.111011533813226
   198   1      14.444862766883919      53.209819935572298      51.954470925827188
   199   1      14.197500634869435      50.924729900029803      2.3320804604868512
   200   1      12.469257032089549      53.566281783112501      2.2205737869278113
   201   1      16.266280309643253     0.50479364965758966      52.034250425606103
   202   1      17.641743393678084      3.0636855696689809       51.90115575136538
   203   1      17.564913024734555      1.0037906341036986      2.7656826753459045
   204   1      16.047743524091718      5.5254467346399512      52.061319236434123
   205   1      17.674331740377511      8.1961804833799938      52.050418112798276
   206   1      17.594053028017687      6.3319703275248056      2.5220450279202606
   207   1      16.305480990328693      9.1128360041787033      2.4746901775229748
   208   1      15.855582469064935      10.680644572771483      52.031184527461946
   209   1      17.388281449451036      13.680349852187396      52.113277864329135
   210   1      17.666952151693039       11.75768595537486      2.7279884099611409
   211   1      16.197791176170874      14.608290524257376       3.040700122969394
   212   1      16.178762341030723      16.629437030194762    0.056178336012150401
   213   1      17.456484766502339      19.336632844211515     0.24155695042976019
   214   1      17.583589496361387      17.155116849311376      3.1628935907834643
   215   1      15.984445007430644      19.910534347487722       3.204761998349738
   216   1      15.830418161649714      22.183111372147781      0.3860478839832861
   217   1      17.686497877419345      24.688714124091501     0.14991096631171558
   218   1      17.554338272206724      23.179510316675209      2.9083609443894978
   219   1      15.865980986132284      25.856423760632239       2.495140804637848
   220   1      15.952151068132299      27.807522710348142      51.956539080302072
   221   1      17.681662797590331      30.629399006964963      52.101430776160797
   222   1      17.740661117692976      28.385876262655358      2.6587006435991785
   223   1      16.216786628477905      31.322374715864232       2.702153536595076
   224   1      15.942539837787178      33.491133815730471      51.987664689185159
   225   1      17.447597789466545      36.094466573876176      52.099441504598452
   226   1      17.763407897247475      34.339302560415135      2.6431306353545292
   227   1      15.941980227045228      37.362877520148587      2.7691926943731628
   228   1      16.058341241744362      39.298607318831081    0.046608409049920363
   229   1      17.972057322112683      41.522675215625441      52.004462991094812
   230   1      17.541567457247648      39.992792655352815      2.7915619122503621
   231   1      15.681218473460754      42.450669270478542      2.5801543939280065
   232   1      16.107135455165743      44.411898351380579      52.076625946028756
   233   1      17.502478219956362      47.409465947543445    0.024205581169886324
   234   1      15.751991019631369      48.178894698192636      2.5532433623842272
   235   1      15.865146941484792      50.109712656986659      51.833146782271498
   236   1       17.68471713560654      52.995410863033115      51.990512476611286
   237   1      17.682480236878323      50.494197049781128      2.3074027707175842
   238   1       15.99689671359917      53.667813576409145      2.6839007125541503
   239   1      19.265150185921105      55.482217633077397    0.059883313638746168
   240   1      20.853971844284363      2.9046188705358955       51.99606439967355
   241   1      20.686622152030022      0.8158605211442832      2.5689907915938077
   242   1      15.872022263070205      3.3944827379600482       2.344561918037495
   243   1      19.287705778138491       5.542454654098508     0.10552481848611149
   244   1      20.761608624961685       8.316808618990974       51.83787618135527
   245   1      20.536442639475712      6.6292004548155372      2.4598915849658667
   246   1      19.286122620892264      9.0892846713411792      2.3252861452876328
   247   1       19.00892791540938      10.874777725459348       52.01039668536459
   248   1      20.942570267665321      13.695748385937678     0.15260582115161972
   249   1      20.732501623581882      11.815488295257712      2.8380534591289872
   250   1      19.434303339391533      14.612597375714696      2.9227774251971201
   251   1      19.154583202648588      16.366494578987925    0.085432443882816067
   252   1      21.040729612337213      19.344917284483543      52.076338935616882
   253   1      20.977233778070232      17.969502856363302      2.9745554433907024
   254   1      19.029631912458775      20.499556042789191      2.6251503132169711
   255   1       19.23279254377352      21.923028055274788      52.006337807891008
   256   1      20.574343926950277      24.639932459175956      52.026208296534534
   257   1       20.60341492759369      23.100463077628273       2.978836435469991
   258   1      18.975046197739903      25.559807600187291      3.0030842131921309
   259   1      19.050290789015936      27.336235882055746      0.1787016837608805
   260   1      20.807398599798915       30.31946760457646    0.023113153275881794
   261   1      20.938060128043269      28.053527546289466      2.5785169431023212
   262   1      19.180507834706091      30.910741319463749      2.4959069414196136
   263   1      19.252330820221836      33.391916883115819     0.06209593265457411
   264   1      20.720835617716777      36.229745524445725     0.17737273979783247
   265   1      20.754043318297505      34.327162582454648      2.8121030122526234
   266   1      19.120211099209648      37.286428731708448      2.5255685393210787
   267   1      19.093448284688364      38.749310025453745      52.073476002576157
   268   1      21.077375280392669      41.909386564183798      51.979848591543089
   269   1         20.674128318013      39.767186057913008      2.4231216382607084
   270   1      19.114088294235781      42.847059867435405      2.3890244717395839
   271   1      19.265766547220672       44.47370713627415      51.957452381744694
   272   1       20.93731674990147      47.171092900509159     0.16270410044026462
   273   1      20.984082079711644      45.352956714299999      2.5001716699106451
   274   1      17.451855501529383      45.277434126774622      2.4946016942480038
   275   1      19.263565920904512       49.76396099102049      51.748006793216845
   276   1      20.753741155817679      52.484266667431619    0.023469957412120327
   277   1      20.754825533579922      51.125441937238314      2.9615548836577812
   278   1      19.260251068553863      53.270833503348101      2.5488245690029077
   279   1      22.361535368080521   0.0078543815483527388      0.2187703957053973
   280   1      24.106503251913388      2.7018534775778873    0.071022092457286926
   281   1      24.336760133648333     0.84579780708139862      2.5135169846966097
   282   1      22.489580890854771      3.4702999154114926      2.7310508764932502
   283   1      22.552978972816728      5.4704452926493587      52.044926562880782
   284   1      23.786464930847465      8.3766488297162471    0.040871171958546532
   285   1      23.845994816671954      6.3898577805808534      2.3147767341565713
   286   1      22.118827970988338      9.1348965510197342      2.3798199209726221
   287   1      21.876591653584608      10.852304012721635      52.109337980210732
   288   1      23.889375917116222      13.895324825399634     0.18164111288595616
   289   1      23.872977318007397      12.336885287647222      2.7278686604920037
   290   1      22.448577583934892      14.989005183513569      2.5788389574867518
   291   1      22.669344225028709      16.790918020760834      52.109117866695463
   292   1      24.095477759875447      19.320293063850375    0.091148620663478633
   293   1      24.211656315633704      17.798892541844623      2.8167514945715264
   294   1      22.445036976361393      20.670391709672444      2.6319588222728338
   295   1      22.491821719306202      22.102149536173158    0.057842756928614125
   296   1       24.02743929724339      25.168600201917148      52.043327371905917
   297   1      23.843968941495266      23.298235840212079      2.5916626005322061
   298   1       22.45144183820587      25.651535016960519      2.8716743660189126
   299   1      22.306606128057009       27.41452440123529      0.0873177257461107
   300   1      24.499555583664378      30.494979431142262     0.17354205619126042
   301   1      23.993926529568675      28.165999195055619      2.8270114230270855
   302   1      22.670828375028606      30.983344940381226       2.711975536652468
   303   1      22.226506331756671      33.231395471360081     0.04291227871681233
   304   1      23.974156409599892      36.204173797722028      51.831945073246928
   305   1      23.887331898843559      34.165863304720759      2.2415884159848627
   306   1      22.398642066145474       37.23693252263714      2.5372580435824719
   307   1      22.455042254409882      39.053682281149996      51.777025706945146
   308   1      24.224580988400408       41.96548567487676      51.671256887456998
   309   1      24.021012124189784      39.886952545525787       2.341900256594275
   310   1      22.471544971511943      42.763573515348085      2.4043551741148672
   311   1      22.377230381499771       44.38524655577551      51.900776856864972
   312   1      23.954587108534088      47.460776670510683    0.037115572888514803
   313   1      24.101006624750276      45.498045360241022      2.6154539339810987
   314   1      21.975084376919007      48.227176010860994      2.4650954767391311
   315   1      22.500328515640913      50.429036585612053     0.11317915772326463
   316   1      23.925417137604946      53.108087124748707      51.911535745192445
   317   1      24.130619022381033      51.232708931541197       2.414949387056518
   318   1      22.370457444241282      53.744354020897745      2.5926754258864784
   319   1      25.468191860191748      55.384584444436435     0.22281915067182875
   320   1      27.583075795079242      2.6010406193518789     0.39144148147947411
   321   1      27.344548919383872     0.68315648616592839       2.409447368969353
   322   1      25.805165373060852      3.5672077957172008      2.4379517076276551
   323   1      25.801930305233924      5.1634098562625566       51.97132667787637
   324   1      27.026372587510007      8.2440583317037408     0.27310466667234939
   325   1      26.584961780365557      6.5007577857815502      2.6595797838707322
   326   1      25.592695056881947      9.5049791842820834      2.6268593599271557
   327   1      25.826033934311507      11.148957041640786      0.1035068813475974
   328   1      27.214393668726117      13.977590340004632    0.074194036869241156
   329   1       27.51299589473394      12.319529954944731       2.544990859138903
   330   1      25.612484966860755      15.006477329382349      2.5392612429560986
   331   1      25.743790146922244      16.432083222747313      52.017517955667856
   332   1      27.324145451840788      19.428435083318845      51.878784513026879
   333   1       27.32563400490616      17.498838249555458      2.3232837678006932
   334   1       25.53750162527728      20.740890280686376      2.3992933398715448
   335   1       25.54532878026199      22.316254938283532      52.114781888119587
   336   1      27.516061384780226      25.078816095207713      52.096321269167873
   337   1       27.46815187816043      23.435350870140059      2.6702748139247472
   338   1      25.594760551239819      25.910194852518863      2.7492979130482644
   339   1      25.676191958873066      27.669626441260711    0.078347756109819325
   340   1      27.038379852639327      31.076739923029688      52.042701097620593
   341   1      27.030168064176603      28.867197860604069      2.6405189909009685
   342   1      25.544554807246207      31.664075760665561      2.7564200143828588
   343   1      25.424002349645829      33.462508035203868      52.060213617030342
   344   1      27.266438421894019      36.141548221607621      52.019962497506157
   345   1      26.917377883902855      34.302748468567685      2.5475513908566088
   346   1      25.643385747500584      37.152520769564688      2.4382526642023752
   347   1       25.81688910334114      38.896497895523979      52.101395503938214
   348   1      27.091923589455838      41.728729054427305      51.992773998000494
   349   1      27.505642570301227      40.019385214354799      2.1356032705652099
   350   1      25.516796964334912      42.585981061860771      2.5049430701693738
   351   1      25.509615188585954       44.37071086025945      51.897238968782624
   352   1      27.094256840143245      47.448613238896662        52.0804780180245
   353   1      27.068021712174918       45.08922838546259      2.4482069422514248
   354   1      25.354064632484249      48.446620041628158      2.5396648473988996
   355   1      25.771990208022377      50.352717503821069      52.072843273494264
   356   1      27.255171532566472       52.83206236695402      52.115345651731879
   357   1      27.234634931611978      51.057724877781737      2.4839133836639236
   358   1      25.583750770281462       53.67089691000654      2.7588948932150763
   359   1      28.984577450288793       55.55643046879355    0.039948316950681059