dump/Mg_700_20/steps_51 (written by ASE) 

3980 	 atoms 
1  atom types
0.0      32.100000000000001  xlo xhi
0.0      55.598830921999998  ylo yhi
0.0      52.130399999999995  zlo zhi


Atoms 

     1   1      32.053521163896924      55.574953699947685     0.24763271453889621
     2   1      1.7132061459763244      2.4356107653190513   0.0049142280551934155
     3   1      1.6776366187080267     0.71457044259943803      2.5107586770504611
     4   1      32.098569468304504      3.4622380006658728      2.4759976363668303
     5   1      31.996317604672193      5.0988045294372082      51.986568731194822
     6   1      1.3191160046259534      8.0997527396966493       52.08414008497148
     7   1       1.795945614363768       5.941991423643965      2.4739649175062741
     8   1      32.002182760547555      8.7638737935534898      2.4057954511189714
     9   1        31.9107652690323       11.18368705213086    0.042776732398177697
    10   1      1.5196583562592922      13.939347982599749      51.924394782879091
    11   1      1.3865399146151953      11.868425554436284      2.5196968055784059
    12   1    0.026042928221910316      14.502576009521098      2.2805517564535225
    13   1    0.035165756170515157      16.660643027809876      52.066433313755667
    14   1      30.451122029552295      19.474928461685884     0.32401370665527668
    15   1      1.5157328166729624      17.452743180736494      2.5200968803812183
    16   1      32.090726969196659      20.430593093551309      2.7852700456314028
    17   1      31.964080952287016      22.023886317999263      52.105186486314942
    18   1      1.3777789164231085      24.587724451917385    0.025339020153993051
    19   1      1.6357100922801946      23.134976787547178      2.7737052958972743
    20   1       32.08586524861456      26.076325102977293      2.6720771803478263
    21   1       0.207043164574397      27.667395774358301     0.12391791538011038
    22   1      1.6794272092484959      30.444164334969731      51.991602974589675
    23   1      1.4963168009161132      28.891294347310435      2.5696969471647804
    24   1    0.056638797138682237      31.811476698113687      2.7965080941011418
    25   1    0.029367278145357181      33.045669535293925     0.13178219961763341
    26   1      1.4422757286514467      36.348689254835257      52.067469100515517
    27   1      1.7169007150499982      34.345251999314215      2.7005751210450812
    28   1      31.914903897272016      37.021344666112824      2.7162272514269694
    29   1      31.980527909499784      38.876464130570838      51.841801162947995
    30   1       1.799511173361755      41.757242469034026      52.077565236968695
    31   1      1.6914637061839963      39.760745952605191      2.3520439095526955
    32   1      32.077390900856294      42.674816391817039      2.6715703789133549
    33   1       32.09924956374828      44.191457850409378      0.1070577503815941
    34   1       1.728266151021469      46.964338057544055    0.081059180637858871
    35   1       1.919794976517269      45.302374734961184      2.6943059396875118
    36   1     0.38707272955931932      48.002963595915624       2.617449101600597
    37   1      32.036436835673236      49.951558387975965      52.073428751085032
    38   1      1.6987134873738394      52.740330418032755   0.0009632902278974121
    39   1      1.5330012185205457      50.858798739508622      2.7663919885242265
    40   1      31.939321834179008      53.715038083945949      2.6259868743425305
    41   1      3.3007694753055077    0.080496901464257989     0.25571893325676431
    42   1      4.7473949632670784      2.6101654463572506      51.894439231152582
    43   1      4.9169103153262874      1.0122315157332655      2.6183805837546852
    44   1      3.3994391249985001      3.3218539673391838      2.7500725139312028
    45   1      3.1063256291847958      5.1424343171916354      52.032351683461464
    46   1      4.7731251198305067      7.9353671478798367      52.058660101872128
    47   1       4.713574676184261      6.2452247220085599       2.341983707035141
    48   1       2.997757743742647      9.1334868360979886      2.4883375132903041
    49   1      2.9430421181321944      11.030149816504903      51.835414210613813
    50   1      4.7957528614760916      13.921712666228826      51.973188919339236
    51   1      4.3864763724808338      12.036413138268031      2.4639610925962985
    52   1      2.9544494423286802      14.871121381466036       2.747885212224439
    53   1      3.2285134215405544      16.845449031125945      51.900768876470245
    54   1      1.4492164773626333      19.620127683550152     0.26898740621586575
    55   1      4.5686675032684185      17.695605895877559      2.2928916018300245
    56   1      3.3423581207139028      20.577567463852947      2.6180622583808373
    57   1      3.2162313886670675      22.433739103529803     0.18231297342900118
    58   1       4.505720371894812      25.177128829760697     0.50142658285697794
    59   1      4.7014895870373561      23.218882925811641      2.8413240571341971
    60   1      2.8610060779613629      26.374010265705937      2.7112289853203677
    61   1      3.0670598299478034      27.856443384909667      52.008810124013095
    62   1      4.5464876177360312      30.574139565455532    0.072069075604518501
    63   1      4.9456115237968268      28.676724569137207      2.7084111404087072
    64   1      3.2630905364900982      31.617327051975746      2.4759153952780011
    65   1      3.3614091324826259      33.473588853571059      52.005548997979467
    66   1      4.9406859639218643      36.245011222856263      52.117166853097196
    67   1      4.8665521800919738      34.444981515833739      2.7446986064051426
    68   1      3.2799700418927107      37.112198326802805      2.7741618895371225
    69   1      3.1859532668342769      38.815038932430042      52.066332720213154
    70   1      4.7478818809594081      41.698698167331209      0.2872950903263079
    71   1      4.8750399649283578      39.898424762976404      2.7753220891739998
    72   1      3.2041523646773284      42.475839385140098      2.6728212661265496
    73   1      3.6182408523969247      44.299223626536666     0.22675041345202274
    74   1      4.8734064087882913      47.314779327026109    0.078242784048198302
    75   1      4.9097867629385936      45.722806364888882      2.7460899136214842
    76   1      3.3915639598915672      48.290213379565117      2.6529715745427302
    77   1      3.0167142941002929      50.201428237648635    0.053279439391265587
    78   1      4.7625015620460553      52.810265719366441      52.075940077926909
    79   1      4.5626248354145496      51.079403970886801      2.3501548181922529
    80   1      2.8094533519664209       53.65288632620922      2.9070615161500259
    81   1      6.3206367825631018    0.026171348110357408       52.09220487892307
    82   1      8.2379585937677415      2.5281513560772226      52.051118580629975
    83   1      8.0222883381837882     0.73417407890758413      2.5406521664467294
    84   1      6.5219526004017991      3.4981356311896779      2.6007927721690898
    85   1      6.4327129808605692       4.873758525516001      52.112690004132851
    86   1      7.6106611496169094      7.9853671079159172     0.21188814549966623
    87   1      8.3006038990656794      6.3344683343623869      2.6723422001896076
    88   1      6.4388756392307478      8.9369924661256164      2.6817369556112172
    89   1      6.3766198303123076       10.92951966822598      52.016169243827321
    90   1      7.5264112450671661      14.197820021844048     0.39127352803825827
    91   1      7.5991077284100497      11.620895093606599      2.4896832837325547
    92   1      5.9626268565266871      15.086386380441082      2.5434572600038727
    93   1      6.2107366107463786      16.742837202037681      51.951430263362901
    94   1       7.605851235918081      19.475457777096903     0.15619554006203756
    95   1      8.1192785533042233      17.535168535094254      2.3501986664950034
    96   1      6.3146385824536075      20.226524835735102      2.6823573138846961
    97   1      6.2658735214614794      22.605031963677181    0.052259750504717095
    98   1      7.7668329861305843      25.348783159394117     0.10920654729659676
    99   1      8.0596487949913787      23.409066511388836       2.484687999090593
   100   1      6.3813914761103439      25.920414802186084      2.9824874742307168
   101   1      6.1616074229049973      27.879087208176742      52.060695191322139
   102   1      8.0559449232456117      30.688914390758388      51.982212320579926
   103   1       7.945167850888101      28.510773323511181      2.8384784973138038
   104   1      6.2234292901430432      31.679751459766582       2.459096804426478
   105   1      6.2529500078297326      33.292023442351073      52.094155094350583
   106   1      7.9597711215852867      36.309581620426812      51.655958290934542
   107   1       8.150028415652951      34.353094498931434      2.4087306420980168
   108   1      6.8646832019623663      37.397278915561358      2.9909995334980635
   109   1      6.3412222247385506      38.968212958128781      51.974014360849822
   110   1      7.8174910721284636      41.498406876260773      51.884471541366487
   111   1      7.9425717181732951      40.051643790421437       2.423413086294127
   112   1      6.4949225876603265      42.657033340763334       2.763931388387078
   113   1       6.736567815167418      44.497005997793892     0.11263083495912475
   114   1      7.9118413617657177      47.556176476528563      52.108499018765229
   115   1      7.8683840753207557      45.493254505106293      2.8964626435371601
   116   1      6.3910299691540526      48.513375846577738      2.6614510836030334
   117   1      6.3927157684331757      50.261498900581515      52.037647853930082
   118   1      8.1333122714296273      53.271553202237172      52.041371796340499
   119   1      7.9043377483937798      51.158329009104342      2.7785375445974432
   120   1       6.266738665946809      53.667171300532146      2.5355054286993144
   121   1      9.5801248386103826     0.21898303106503714      52.004567275956312
   122   1       11.25131114679955      3.2344865947699435      51.822334283535909
   123   1      11.146389860915152      1.2636142065541718      2.2303700795082761
   124   1      9.4203050130426185      3.4480000244681004      2.7074761696914833
   125   1      9.1995754987424174      5.4373643908526788       52.09174294842181
   126   1      10.763968586445296      8.2781189909648667    0.058252236202675299
   127   1      11.419689844668127      6.5483008450252322      2.4225795365029774
   128   1      9.6967173895987564      9.1213832522695029      2.6999725686767841
   129   1      9.3772434217514622      10.924627483902922      52.118149552223116
   130   1      10.847358929431143      13.880666504261054      51.954025566572746
   131   1      11.079437130646618      12.063509069533346      2.5649058459303369
   132   1      9.5782008636929064      14.781405554657894      2.5521646793047656
   133   1      9.0404584286778356      16.549887635314072      51.979753717932816
   134   1      10.890251657330586      19.649090580331457      52.077078266840466
   135   1      11.156451927525534      17.696484954823291      2.6215457370922435
   136   1      9.2686065144631478      20.674499148196205      2.3448753268483142
   137   1      9.3878828709918363      22.541873523914354      52.067977982467895
   138   1      11.254198195300015      25.169423541765241      51.951078736212246
   139   1      11.491941166451939      23.241695834921678      2.7638880342688887
   140   1      9.8896497530045959      26.091810690542445      2.7000880915625727
   141   1      9.7583845013991652      27.998328463790045     0.22730712299968733
   142   1      11.234058676838954      30.729413795091968      51.982987680842328
   143   1      11.694377977948774      28.779560641785679      2.6100703744855429
   144   1      9.5961124846544852       31.20846875019404      2.7014952705576571
   145   1      9.6938560328695527      33.738891625632426      52.046083770287467
   146   1      11.169972025610038      36.349485998085648      51.960433293831031
   147   1      11.169109565289119      34.049181834189312      2.6795003741823371
   148   1      9.8577604855761329      37.024362492003277      2.7397099586527061
   149   1      9.5883753835667829      39.079696927135934       51.93211864522884
   150   1      10.965713885239227      41.788864686517613      52.056351472606721
   151   1      11.000062202891744       39.60917157474298      2.5368944177968191
   152   1        9.57002748529497      42.787537819747598      2.4990060428607395
   153   1      9.6417810499704224       44.93276635737849      51.817279494657058
   154   1      11.193292138011406      47.361088404252918       52.09934604930416
   155   1       11.15270872372192      45.610055438948983      2.5036599280390077
   156   1      9.4757638743061019      48.447397311119865      2.3210041758151716
   157   1      9.3686219950510825      50.499685857357449      52.024974907879084
   158   1      11.412876843624797       52.99551426744042      52.002386525888745
   159   1      11.177348036598278      50.970551524699324       2.708241684459133
   160   1       9.608760591752965      54.020838092085256      2.4019235196570103
   161   1      12.687484275874075  0.00067855414135538816    0.094944923876235765
   162   1      14.299246347720832      2.8238389149403464      52.088997333682634
   163   1      14.264656232021929     0.85525285732237533      2.3592640824587261
   164   1       12.62257644740718      3.8833491644864422      2.3711667152090348
   165   1      12.830120815070201      5.7891315370819596      52.098352358312795
   166   1      14.097895031091634      8.5340620627605581      52.016010889144169
   167   1       14.51269700570241      6.3674794043550627      2.4517569105520467
   168   1      12.706313232456845      9.1424763359623569      2.3881018863300367
   169   1      12.577436542501829      11.312718884393053     0.23524834067653566
   170   1      14.040517048170592      13.943665581268224      52.057368550600359
   171   1      14.340836696644638       11.83864792101553      2.6764205504197096
   172   1       12.67157069650129      15.031169407734204      2.5828823425098206
   173   1      12.344574468838893      16.393965201641173     0.18437600719523581
   174   1      14.712396155519276      19.391377356051841      51.837917806689788
   175   1      14.271186583803415      17.730037796376241       2.433902240095501
   176   1      12.628905558577978      20.287627437080829      2.5223651709225399
   177   1      13.009159808065816        22.2258693555411     0.27449305595655993
   178   1      14.298630244879002      25.048378103896198      51.987367984357881
   179   1      14.839543284267458      23.134321389789584      2.1407435070579068
   180   1      13.302817854246113      26.024559312696056      2.4095620821534203
   181   1      12.932274892146536      27.640545943026556       51.92021196383066
   182   1      14.537092925103359       30.43238945167651      52.069449161410404
   183   1      14.783463336959906      28.700414626259434      2.8158126679701199
   184   1      13.233982356846036      31.544954937458133      2.4999651053199803
   185   1      13.027724582103186      33.226485651718079       52.12400304078249
   186   1      14.393755853338403      36.001707120975979     0.22588643558789862
   187   1      14.428732845462632      34.332113810354571      2.7355889569905929
   188   1      12.970498337072867      37.055589801608178      2.7744613460748524
   189   1      12.617232009537174      38.881750611482659     0.10645009520873785
   190   1      14.058723858668719      41.724226225212696      51.761103647590339
   191   1      14.430477192369436      39.798667382780437      2.5830113452167502
   192   1       12.50197858116571      42.427367383911253      2.6423253902102837
   193   1       12.61751606382335      44.476553845753301    0.067796517922582136
   194   1      14.449286619600459      47.432591356520554     0.14729212622034157
   195   1      14.321824783036144      45.450910450656963      2.7728221957663175
   196   1      12.673358494360352      48.296902710008041      2.5768636844156294
   197   1      12.516238451037527       49.99014460351038    0.026853262852723971
   198   1      14.260253504483918      53.064188476571061      51.897289108318319
   199   1      14.302683439432483      51.078170990655984      2.2967696879744834
   200   1      12.612010844384699      53.858164840762569      2.5286622015849969
   201   1       16.14806452478545      55.588844397128007   0.0061605504810868525
   202   1      17.745252819136674      3.0776340303170233      52.055568715962714
   203   1      17.428394285705938     0.87120731088769066      2.6006815099146334
   204   1      15.932059544181568      5.4763360201957543      51.712080059870587
   205   1      17.480236491815035      8.1867110606834874      51.829912897070784
   206   1      17.656262261073167      5.8229772088979859      2.3341297196280437
   207   1      15.891050769499042      8.9699757769889086      2.1255894508946414
   208   1      15.709340526112554      11.384635211973615      52.058394289423731
   209   1      17.056421570426153      13.796386744742097      0.3634181039649525
   210   1      17.564549351856854      11.813989067999175      2.3536958053484707
   211   1      15.619733976497701      14.930972670223344      2.7659935480597344
   212   1      15.807432512361933      16.638716286344962    0.049993068426440898
   213   1      17.727822392770946      19.618837136123634      51.750645448248356
   214   1      17.348873535254874      17.415548624594422      2.4387487443061193
   215   1      16.556567009077614      20.196041805213589      2.2758015648468093
   216   1      16.375170795885477      22.236680893457937      52.030054971010721
   217   1      17.837811128120347      24.899547648887257    0.022812401427571894
   218   1       17.81691784499646      22.963378858178363      2.6974814986312206
   219   1      16.207126434220744      25.871457996326363      2.2814919806753746
   220   1      16.255607237128867       27.82654630111006  0.00030449437555371333
   221   1      17.825115433902834      30.681995842419123      52.086688216224388
   222   1       17.68986880988043      28.917051477784369      2.7563846047682685
   223   1      16.027734610274162      31.439373988417472      2.5906371915682183
   224   1      15.976340442417198      33.404126003881792     0.41035799484004376
   225   1      17.545499568345402      36.159995190325048      52.079696245740351
   226   1      17.826493908550475      34.043306103440948      2.7575957167646701
   227   1       15.98514508795849      37.265637889526531      2.8650150866498545
   228   1      15.865084589660491       38.65020169616875       52.11328417356988
   229   1      17.645578929637168      41.442152718458239      52.022816034452802
   230   1      17.187607430867409      39.940358323879231      2.6261228719316474
   231   1       15.46065658955086       42.61481966634279      2.5824600429674334
   232   1      15.987866030204037      44.365475914822895      52.105524904586588
   233   1      17.251866345687283      47.333926953770415     0.10928210877739668
   234   1      15.730924820927747      48.305246736388547      2.7531387946661336
   235   1      16.184999170728204      50.170590549810107      52.050282976602148
   236   1      17.590656052364139      52.641878619784158      51.884493897781923
   237   1      17.731206600317396      51.296832824451826      2.4576226914109234
   238   1       15.67499799982853      53.766858835283713      2.4471358101295815
   239   1      19.055755556835368     0.23496915160957582     0.18441673542934775
   240   1      19.369636781899388      3.5707254642296142      2.5163442704684797
   241   1       20.73321159115914      1.0712738424770927      2.5210084218191802
   242   1      15.652848138696822      3.6175868637123991      2.3101434258966766
   243   1       19.12348916126934      5.6017393329765204       51.88498996233443
   244   1       20.65712827629406      8.1859762785586607      51.975451298115097
   245   1      20.862830206830289      6.1429784413490225      2.4774439260001819
   246   1      19.143959620771113      8.6796079312565535      2.2994997611795176
   247   1      19.297290743509333      10.701641094382939      52.117740031771454
   248   1      20.767078226126543      14.027274957975735     0.15877665532991958
   249   1      20.857317577048534      11.605411196889188      2.9040380043407641
   250   1      18.773096800929068      14.654770079868353      2.6282495887502204
   251   1       18.99791754571638      16.663799535894427    0.090229594597741311
   252   1      20.835127824720573      19.182197357519406      52.016619024757958
   253   1       20.68470345116048      16.990356729589219       2.326106920770783
   254   1      19.646695294989282        20.3965446793101      2.6458417733461963
   255   1       19.13656589402547       22.18975738798823     0.13648414707032758
   256   1      21.082727330334432      25.309607214573639    0.071221473968474669
   257   1      21.122086879009359      23.054787609184942       2.618895609295079
   258   1      19.304120554979939      25.962212158992475      2.6128028571196218
   259   1      19.323914143147029      27.914032928693114      52.103924366731363
   260   1      20.869239341141046      30.491406336440615      51.818703053652463
   261   1      21.031016970588517      28.589755544331936      2.5921206949024489
   262   1      19.157619245299774      31.503574167572296      2.5057115349258114
   263   1      19.437379055405792      33.372112110669896      0.2039078431190888
   264   1      20.752252153408136      36.144647496629574      51.920591489072009
   265   1      20.671916949689255      34.094900358257114      2.7618505170086705
   266   1      19.384910817919661      37.196068424846345      2.6656097259613918
   267   1      19.223200689186388      38.836915181272275     0.15008881594923143
   268   1      20.703884344983607      41.803843976521236      51.947938940442732
   269   1      20.736504699142806      39.885111125860078      2.5873467169068536
   270   1      18.717179713880377      42.514185952696977      2.2945697379520351
   271   1      18.978383454350745      44.515463350045728      52.026307817059134
   272   1      20.720660595397966      47.197775317390096      51.842759723289994
   273   1      19.519423534893392      48.244076298833939      2.5003824113669149
   274   1       17.81627644027601      45.657314608412634      2.8603696228661057
   275   1       19.03329307597846      50.151705667713948      51.936134765757259
   276   1      20.783526977207096      52.726910328567442    0.040565141992688424
   277   1      20.740759444443082      50.969526705402536      2.6400715706447144
   278   1      19.012908624174262      53.834979555025065      2.6398883374564948
   279   1      22.267835628731454      55.411858319654456       51.89527020663833
   280   1      20.809300643864109      2.5750375649801436      52.028999549302732
   281   1      23.639872525753823     0.84447549766057106      2.5717804752926843
   282   1      22.558166540138398      3.8428099697684783       2.761946702031941
   283   1      22.725430547903244      5.7293787287920068      52.117684704435717
   284   1      24.072845395444467      8.6129293666779869      52.040862153473689
   285   1      24.105211396462604      6.6066677003909859      2.6210015268848177
   286   1      22.340336575455851      9.0220586421154518      2.3230036028095671
   287   1      22.467806041732899      11.271995313588429       0.144631966023127
   288   1      24.172506912075828      14.185675830559456     0.20290630702998019
   289   1      23.964250370815922      11.811338339128081      2.6224514095425104
   290   1      22.163971024280634      14.758912162240716      2.7858537432509709
   291   1      22.542596410868143      16.738167530188441       52.09608963628358
   292   1      24.103100545419437      19.458962885431625      51.935620340661337
   293   1      23.934541298101841      17.616085271987782      2.6541216969867656
   294   1      22.245174510839782      20.050134802881622       2.730528263197352
   295   1      22.282880363749872      21.930628705246878      51.722822737353063
   296   1      23.934785217809509      24.890349409351298     0.13040064687030903
   297   1      24.211345239013198      23.241360872283465      2.6736351366686835
   298   1       22.72489426134538      26.107471211487486      2.5703751567571387
   299   1      22.789624251135123      27.927356491600179      51.898839659729312
   300   1      24.101457008146138       30.73832424663744    0.039270643449456216
   301   1      24.004728445354409      29.020300989580104      2.3665754580759581
   302   1      22.295612438932935      31.547288192808622      2.5370579965445117
   303   1      22.506473688655266       33.54489449597385     0.10927442568163763
   304   1      23.756643296312756      36.355533319170462    0.072721068938317895
   305   1      23.965700030172176      34.448357309342732      2.5067411240861204
   306   1      22.428455270096293      37.282361635645259      2.6504753495805353
   307   1      22.220586987831609      38.939397874693299      51.975560721550778
   308   1      24.104473993331773      41.319522412037351      0.1414159470390374
   309   1      24.095266620249177      39.750845110475524      2.4383666506148018
   310   1      22.741401736941143      42.455215168863226      2.4980870338041732
   311   1      21.992702875571673      44.548954480229057    0.024073191214024629
   312   1      24.058336257819278      47.354155022541384      52.064401699969672
   313   1      20.791482288557422      44.919056448140708      2.4246510040857587
   314   1      22.385553040602474      47.760260338412635      2.6017478358434087
   315   1      22.146873739935497      49.961057865669282     0.21243255921855897
   316   1      23.794999005186181      52.762153896841859      52.056770463616466
   317   1       24.09692508138675      50.644544739602672      2.7567436558692999
   318   1      22.206810940498247      53.658438256994067      2.4715807398280756
   319   1      23.918143557275702      2.7121064415525651     0.15707630659403524
   320   1      27.077726781939958      2.3478444701419954    0.066435996422215093
   321   1      27.236340908830403     0.62618456431969705      2.9036592784178383
   322   1      25.606296523500394      3.4566970539725355      2.8171013433259651
   323   1      26.015917492444007      5.3424308921527874     0.23221959182657712
   324   1      27.269119308131501      8.2792750253197145     0.12490418280484845
   325   1      27.199034969778236      6.4517168695649509      2.8099194355661088
   326   1      25.433852177201945      9.1387065136160786      2.5243736971891382
   327   1      25.522992455501285      11.272472192555814    0.087188120410780251
   328   1      27.266055104615258      13.614437375779387      52.002087116152921
   329   1      27.213425034935241      11.679374756498843      2.5118350047094444
   330   1       25.75766665305909      15.018328062616446      2.7838893938604423
   331   1      25.513032071809597      16.791621362976795      52.059076329075381
   332   1       27.35831478236279      19.602309316715022      52.066732017098282
   333   1      27.229689572125579       17.45047417464221      2.3582429377175438
   334   1      25.595463644333194      20.471012695721807      2.7941171789363195
   335   1      25.325588441553847       22.34712361787594     0.12030209171306468
   336   1      27.030525882300314      24.893164861474297        51.9939415604955
   337   1      27.223379597147673      22.848023734495104      2.1933328556902905
   338   1      25.849654580510791      25.835122612783916      2.7950616302512032
   339   1       25.73728529532497      27.331914468896485      52.107526611035091
   340   1      27.318304778822835      30.281370856902896       51.96237024126971
   341   1      27.090471876148321      28.885338985883777      2.6266095521690636
   342   1      25.582364555747326      31.529895636962365      2.5679464580901521
   343   1      25.795445897398075      33.202772596916155   0.0083275329258116516
   344   1      27.369370266048517      36.197397655900659     0.34835504287062136
   345   1       27.10518223261948      34.062118970623445       2.713994743072194
   346   1      25.710912778532421      36.981197383971875      2.5849582988127606
   347   1      25.674874932314339      38.835917339208834    0.044804907463233595
   348   1      26.888296566262088      41.711098305266219      51.876143028522783
   349   1      27.128519937430269      39.711149627001596      2.7586719595022569
   350   1      25.819133030537422      42.747158753974119      2.6228508808990609
   351   1      25.661097563639824      44.314361201880907      51.987988150845545
   352   1      28.845346367140067       49.80671316841115      51.890556962595269
   353   1      28.948798517053206       42.19131636240639      2.8872881398555221
   354   1      27.278204411220482      46.984774114759269      52.020228592312719
   355   1      25.443229155431684      50.037137754622222     0.16936436740800254
   356   1      25.521372631892348      53.766640086164884      49.601247220632779
   357   1      27.288645810686344      50.970198609283557      2.3698800990296265
   358   1      25.158349654111987      53.414366131484705      2.6937879598378829
   359   1      28.938493930329258      55.396700827921002     0.22407221687832538