dump/Cu_720_0/steps_31 (written by ASE) 

2000 	 atoms 
1  atom types
0.0      25.526554800834361  xlo xhi
0.0              25.5265548  ylo yhi
0.0      36.100000000000001  zlo zhi


Atoms 

     1   1     0.14189629455376176    0.012206571908160546      35.973526467665515
     2   1      1.3642497802152671      1.4256953618542918      1.6224314282195458
     3   1      25.389389147363961      2.4295884210610175      35.999110868743507
     4   1      1.2144923698755372      3.9229242847224208      1.7174561139505395
     5   1    0.076225254626588398      5.1344589063932018      36.046739256952968
     6   1       1.398514364159559      6.3749386143598494      1.6849530575443157
     7   1     0.14894320460748586      7.6093317903083539      35.945386448038775
     8   1      1.3354133509377788      8.9999092101664768      1.6475080963096844
     9   1      25.437918848099606      10.175476995298185      0.1049611603065955
    10   1      1.3042955192211609      11.566308777025036      1.7861109729181739
    11   1    0.061184076456165769      12.661858670887648      35.906872158394286
    12   1      1.2405406740067901      13.997096520372301      1.8339436721086715
    13   1    0.021013528998195891      15.409060395791132     0.13783301745115731
    14   1      1.4590496316451822      16.689966406836859      1.8925540966565666
    15   1     0.30614469072175737      17.811397090857863     0.12516754859676663
    16   1      1.3481662154013316      19.135666804357264       2.103800060556158
    17   1    0.056249788108805425      20.324262310380387    0.029212432064821311
    18   1      1.1918243693396064      21.684958860204212      2.1288237138821624
    19   1      25.521049662425689      22.978398460770528    0.042366780520285273
    20   1      1.1102222987883135      24.110473340210561      1.8738485072911191
    21   1      2.7512872172926919     0.12676734240885867      35.998274289107023
    22   1      3.8009045203793148      1.1868527721116235      1.7582563596721361
    23   1      2.5237349328641705      2.5320250054418914       36.08915810866494
    24   1      3.6077304679154061       3.617265182622575      1.7460241215193839
    25   1       2.538714153889071      5.2461977857691116      36.043976147334504
    26   1      3.8747837569527026      6.3017130117786326        1.70040142656785
    27   1      2.6602078646436471      7.7399967627444441      35.949629621120899
    28   1      4.0796640761802694      8.9205615953225408      1.6937229014963819
    29   1      2.3951922277517248      10.390631625495187       36.02227284081831
    30   1      3.6853255584754132      11.533496626872543      1.5247047576272847
    31   1      2.4789696628862239      13.011009761465434      35.873076226922166
    32   1      3.5912021976526129      14.136291466458973      1.7827934053911352
    33   1      2.6383055788631351       15.49933105000677      36.062066172350754
    34   1      4.0004515612944589      16.455058222601465      1.9329270734611674
    35   1      2.6477931055331045      17.754073398992716      35.949870439646674
    36   1      3.7522076791821974        18.9608049017022      1.7961077701815622
    37   1      2.4945124725845429      20.274726188695166    0.095626437088242297
    38   1       3.724346253932473      21.448582928131021      1.9311032116121951
    39   1      2.5052526311378669      23.008778746302404       36.06896269733253
    40   1      3.8139373546509288      24.193380557892127      1.6415211347026792
    41   1      5.1574433830647699    0.036079121410542418      35.977768739658735
    42   1      6.3834214004032033      1.0087092693417929      1.5932310145737456
    43   1      4.9746909370021211      2.6064064185397005      35.972003951274495
    44   1      6.2058873308730158      3.6925140121309385      1.6118662327732864
    45   1      5.2271085596924554      5.1079056723999585      35.998461062277094
    46   1      6.3837492357622043      6.2237982020135281      1.8067081969591172
    47   1      5.2477194667728844      7.3970867104542783      35.841779958601457
    48   1      6.4739854639549828      8.5833487796150134      1.4460687510527366
    49   1      5.3626889695422628      10.088714084358864      36.019955676095911
    50   1      6.1437041627756468      11.461213609394623      1.7733410852737157
    51   1      4.9240801018433444      13.042431022918855        35.9809049065734
    52   1      6.1381474902846458      13.954164458454219      1.9338597400744921
    53   1      4.9510164336297615      15.296323813359253      35.863592576031863
    54   1      6.4579935254270877      16.460519798638998      1.6248968467215157
    55   1      5.1569011377057201      17.811355247371356    0.092795389562195518
    56   1      6.3433900005053001      19.233934794065959      1.9200377913774545
    57   1      5.1151687781402169      20.092895382859197     0.23892647990340957
    58   1       6.498564574818154      21.481019069778398       2.029633841083331
    59   1      4.9488658550836586      22.830876014172357    0.067461815945148218
    60   1      6.1715141898815489      24.135368165021934      1.6854902795576086
    61   1      7.6217854701652374      25.153075099244212    0.016328937899879735
    62   1      8.7460875262864892      1.1795400611171087      1.7472778810996377
    63   1      7.5694186669118295      2.5891466340540545      35.964956159818186
    64   1      8.8824218904192023      3.6542132182410958      1.6242875974005078
    65   1      7.8197149393980192      4.9878225868417871      36.006654796499276
    66   1      9.1175888407437835       6.330412424356604       1.646674975760289
    67   1      7.9058020617116949      7.3390283498787721      35.921555976790202
    68   1      9.0599439431431907      8.7531270502342817       1.563005819994884
    69   1      7.7705852165614413      10.065341222219397       35.80311584752603
    70   1      8.8881713903725839      11.223584010877767      1.5959444969623189
    71   1      7.4823429337285416      12.496488230700743      35.956885039925439
    72   1      8.6818021886925187      13.948830642418431      1.4716421729506008
    73   1      7.7687169401701395       15.26434118190652      35.853313823149705
    74   1       9.080532199714483      16.565615420881624      1.6433721607099658
    75   1      7.7357243239565516      17.722238429636711      35.806376839444916
    76   1      9.3486095344519775      19.074071759514133      1.9733284106404985
    77   1      7.5541522080554619      20.365172721828348      35.975310780630274
    78   1      9.1243004117700064      21.629447449458151      1.9652204879174993
    79   1      7.5829468668209721      22.804155339187425     0.18750669188073052
    80   1      8.9447904527137947      24.338343668762466      1.9150000156240699
    81   1      9.9919868030744503      25.389830334096089      36.064881245467411
    82   1      11.307996997938737      1.2315016557933112      1.7496141669209675
    83   1       10.25206737876981      2.6256205750946169      35.642096047938246
    84   1      11.507875163423822      3.6995137386374606      1.6133506827776489
    85   1      10.196609576516829      5.1311126488953951      35.988304733698627
    86   1      11.510086862534719      6.2308800469701566      1.5926243789496417
    87   1       10.31836226957177       7.622497735579489       35.91430321501565
    88   1      11.440609822160022      8.7527441006894442      1.6941970033107852
    89   1      10.326640007923288      10.138857010680022      36.097404758777458
    90   1      11.529301285929346      11.614233563987959      1.7393325817147234
    91   1      10.237436705626514      12.754150949205494      35.967733841673827
    92   1      11.426718201370289      14.039994734802317      1.4628691449843034
    93   1      10.358775886709639      15.306715177993338    0.083507673694009452
    94   1        11.5508137101921      16.681243968753794      1.9403567636405692
    95   1      10.143243944174975      17.793844382227089    0.095355721216526343
    96   1      11.857131098201718      19.289308333357258      1.8822713258881318
    97   1      10.419655695082779      20.328216372020808     0.11079175526399473
    98   1      11.558067465208055      21.909520344320871       1.578456625787793
    99   1      9.9857901766364332      22.805043376784926      36.077353392738026
   100   1      11.403291348250095      24.349883415482758      1.7422461116028687
   101   1      12.716960697212913     0.13378511079831071      35.940298452114341
   102   1      13.802213869609364      1.2964719668967704      1.8118990655749032
   103   1      12.892978996490733      2.6847907516928053      36.076602076917474
   104   1      14.032949293256189      4.0423688423608226      1.9221523295152556
   105   1      12.794778077910641       5.127720676601589      36.015356347217384
   106   1      14.225722744003445      6.5880685848320191       1.759722923214462
   107   1      12.756799610245583      7.5577328811432816      35.973230016529463
   108   1      13.913799193765108      8.8864361336598154      1.6129206629802764
   109   1      12.702101494818594      10.250233946150695      35.898038213411866
   110   1      14.024484783646235      11.398874924849462      1.5823442498475182
   111   1        12.7964005918921      12.744753901186707      35.940033579314274
   112   1      14.211214994809126      14.170544934778835      1.7676904056177829
   113   1      12.868357981285413      15.632907637536011      35.970544816102787
   114   1       14.09447681145188       16.56950568284077      1.9882125571596236
   115   1      13.019323840246031      18.128926392151534    0.078622739025013239
   116   1      14.203554191258895       19.07502144669094      1.8530094906380099
   117   1      12.730921725117462      20.484710246442845      35.924426121195978
   118   1      14.039464964132675      21.690283402264463      1.9987783619367399
   119   1      12.895460816462982      23.127148674195492     0.13117813275806606
   120   1      13.907832545847755      24.492931469536316      2.0540197150462078
   121   1      15.043839781570078     0.15431928608346138     0.20108081063688144
   122   1      16.223412246257801      1.3072762961211581      1.7669853232567005
   123   1      15.207551235061329      2.7860584713320224      36.098989996564271
   124   1      16.425737301455275      3.8990562620466371      1.9147525652832325
   125   1      15.434142789318878      5.2034798193867626    0.028195805701443526
   126   1      16.698251678779695      6.3360204708579335      1.8016841939447221
   127   1      15.386148780517038      7.5047353579997873      35.990989909691571
   128   1      16.367419748272955      9.1126290730385158       1.839653808656645
   129   1      15.505915103471676      9.9376029552638716      35.791114328712787
   130   1      16.779112571145195      11.505933496329718      1.6354174674787814
   131   1      15.370407635195555      12.788664322544653     0.02447455395553105
   132   1      16.732258183278098      14.066768240255724      1.9606401228997707
   133   1      15.482961244942755      15.388147388876755    0.034625201204732982
   134   1      16.658260897750878       16.59797629915164      1.7409759736758932
   135   1      15.405806291308622       17.84611140403517     0.16762300080712289
   136   1      16.623498773690017      19.422564650637892      1.9205718397270395
   137   1      15.339122944141785      20.505719782625622    0.099137100369182357
   138   1      16.595933579614886      21.724685769037194      1.9645773094985894
   139   1      15.251522185786179       22.96551630261883     0.21672522103399383
   140   1      16.573908914190749      24.403305194726276      1.8737174375885266
   141   1      17.587547966422036     0.19079510812334607      35.971286810982214
   142   1      19.048836602763416      1.3575916129156136      1.7769481277840891
   143   1      17.965188192155143       2.764889641572521     0.17402024160560367
   144   1      19.211319808529026      3.8769036179533067      1.8637852436371978
   145   1      17.745822685382144      5.3488872492886239      35.878282727247218
   146   1      19.261479863456177      6.3564891384962161      1.6983305352611748
   147   1       17.68754331924335      7.7684432448323015     0.18625300655176025
   148   1       19.00761706565687      8.8762826010839859      1.9245935409413293
   149   1      17.964676934989111      10.172401136624288     0.04158016694160567
   150   1      19.003214342208047       11.41236814185249      1.7703246275351845
   151   1      17.901167962859425       12.95728283224001      35.955418125614329
   152   1      19.320074954449794      13.865275483593294      1.6808222783786033
   153   1      17.922016794143502      15.330177712331833      36.078517193368604
   154   1      19.217334329760252      16.594620608812281      1.8720059789640568
   155   1      18.157795363765857      17.951553223010386     0.15313771182046607
   156   1      19.254165832654419      19.111905085381061      1.9845616391297538
   157   1      18.004561623000161      20.361287876546267    0.066766836511214872
   158   1      19.203482999010198      21.471381946191595      1.7644823367816562
   159   1      17.859581273498826      23.104081310894237      0.2547752728282488
   160   1       19.28312770937583       24.19427019663425      2.0186506260037049
   161   1      20.265387758177202      25.367555498663389    0.045735713671240207
   162   1      21.597110341943807      1.0633655718969581      1.6589451603903638
   163   1       20.47830238360082      2.4375789883652983    0.098205307353487273
   164   1      21.762129125610954      3.6579234411802353      1.7865158895556861
   165   1      20.418734822074832      5.2254217066814412     0.16684775362581364
   166   1      21.918787809181605      6.2238593547183187      1.9170380943231167
   167   1      20.327191169433593      7.8416860335390997     0.15586387452826808
   168   1      21.882344929931296      8.9441508042007403      1.7581488268877938
   169   1      20.326373417010384      10.429036964411809      35.954414644674941
   170   1      21.511926224150972      11.665275530498604      1.6197145310927352
   171   1      20.408519533020048      12.913646845996034      35.845602139782649
   172   1      21.765246749239559      14.041022582534687      1.5931894204754253
   173   1      20.381445622019449      15.307110782539203    0.063750105292217515
   174   1      21.604135688630691      16.548507818543044      1.8416580501566826
   175   1      20.573702121053909      17.892103976994804     0.11051245472987152
   176   1      21.756569885995813      19.158440138456807      1.7558190039077319
   177   1      20.552273789387161       20.43278671242663    0.020938125446252783
   178   1      21.757166405425291      21.722573486941325      1.7581892375005979
   179   1      20.299204187690243        23.0201239352694      36.062592666434554
   180   1      21.634188412231218       23.97928113588446      1.9054066170576791
   181   1      22.971413338983762    0.078938694216731359      36.057201962160256
   182   1      24.445953010134037      1.1149289587525117      1.6677371006043706
   183   1      22.866145232302348      2.4449162354883121      36.073591018269603
   184   1      24.240785728512762      4.0651437323797177      1.9757300426355755
   185   1      22.880059487538468      5.2126369747237336    0.087662820475498032
   186   1      24.357339697062059      6.5571852248377978      1.7525205906058325
   187   1      22.842428655904257      7.9986460619694624      36.095848974406913
   188   1      24.217977300176113      8.9826773118121039      1.6674358754128198
   189   1      22.894460553644603      10.371617287766487    0.010039940641092926
   190   1      24.297939197919764      11.565677638651326      1.6805944442321323
   191   1      22.993413536787674      12.856565183582763      35.897981036083898
   192   1      24.190711865184578       14.03689813629477      1.6132597914412359
   193   1      22.938795139051543      15.387960413410942      36.045791771113933
   194   1      24.285163792580079       16.52206737052407       1.966593049318021
   195   1      23.141264931450198      17.740093444372853      36.085583401460077
   196   1      24.169779126692212      19.363145893099723      1.6613822986746749
   197   1       23.08411513786303      20.525547921328354      36.004732834327662
   198   1       24.37364222992564      21.896527221319459        1.97818339875546
   199   1        23.0214236808573      22.809570680523876      36.032620196574022
   200   1      24.204265240894209      24.296665013477739      1.8471881590084545
   201   1    0.042973037840224139     0.21139796646018694      3.5397946456158151
   202   1      1.3244275334379028      1.3075254580018161      5.5111293578722034
   203   1      25.500575705482799      2.5309673510039143      3.4396570102552477
   204   1      1.2784120374608727       4.044816708584082      5.4680042850072477
   205   1    0.090088435214357304      5.1412942045059005      3.8002358830419665
   206   1      1.4266068515462642      6.5851549639811173      5.3504111234428047
   207   1    0.079883770410605098      7.6811837383186097      3.4956180720795715
   208   1      1.3168129664112282      8.9971584100148849      5.0493361614356367
   209   1      25.510135406588478      10.227676165690267      3.6131397975845108
   210   1      1.2480517857811264      11.262033866459833      5.4154574752183642
   211   1      25.408995674487386      12.429166225857713      3.7240875721193243
   212   1      1.0925462690560259      13.836515245535102      5.4315335318656626
   213   1      25.354396879008139      15.269398504004021      3.6703486899017741
   214   1      1.2111139868226335      16.646896199831328      5.4205878772650076
   215   1      25.435633306211788      17.817837074439367       3.484578019119613
   216   1      1.4165668054284648      19.024293025065443      5.5881861698575159
   217   1        25.5138620445192      20.468741797268962      3.7488403222750475
   218   1      1.1818862314466283      21.774905698974791      5.5253126484640767
   219   1      25.438651607485372      23.009676262523943      3.7230187230903065
   220   1      1.1841854100643399      24.458690304116722      5.3827650810835115
   221   1      2.8059286808160597     0.24151897166735897      3.5358760698107279
   222   1       3.943290261064043      1.3230472539459601      5.5654764619342121
   223   1      2.6448692728854528      2.6405451265304891      3.5962186734826793
   224   1      3.8730689223418149      3.7288216734400694      5.3656409678597923
   225   1      2.5075409939181195      5.1470227114520304      3.6368656095759087
   226   1      4.0059964088210496      6.5579024032895079      5.6679670107332285
   227   1      2.8473172334937025      7.6550615940289237      3.6670138045924907
   228   1      3.8514905920700868      8.9984952491332191      5.4359200385804467
   229   1      2.6555198398727495      10.027026600407911      3.3489027139769871
   230   1      3.9642083672723825      11.313451255108166      5.3842589445763354
   231   1       2.237578789607189      12.667010031426733      3.7242948936919822
   232   1      4.0547708685058348      13.924219967869535      5.3088120845392819
   233   1      2.2964193449544221      15.240008076702397      3.7111953977199152
   234   1      3.8651912877731562      16.620927500859622      5.2345278686009209
   235   1      2.5322628486483949      17.867348878681721      3.7110755748213875
   236   1      3.9689590560515517       19.09882468351071      5.4911165409471776
   237   1      2.6194364228162326      20.398286593062394      3.6975160217153475
   238   1      3.8919861537798552      21.859107810833063      5.4352277012560641
   239   1       2.701547534535127      23.139541882739639      3.8104146395855967
   240   1      3.9954703873837962      24.297318533580075      5.5158972109605147
   241   1      5.2828884545607142      25.326038579386417      3.6800511240940601
   242   1      6.3894279572652426       1.226516629337846      5.3978083383978133
   243   1      5.1230079968022979       2.325627447412161      3.6159045353158827
   244   1      6.3682482921485279      3.7983211010143498        5.40007382521366
   245   1       5.237112914698181      5.1342696895477964      3.6683401520957091
   246   1       6.431595363050425      6.2402016450776081      5.2810088431758784
   247   1      5.2169783017541436      7.6621560440571272       3.473786558025743
   248   1      6.4850843983276487       8.923300356685024      5.6258137356715494
   249   1      5.0974268471698903      10.130087707072178      3.5558446264819974
   250   1      6.4278356032647768      11.439205304555378       5.286533374907517
   251   1      5.0423527986238659       12.59525463317612      3.6469862686021912
   252   1      6.6109924148071046      13.882546791687489      5.1982306691182742
   253   1      5.2778144964121054      15.427895640571384      3.4706481011390222
   254   1      6.4331846082440896      16.615609727493137      5.3818005794333272
   255   1      5.2800443444067922      17.829341865591111      3.4222440520842281
   256   1      6.5799942386737857      19.101416108120528      5.5238530788082567
   257   1      5.3078697700554009      20.203318907646992      3.9315806548430898
   258   1      6.2401102069312104       22.01080646119701      5.3638217611748154
   259   1       4.981191001155663      22.813715673113077      3.5329958445249994
   260   1      6.6747971634614309      24.344786655028503      5.5274754526450822
   261   1      7.7225282147564789    0.051410594521172963      3.6654893859822328
   262   1      8.9184627040308957      1.2382074234840463      5.3437933177855284
   263   1      7.6415743773513665      2.4353721488862567      3.6953127282747258
   264   1       8.969596812387076      3.8450655652014265      5.2206370730357365
   265   1      7.7106975260722752      4.9174799994819018      3.3546384877588924
   266   1      8.9193145694898028      6.4154760107442392      5.3433249269463401
   267   1      7.6116392835378779      7.5572995781721213      3.5989429769944761
   268   1      8.8363757167812409       8.795508369442496      5.3328135965464707
   269   1       7.476858245981858      9.9546232292857706      3.3690282943141927
   270   1      8.9807095629716898      11.542031143722985      5.2785032794893407
   271   1      7.6966605854488206      12.556518138887357      3.3925492042445842
   272   1      9.1342702753177836      14.052986262347085      5.1337935502883898
   273   1      7.8064265908631683      15.152910534373191      3.3748060391842603
   274   1      8.9506967992087993      16.614495470042083      5.3986664089709508
   275   1      7.7474158726665934      18.005289817800126      3.8690039885312046
   276   1      9.2522533802128901      19.304947967567632      5.4666898159815984
   277   1      7.8475990513278324      20.507468908532442      3.9470851933253268
   278   1      9.0260947376192551      21.900177254105969      5.6619926732604258
   279   1        7.80474565025703      22.940447236881635      3.7334815587093226
   280   1      9.0739383643240501      24.279925842928698      5.4662884754635455
   281   1      10.242256616771231    0.098728838904671379      3.5098419334670439
   282   1      11.420123286159415      1.2431009101398709       5.555203792791942
   283   1      10.269987242200301      2.4486464643861954      3.5388295759876316
   284   1      11.495608104867754      3.8610021225094586      5.3522306867654219
   285   1      10.251899506480825      5.1399586290895662      3.6765615476770566
   286   1      11.357698500399973      6.3690917558358491      5.4019184340089703
   287   1      10.176953341647689      7.5572226418857431      3.4588681763581586
   288   1      11.273705913398327      8.7598061081793794      5.2300357327779547
   289   1      9.9887617297942803      10.089584677947434      3.5689388474158008
   290   1      11.496056572025017      11.314123922004903       5.227197637351388
   291   1      10.127761691611653      12.817967529081844      3.3259804528271633
   292   1      11.381946494905963      14.090031924399948      5.3458603773204736
   293   1      10.341884272589128      15.288590877542985      3.3275059829781526
   294   1      11.529079297608876       16.63549562875118      5.4840541363933255
   295   1      10.447085081098171      18.142955050536919      3.7536174025217695
   296   1      11.878110651027013      19.519459821294223      5.3268798516414879
   297   1      10.421149312640793      20.563066339288927       3.513574048399049
   298   1      11.509017444402943      21.928645344426119      5.4207303100242425
   299   1      10.347289579405615      23.267533990500894      3.5229980066314304
   300   1      11.566185917066704       24.40677563845307      5.5980196113291409
   301   1      12.680865037630003     0.28901710509379253      3.6022843498968191
   302   1      14.070735905936015      1.3239972904492379      5.3562593375625243
   303   1      12.796463892983731      2.6999354978909635      3.4245111855203834
   304   1      14.018127466859648      3.7440944144405774      5.4660198411600014
   305   1      12.835813908259466      5.1683624079780683      3.5251057303794022
   306   1      14.012051361559594      6.5891103084914757      5.1285923721740465
   307   1      12.661733117283289      7.5495550818885926      3.4272804489438293
   308   1      13.875446819444779      9.0197737338574573      5.3389823868783637
   309   1      12.663763934205804      10.222625782551715      3.3208254432393587
   310   1      13.873247301586716      11.480960001217751      5.6667757346877448
   311   1      12.553622387388867      12.647625597603996      3.4422774103322697
   312   1      14.060112376098841      13.924399573958404      5.5989831915731036
   313   1      12.894086972162819      15.213359265476022       3.743474247486489
   314   1      14.016669430420865      16.557791436356542      5.5131878866807682
   315   1      12.813084532514047      17.668330711235992      3.6173903297437455
   316   1      14.322017255123136      19.218153750915132      5.5205783053963575
   317   1      12.884044797653194      20.672118953204105       3.552115486243077
   318   1      14.006441962989175      21.680127011809795      5.3874862790227462
   319   1      12.756200946544356      23.229572879750211      3.5341682787244268
   320   1       14.04289416854739      24.257378142419736      5.6009355247811694
   321   1      15.319092642451272      25.524223248996385      3.7382457836587557
   322   1      16.684826551489795      1.3246683584794394      5.3114971844197161
   323   1      15.263894558555883       2.585289210743329      3.5331618263218729
   324   1      16.534736575668354      3.8344008240222123      5.2452302347042767
   325   1      15.242278493354203      5.2999692930786235       3.639160104166911
   326   1      16.589042754641188      6.4061029978759176      5.3394632141468312
   327   1      15.406804964656569      7.9514911291264685      3.5464966567106559
   328   1       16.58962541669916      8.9445219218104715      5.4283666667832726
   329   1      15.200594395557131      10.265943861112662      3.5186616054356832
   330   1      16.280017169382045      11.482601885011912      5.3479358743860423
   331   1       15.09484766757558       12.91174526898171      3.7213964865848177
   332   1      16.486851244641141      14.030154455257064      5.4696656855806287
   333   1      15.294456824136626      15.436914051942781      3.5963432442156549
   334   1      16.598641061594439      16.786554086708048      5.5408351288423754
   335   1      15.280041924087133      17.890378260339531       3.776154959520587
   336   1      16.741925155888236      19.376577306312267      5.6628369956370728
   337   1      15.296389911425601      20.427817094392392       3.609296794561327
   338   1      16.564418296234294      21.817703276314091      5.3589617152061999
   339   1      15.205429650445449      23.089327109053542      3.6068541063177681
   340   1      16.780154116599522      24.347399473555445      5.3844073902777385
   341   1      17.867275389364455       25.45053276932321      3.5605714583666672
   342   1      19.283414473386522      1.2795162399225954      5.3813682424804332
   343   1      17.886779610662739      2.4889209404806607      3.7817049643921252
   344   1      19.274523792468059      3.8192809810568344       5.578602409770208
   345   1      18.105412410763954      5.0405179718670317      3.5259373930476037
   346   1       19.38488109930223      6.2100813344750181      5.4890695510229062
   347   1      17.873729521757259      7.7933639910403389       3.647991596199581
   348   1       18.96967406806473      8.9355008985017452      5.3830314051756423
   349   1      17.795544355996785       10.37259548151188      3.5709091748512369
   350   1      19.139879923912211      11.573820448624575      5.4097585358600506
   351   1      17.837112261105315      12.812518150075487      3.7274458709079883
   352   1      18.875216029050961      14.197824114852585      5.3809743527002958
   353   1      17.833138264205338      15.530763916464952        3.65455330467123
   354   1      19.150275010064796      16.592482153225923      5.5527492222909061
   355   1      17.923551737682914      18.004183366876674      3.7321543496293885
   356   1      19.096034870460961      19.407149389174631      5.6376305903988104
   357   1      17.917134608849636      20.489776673199668      3.7002457520799323
   358   1      19.167202646155321       21.82159982169479      5.4521094460548793
   359   1      17.888474272061973      23.021404453353622      3.4622142229093127