dump/Cu_720_0/steps_51 (written by ASE) 

2000 	 atoms 
1  atom types
0.0      25.526554800834361  xlo xhi
0.0              25.5265548  ylo yhi
0.0      36.100000000000001  zlo zhi


Atoms 

     1   1     0.20606130825516661      25.463057140500219     0.11215595727998118
     2   1      1.3434482026116181      1.4228097145032683      1.7759247448698947
     3   1     0.11203461611734065      2.4541020264704754    0.022973630348406018
     4   1      1.1845221036797167      4.0764976809601006      1.8305393656247348
     5   1     0.21838889926737626       4.796740602387481      35.760575211437249
     6   1     0.99228918049383952      6.4051258594143077      1.3977246837421478
     7   1      25.297110122176413       7.692469763344211       35.89125908860963
     8   1      1.1721995417577136      8.9350327720945337      1.7597490641603726
     9   1      25.466642723194042      10.084506449683341      36.002259981036268
    10   1      1.3050001872685497      11.595846643077078      1.7347844253870661
    11   1    0.034029478038668799      12.845950306518057      0.0574755901159619
    12   1       1.396482621180819      14.104715011537532      1.8517059348068761
    13   1      25.470456282802736      15.301914212291392     0.17910023194309577
    14   1      1.4990398667057891       16.60443878512833      1.9497383269549122
    15   1     0.34122714547771421      17.876053133535432      0.1144754962273966
    16   1      1.2577452860691487      19.229013004927058      1.8383939202838162
    17   1     0.20046412627853313      20.259309074318466      36.040561578212568
    18   1      1.2136431686602032      21.675070741519431      1.8790893472548895
    19   1      25.289846105392229       22.72804445189616     0.11527419108341511
    20   1      1.2996297821124119      24.293717187262956      1.8836780508165585
    21   1      2.5085333835688246    0.042249877097956898      36.075545922288846
    22   1      4.0023656455760861      1.3151551428485568       1.669113152574494
    23   1      2.5159227960522408      2.8420369609557401      35.938279652628594
    24   1      3.6904165201536614      3.9126211622465705      1.5826872906271774
    25   1        2.72776065738078      5.3069812022512552      36.032241934805377
    26   1      3.8351342185489821      6.5420088452462659      1.7644838462595327
    27   1      2.7295898957391995      7.7309312974366708     0.23171508862172913
    28   1      3.8343236373460337      9.0524570039423669      1.7630297120546183
    29   1      2.5263538252801485      10.300803487414179     0.10735276105664288
    30   1       4.005331145577121      11.601518039485153      1.8561102959512474
    31   1      2.8163345453437763       12.79248767592358     0.18494239828509074
    32   1      3.8159872533883825      14.158197122628321      1.9087623623606178
    33   1      2.6393720016670308      15.659013440978287      36.021259297627452
    34   1      3.8534598213861999      16.715144152107364      1.9782054803411588
    35   1      2.6992342780668519      18.038001699156052      36.026969845278501
    36   1      3.7474878000339302      19.127156188769085      1.7776161848647682
    37   1      2.6492728138747768      20.361070689697957      36.028836073540518
    38   1      3.7458672088410565      21.832788854717005      2.0244274215145532
    39   1      2.3989686464157285      22.921045462516137     0.16853970654635775
    40   1      3.5248613993451152      24.413106990492189      1.8745304754269918
    41   1      4.9471383488720786   0.0014816955698852964      35.979074902552505
    42   1      6.3541805190783851      1.2293888089327625      1.8447802860435794
    43   1      5.0336476635657625      2.5857354139663893      35.909764859742552
    44   1      6.3775796444980459      3.8502238210964084      1.6223694662003252
    45   1      5.0044968951340376      5.0640158093911989      36.035435782476803
    46   1      6.2859574665998341      6.4763698942757779      1.5250881004130856
    47   1      5.2698309032768744      7.7509880960979993      35.873042975127142
    48   1      6.3518134768590242       9.052195929003183      1.6549341452335404
    49   1      5.1758464781714837      10.320995131612078      35.942597504362197
    50   1      6.4824819161263951      11.536887208497511      1.7729122050685655
    51   1      5.1889940535346177      12.994948445873801    0.057656458843803333
    52   1      6.1989942098599258      14.170249547753508      1.9552569390058001
    53   1      5.0773969649305517      15.417640250768192      35.958611749663888
    54   1      6.1236247095735772      16.667182400782682      1.7179035924934953
    55   1      5.1025148853368965      18.024674445455467    0.046806292272515364
    56   1      6.2969416453040923      19.196713357510692       1.852435278270161
    57   1      5.1757138201673012      20.591468193194913     0.16705963883290464
    58   1      6.4075357419225876        21.7775264121844      1.7906544971222504
    59   1      4.9516055601816529      23.041981549267149      36.072686418181931
    60   1      6.0610196362465816      24.254315279262759      1.7607187649722951
    61   1      7.3630950304076688    0.046287397129828961      36.081819362200463
    62   1      8.8481596917605501       1.183745228243066      1.8028994732198276
    63   1      7.6888238034761036      2.5383871392785178      36.076862588170776
    64   1      9.0908667371189278      3.9431701034045559      1.7516564786983502
    65   1      7.6351696375681239      4.9800564985802849    0.053910749052488535
    66   1      8.8633291091599755      6.5881705302666971      1.6913904616428468
    67   1      7.8270350548929928      7.6288724918447555       35.76870136171361
    68   1      8.7881764621448522      9.0157221002393833      1.5829619292789292
    69   1      7.6285612142396459      10.442642677272822      35.981603746534404
    70   1      9.1429845825336304      11.565490861316048      1.7998040357917724
    71   1      7.5954108639990991      12.914747164174422    0.061271491920126729
    72   1      8.9627126712719924      14.124844078039407      1.6702839396036666
    73   1      7.6398775533975467      15.386485672607391      36.009908174612228
    74   1      8.8180985865974328      16.525116080815806      1.9811393123000034
    75   1      7.6941026115580646      17.827820387007396     0.12879704273855158
    76   1      8.8658986224753544      19.138601424770883      1.8783277559156326
    77   1      7.8552203306762749      20.634857187971495      36.051034115129958
    78   1      8.6680631279235989      21.692963683094096      1.7831209076367946
    79   1      7.4195962717120301      22.925978181191283      35.901755182403484
    80   1       8.514863633930899      24.294651191195996      1.7356206865622077
    81   1      10.053439858807522    0.043265481891885886      35.911606386151306
    82   1       11.33678661252055      1.4486882260025289      1.8418875393245446
    83   1      10.226044003516641      2.6263630564065408      35.974539539051683
    84   1      11.584223934426278       3.988281234937475      1.6572783070385979
    85   1      10.061308102663425      5.1526170254534529       36.06415105180394
    86   1      11.244385870612485      6.3889849832624233      1.8865508112749931
    87   1      10.337355536600839      7.6737870717156786      36.049967380670154
    88   1       11.35351485238472       9.049703363152874      1.7348682504612492
    89   1      10.089698118181133       10.25173359529464      36.000949595137662
    90   1      11.607371093277759      11.595487707326686      1.8264095733419818
    91   1      10.205869004257959       12.69895623175179      36.034591996521748
    92   1      11.459423196962629      14.022438661855956      1.7344652064770687
    93   1      10.126458080591666      15.287240203622275    0.016703763671068843
    94   1      11.239018153601085      16.516242804163223      2.0160146354881934
    95   1      10.074146028137315        17.7197791866971     0.22266380776128467
    96   1      11.435723170837191      19.209182011772775      1.7173439600333842
    97   1      10.119960055609848      20.535407944772938     0.10301272366980348
    98   1      11.121053549197237      21.856143639388808       1.942243305163095
    99   1      10.010688814102247      23.006857530320442    0.012300534932649043
   100   1      11.171596211719745      24.352384957249491      1.5527636836232328
   101   1      12.507752534244773     0.24513184394659551    0.051105110236164805
   102   1      13.897644205181521      1.3930626146135323      1.8398508656418482
   103   1      12.745819156373598      2.6556475566054174     0.11515485163082521
   104   1      14.285346462018278      4.0599768157929761      1.7855106567834116
   105   1      12.812108723453525      5.2759425501633928    0.044675759418260047
   106   1      14.215487133210956      6.4742989110157154      1.7238782091104425
   107   1      12.850140984130547      7.9665721704556951      35.982698839639063
   108   1      13.806854948965388      8.9750405904168602      1.7323960804770178
   109   1      12.668254078374938      10.474629861046513      36.096811857755043
   110   1       14.18777356667362      11.525793207007199      1.8373934501001941
   111   1      12.965821314292445      12.961353672535934     0.22839755888519442
   112   1      14.086108171341756       14.20395541371469      1.8373039027399265
   113   1      12.788229118445775      15.426431144223949      36.029885596395118
   114   1      13.876687326421195      16.796885759625376      1.9072632686914051
   115   1      12.796177269190609      17.920913185434117      35.910313277968719
   116   1      13.857852337234023      19.149068348258645      1.9520100802475107
   117   1      12.745118633230735      20.503203160204905      36.093996396871198
   118   1      13.902360232101145      21.612160088137053      1.8997856974657121
   119   1      12.729850285461204      23.141841354134716    0.065665922287712591
   120   1      13.715756107436045      24.315361439579554      1.7701898147216182
   121   1      15.313242180817671    0.010803748640705886     0.32294695991136008
   122   1      16.642890914379333      1.5739353107072616      2.0608145496360653
   123   1      15.443518482911751      2.6681862522187658     0.11526828356311387
   124   1      16.589139521661554      4.0044967286424136      1.7976561485467526
   125   1      15.417483205479769      5.1822549360822752      36.055878432955382
   126   1      16.649287627733415      6.5825513532575712      1.8347289249829162
   127   1      15.238435694288743      7.8164375578266378      36.088885788065468
   128   1      16.617295086012987      9.2939283304972502      2.1324405540858384
   129   1      15.279448010666144      10.464758570887133      36.016280931275574
   130   1      16.523233467202171      11.660606769747009      1.5473660270574232
   131   1      15.477238808083714      13.063238430712509      35.983077627088896
   132   1      16.570634332666621      13.965226923775091      1.9036929758468442
   133   1      15.185568936096217       15.49852059214315    0.016553525764788905
   134   1       16.45064135461433      16.840787620800583      1.8121236441809743
   135   1      15.424624953523013      17.921683301865922      36.054739097105028
   136   1      16.493467559306236      19.183702392431346      1.8323166065117573
   137   1      15.166639994295082       20.23345313048112    0.093212307800149677
   138   1      16.384887853892867      21.621863441332742      1.9437220039639234
   139   1      15.247082561178967      22.689822524345058    0.085850945021297795
   140   1       16.54706499970921      24.012247568803392      1.8577599399345441
   141   1      17.711326774571596      25.315480375860002      0.2880904598668737
   142   1      19.111628988261721      1.3460512363554429      1.9502342035041584
   143   1      18.070405657981247      2.4963693709474506     0.08620507330866764
   144   1      19.277797600112788      3.9131098355660785      1.5723022134791238
   145   1      17.854647744294354      5.0657823219018558      35.883205595535408
   146   1      19.229050712063042      6.3408463759113856      1.6368430686948374
   147   1      17.896984874460667      7.3585306964948272      35.977936694185239
   148   1       19.24676675532346      8.9221369303015443      1.5869362415771424
   149   1      17.624177654999627      10.158330241973784      36.052803379776371
   150   1      19.118566826900274      11.501955502514564      1.8546396936635821
   151   1       18.01827488734266      12.865692277583937      36.090202040685561
   152   1      19.081100008434053      14.039242841703087      2.0063542559188128
   153   1      18.001886856860764      15.326535626952108    0.037084990140329128
   154   1      18.991573563398031      16.582278185859462      2.0746992591733369
   155   1      17.641642038915677      17.694259116267656      36.037589499459266
   156   1      19.252840589727334      19.082704642399477      1.9759992922414298
   157   1      17.776200375821066      20.384310360297317       36.01963139389229
   158   1      19.093359305177064      21.624830022564538      1.7494255521573565
   159   1      17.802819901156123       22.64185145798686    0.047603650301721104
   160   1      19.137964342895287      24.256494202655748      1.8903631489940151
   161   1      20.508120999432695    0.035392071378038334     0.17314977238954737
   162   1      21.654161926641166      1.2889694688363287      1.9522700874112604
   163   1      20.642318564918128      2.4773846111918854   0.0043462569660960206
   164   1      21.851937947830955      3.8051329118949426      1.7844221769494648
   165   1      20.684487155420655      4.9151431032478206      35.782954172060471
   166   1      21.600402882883841      6.2976758169834328      1.6917478904720173
   167   1      20.406137184728383      7.6374056278206961      35.835254506261798
   168   1      21.803263912047704       8.857932391274451      1.9099356597702133
   169   1      20.575987560877206      9.9540208546472098    0.012070145831182799
   170   1      21.908572595199523      11.454040289498783       1.805100660508719
   171   1      20.401160221241412      12.703442528413753     0.23087988155461986
   172   1       21.73345922723011      14.171243978070466      1.7952031077198531
   173   1       20.40008877897915       15.12668633418582     0.17803833649019232
   174   1      21.530205267610512      16.497775968487321      1.9155465413823323
   175   1      20.219832955214528      17.647760627769546     0.32494490335363946
   176   1      21.617850544297344      18.956702377578488      1.8203685189113119
   177   1      20.486406888400651      20.274588976292172    0.097140469301518984
   178   1      21.790592371210931       21.76010285784594      1.8407855355500506
   179   1      20.365337629256111      23.020788585859247      36.000650312763049
   180   1      21.887401107884923      24.189495804206924      1.8951842050150858
   181   1      22.794394603306039    0.053800440378294921    0.071384439840596947
   182   1      24.332256873071522      1.0951420614456291      1.6129915328675779
   183   1      23.231196269163767      2.4960086075574335      36.034984862845263
   184   1      24.443067956884271      3.6037547897033133      1.8603966018307221
   185   1      23.030459604070071      5.1463368145860029      36.066933423661162
   186   1       24.20720109820385      6.2733642461954906      1.8731787079975566
   187   1      22.870062575325299      7.6777116178347056     0.10956930449766562
   188   1      24.304573309811897      8.8957027891902669      1.9132496013376696
   189   1      22.900807044642669      10.329719735941129  0.00040209383697629167
   190   1       24.39334488703685      11.522849882046279      1.7098539676702573
   191   1      22.948317225647116      12.824497361381436    0.066859641644509832
   192   1      24.162946372629357      13.922410908718401      1.9317477050159246
   193   1      23.095067616035386       15.30064658405237    0.016547629477395295
   194   1      24.398148140617828       16.66959166997184      1.8147099330942429
   195   1      22.962240324379891      17.872652201149979     0.28694198388744774
   196   1      24.406753306607179      19.027817189412971      1.9391525759198083
   197   1      23.101214352345064       20.25273170877686     0.26353216700673548
   198   1      24.270408883910967       21.71677357721012      1.9510798495293886
   199   1      22.849840389484115      22.921191190709482    0.077777318265339151
   200   1        24.3086535626353      24.169859416857793      1.9247850185737558
   201   1     0.15589392375249186      25.519609594066971      3.3911571288047173
   202   1      1.3419926201960211      1.4181466437944703      5.2908039348935887
   203   1     0.16497528756554911      2.7001598937498494      3.5751763166393307
   204   1      1.4183718509573164      4.0353393222310796        5.26203372082096
   205   1      25.510219432137358      5.1726032452402029       3.605355805407827
   206   1      1.3335865290154185      6.4138027964535524      5.3518542065843544
   207   1    0.087041067620766424      7.5432781764312411      3.5545533658828727
   208   1      1.4007497128887201      9.0690941994037235      5.2489823631029315
   209   1       25.37754372028288       10.16109705027792      3.5586086868940585
   210   1      1.1820579028889544      11.381440497378696      5.2605828388936686
   211   1     0.10048959092605501      12.679892360952236      3.4740474875355614
   212   1      1.3906079648806664      14.086601101280525      5.4172949089683566
   213   1     0.09290288200570461      15.190025549618165      3.6562413738909192
   214   1      1.2767578952139522      16.663883121013839      5.5129465896052414
   215   1     0.10550379537918199      17.832940303478896      3.5638081348861772
   216   1      1.0198995200585972      19.058118123339689      5.7287418307346512
   217   1     0.13516730974906713      20.396055624270581      3.8403661096054411
   218   1      1.1764386703811389      21.576506442127428      5.6549001674650885
   219   1     0.13065928561882462      22.655116128384716      3.8510217213473541
   220   1      1.3298454690065584      24.412801985519081      5.2293636647859065
   221   1      2.6400364449037226      0.4327958546026881       3.557886891718943
   222   1      4.0855174131310248      1.4396934841167268      5.2674864549674583
   223   1      2.5445404548418198      2.8375694308753929      3.6508306324283226
   224   1      4.0070437938744785      3.9492613340090599      5.3101031731275556
   225   1      2.7063384252946903      5.2751027073583074      3.5515422470053624
   226   1      3.8914344467185211      6.2981048612265367      5.3687550353256883
   227   1      2.4033104707423165      7.5883420592230095      3.4536875434410943
   228   1      3.8127078549271927      8.9664216898616278      5.3363071674133495
   229   1      2.5207060023553178      10.273882635274475      3.3823774188795244
   230   1      3.6917889970621407      11.540151509681793       5.393529002986889
   231   1      2.5196697038903531      12.935982718977955      3.6032247848927099
   232   1      3.7571134563844755       14.05963905937212      5.5064655873870603
   233   1      2.7219610904056446      15.176310424593936      3.8353227374755128
   234   1      3.7767653853268812      16.554914778805262      5.6372354470475452
   235   1      2.5127978659454135      17.891608713067743      3.8027926418231837
   236   1      3.7348539882649763      19.201397609202825      5.3943069235099079
   237   1      2.4178148224885381      20.645645139669661      3.6605479072163511
   238   1      3.5395733592651397      21.789238926491404      5.3684470997215783
   239   1      2.4892337382519494       22.93184602422226      3.6767027636952854
   240   1      3.8047041369426919      24.185707087077084      5.1871406104016042
   241   1      5.1255985869035099    0.048742651497450606      3.6797937282098863
   242   1      6.3864332533051416      1.3810543814510894      5.4985437576953258
   243   1      5.2903673115786409      2.7310728915223121      3.4717691073733348
   244   1      6.5779136081321399      3.9051126370837945      5.3422364852968878
   245   1      5.1291770768732787      5.1960454998972434      3.4239520052822754
   246   1       6.463063169204065      6.3234046467362317      5.1195128691647804
   247   1      4.9525470980601627      7.6347345279477592      3.5882764970184424
   248   1      6.1268488143872073      8.8264854497196907      5.2847751495847044
   249   1      5.2451078720390703      10.546395483238774      3.6116541426466511
   250   1      6.3378512640397817      11.409346972892726      5.4316010424815468
   251   1      4.9294545304277904      12.902657810666872      3.6886732552621844
   252   1      6.1820136192042003      13.963558626022158      5.5503087700649365
   253   1      4.9758962289508348      15.243522608409174      3.8068122549643122
   254   1      6.5636740141881909      16.708375738882687      5.4166887420072669
   255   1      5.2969054759352661      17.877368101410205      3.7081190861536188
   256   1      6.6040905225115427      19.066894667984922      5.6068028615819578
   257   1      5.0261269592509707      20.205824853551043      3.5932639098398482
   258   1      6.2277657844857579      21.604655437240936      5.4312787159427156
   259   1      5.0982193814693693      22.922220462402855      3.6397650283383172
   260   1      6.3767735469539355      24.277909800455095      5.3866797173966745
   261   1      7.5191036178718278     0.11271746152073392       3.540481199010606
   262   1      8.9778762452358229      1.3313001361382819      5.8424304467444257
   263   1      7.8827870934832021      2.7450009480360955      3.5236868103301506
   264   1      8.9904615075374732        3.90265833269966      5.6366903496661198
   265   1      7.8170699060407376       5.365941512110167      3.3916104544351797
   266   1      8.8992185369599373      6.2900800747562977      5.3367162820432972
   267   1      7.4810491984061924      7.8608524467390009      3.4666534959961139
   268   1      8.7686989785532976      8.7480132355576607      5.2108346751468213
   269   1      7.8427947030998855      10.241897347381725      3.4912512791750361
   270   1      9.0738355075754527      11.536813684616321      5.4933276243373808
   271   1      7.5457418999244874      12.783457044798078      3.6760301130079389
   272   1      8.9234319950496594      13.989013990741034      5.4320106298786088
   273   1      7.6027905141034626      15.048065272446479      3.5688608143932119
   274   1      9.0086581413133455      16.511134761535093      5.5292840881749665
   275   1      7.6888930885429909      17.807203291817594      3.5319237849364766
   276   1      9.0314149679924007      19.057037118950284      5.6503054171845131
   277   1      7.3745600747836422      20.381018965811478      3.5423196119401483
   278   1      8.6452151466724008      21.615618026024375      5.1352474702636339
   279   1      7.4696374723391825      22.887972249642058      3.4784038183307748
   280   1      8.9153432147286402      23.948660530314431       5.508384836037874
   281   1      10.035660553351383     0.08602120117939499      3.7123896369670413
   282   1      11.497559894098449       1.210906210700516      5.4514728160640278
   283   1      10.172827500504706      2.4328537637763374      3.5774398978418609
   284   1      11.606120164989523       3.803355015645046      5.4414564558035616
   285   1      10.237053047466084      4.9380010886863577       3.851358232704996
   286   1      11.255250330945039      6.4630777682807112      5.4187903713221282
   287   1       10.43666280020633      7.8384707842047003      3.5467596169348106
   288   1      11.481452427621752      8.9992719600120008      5.4421465422125141
   289   1      10.153584284549041      10.315377036045629      3.4985080741687637
   290   1      11.444602862991832      11.489473066252625      5.3615758430771585
   291   1      10.247063295404466      12.649928746119025      3.6987473958098747
   292   1      11.319166051448766      13.883877134253158      5.5120484477499065
   293   1      10.012175562277532      15.181540538582698      3.6747080887254175
   294   1       11.33967886231664      16.676639014465518      5.5040739255229321
   295   1      10.207696081298073      17.919011582318916      3.7600299751227908
   296   1      11.460462944848198      19.027006651882747      5.6836048320963899
   297   1      9.8675545657983754      20.256241515903795      3.7528647597632103
   298   1      11.117564365642584      21.698211423214691      5.1266328102636427
   299   1      9.8440505022192983      23.260516633169942      3.5337062111954753
   300   1      11.562553809007916      24.107736514185056      5.3642290177701799
   301   1      12.643871627863618    0.088019065066877289      3.6473920315245705
   302   1      13.930396857381266      1.2081196342360467      5.3861327024508281
   303   1        12.7537644271522      2.6126252277775537      3.6066181218780811
   304   1      14.116968216984796      3.8034669750737859      5.2068857819991559
   305   1      12.703112973016967      5.0806226719125798      3.5430727909930844
   306   1      13.857248976699266      6.2364624596111664      5.1898541182807145
   307   1      12.844995764888642      7.6519425887452943      3.3975572438567729
   308   1      13.893174693409842      8.7605846310238942      5.2492203493723348
   309   1      12.765721719546177      10.204475097723011       3.577351185722351
   310   1      14.008574339422365      11.453384986639675      5.5607737781824218
   311   1      12.692658413522706      12.920458922540366      3.5577572700682358
   312   1      14.081143142733689      14.107417335733219      5.2007477395294197
   313   1      12.550645509539713      15.378255976186836      3.9520436720893177
   314   1      14.102380642167223      16.419925147575455      5.4223571927796153
   315   1       12.67213514673046      17.967045981606965      3.7752996505312764
   316   1      14.031561913875665      19.266479442476967      5.4522807267922602
   317   1      12.503724161027034      20.358710950599253       3.594555331614981
   318   1      13.855803540012612      21.700186838649994      5.5073706772656434
   319   1      12.605880043298296      22.952829727784426      3.4502500590686753
   320   1      13.923935560976846      24.196194663769916      5.4176091697582986
   321   1        15.1842058962982    0.068924390106748987      3.4703373814852161
   322   1      16.617345247571397      1.3841260139925808      5.3174953917678094
   323   1      15.370338663417682      2.6054273007375661      3.8447120087191053
   324   1      16.664433134734953      3.9157795815186134      5.4452882023739617
   325   1      15.468634621817898      5.2084377458427706       3.474304643371215
   326   1      16.771391193480138      6.3842841261909351      5.4023415093208422
   327   1      15.353531659943835      7.8044070259888478      3.6162773902884178
   328   1      16.537976210611557      9.0099617028464785      5.4589945062477083
   329   1      15.408349569810634      10.195496289297205      3.7961377952202024
   330   1      16.567623404660132      11.563978519914734      5.5095830118465754
   331   1        15.0759642465115      12.634987257702948      3.5853343698466933
   332   1      16.426202753116449      14.040995689490853      5.3420461320674386
   333   1      15.243038213257558      15.613795111690276      3.4216282733904682
   334   1      16.551451649982557      16.640646489281554      5.5283215566380592
   335   1      15.294479506147349      18.134619507196852      3.7511676678633785
   336   1      16.533487338508099      19.176355413949096      5.5455421162506102
   337   1      15.129229673799955      20.469854640170311      3.5167083136054416
   338   1      16.560444177524378      21.751128806874224      5.4580587651543571
   339   1      15.154627988204565      23.009768717761279      3.5560038691006879
   340   1      16.505177808329968      24.417059884374741      5.2906322111315207
   341   1      17.802384780116228     0.07354326946803208      3.5083012722776306
   342   1      19.101231840702017      1.5167367850180979      5.2073762582244632
   343   1      17.807143642013621      2.8165185232189254      3.5432866833036534
   344   1       19.26913405685654      3.8470728686660878      5.1002269883969369
   345   1      17.896530159890268      5.3580492980573444      3.5900449985515124
   346   1      19.367144620315095      6.3178197328965817      5.3827825454270739
   347   1      18.043020851094678      7.7791033021413982      3.6549243405242251
   348   1      19.378056002947822      9.1116251111383146      5.3120151526302397
   349   1      17.805190786268277      10.443726845023598      3.7261503581875317
   350   1       19.01690387533872      11.480284247878037      5.5341585559000128
   351   1      17.636635421370073      12.714654080990874      3.6108724761972404
   352   1       19.13446358971164      13.983551889589288      5.2843341687390755
   353   1      17.807606676994979      15.393362168509974      4.0316630811564691
   354   1      19.023437994765896      16.841041078085173      5.3220582904597018
   355   1      17.788018413892075      17.926135932878356      3.5779566145578872
   356   1      18.806702736001284      19.199596539645398      5.5353751437452532
   357   1      17.906175000462724      20.444574952274301      3.5633469282608887
   358   1      18.984450089240795      21.567036722972517      5.5235956534854367
   359   1      17.818176981629108      22.927033693777759      3.5780521197218271